 Copyright (c) 1988-2019, Gaussian, Inc.  All Rights Reserved.
  
 This is part of the Gaussian(R) 16 program.  It is based on
 the Gaussian(R) 09 system (copyright 2009, Gaussian, Inc.),
 the Gaussian(R) 03 system (copyright 2003, Gaussian, Inc.),
 the Gaussian(R) 98 system (copyright 1998, Gaussian, Inc.),
 the Gaussian(R) 94 system (copyright 1995, Gaussian, Inc.),
 the Gaussian 92(TM) system (copyright 1992, Gaussian, Inc.),
 the Gaussian 90(TM) system (copyright 1990, Gaussian, Inc.),
 the Gaussian 88(TM) system (copyright 1988, Gaussian, Inc.),
 the Gaussian 86(TM) system (copyright 1986, Carnegie Mellon
 University), and the Gaussian 82(TM) system (copyright 1983,
 Carnegie Mellon University). Gaussian is a federally registered
 trademark of Gaussian, Inc.
 Cite this work as:
 Gaussian 16, Revision C.01,
 M. J. Frisch, G. W. Trucks, H. B. Schlegel, G. E. Scuseria, 
 M. A. Robb, J. R. Cheeseman, G. Scalmani, V. Barone, 
 G. A. Petersson, H. Nakatsuji, X. Li, M. Caricato, A. V. Marenich, 
 J. Bloino, B. G. Janesko, R. Gomperts, B. Mennucci, H. P. Hratchian, 
 J. V. Ortiz, A. F. Izmaylov, J. L. Sonnenberg, D. Williams-Young, 
 F. Ding, F. Lipparini, F. Egidi, J. Goings, B. Peng, A. Petrone, 
 T. Henderson, D. Ranasinghe, V. G. Zakrzewski, J. Gao, N. Rega, 
 G. Zheng, W. Liang, M. Hada, M. Ehara, K. Toyota, R. Fukuda, 
 J. Hasegawa, M. Ishida, T. Nakajima, Y. Honda, O. Kitao, H. Nakai, 
 T. Vreven, K. Throssell, J. A. Montgomery, Jr., J. E. Peralta, 
 F. Ogliaro, M. J. Bearpark, J. J. Heyd, E. N. Brothers, K. N. Kudin, 
 V. N. Staroverov, T. A. Keith, R. Kobayashi, J. Normand, 
 K. Raghavachari, A. P. Rendell, J. C. Burant, S. S. Iyengar, 
 J. Tomasi, M. Cossi, J. M. Millam, M. Klene, C. Adamo, R. Cammi, 
 J. W. Ochterski, R. L. Martin, K. Morokuma, O. Farkas, 
 J. B. Foresman, and D. J. Fox, Gaussian, Inc., Wallingford CT, 2019.
 
 ******************************************
 Gaussian 16:  EM64L-G16RevC.01  3-Jul-2019
                 8-Jul-2023 
 ******************************************
 ----------------------------------------------------------------------
 #P HF/6-31G(d) SCF(Conver=8,XQC,MaxConventionalCycles=64,MaxCycle=128)
  NoSymm Test Pop=mk IOp(6/33=2) GFInput GFPrint
 ----------------------------------------------------------------------
 1/38=1,172=1/1;
 2/12=2,15=1,17=6,18=5,40=1/2;
 3/5=1,6=6,7=1,11=9,24=110,25=1,30=1/1,2,3;
 4//1;
 5/5=2,6=8,7=128,8=3,13=1,38=5,85=64/2,8;
 6/7=2,8=2,9=2,10=2,15=8,20=1,28=1,33=2/1,2;
 99/5=1,9=1/99;
 -------------------------------------------------
 MEP step - Input generated by PyRED DVE-DMDS-OPLS
 -------------------------------------------------
 Symbolic Z-matrix:
 Charge =  0 Multiplicity = 1
 C                     5.62832   0.96707  -3.77983 
 H                     5.67548   1.88987  -4.34921 
 H                     6.64483   0.68449  -3.52381 
 H                     5.21117   0.19343  -4.41534 
 C                     4.7971    1.11559  -2.51294 
 H                     4.82385   0.19479  -1.94747 
 H                     5.20116   1.90478  -1.88204 
 O                     3.43832   1.36564  -2.76798 
 C                     3.11922   2.652    -3.20322 
 H                     3.39163   2.78655  -4.2481 
 H                     3.64864   3.39842  -2.61629 
 C                     1.63166   2.8763   -3.05713 
 H                     1.35745   3.78746  -3.58829 
 H                     1.09938   2.04828  -3.51949 
 O                     1.31371   2.99879  -1.70374 
 C                    -0.04142   3.19804  -1.41568 
 H                    -0.51226   3.78777  -2.20122 
 H                    -0.08859   3.766    -0.49591 
 C                    -0.81441   1.90407  -1.22601 
 H                    -0.61849   1.22582  -2.05151 
 H                    -1.87787   2.13117  -1.23512 
 O                    -0.50382   1.30688   0. 
 C                     0.        0.        0. 
 H                    -0.38951  -0.55671  -0.84757 
 H                    -0.36565  -0.48008   0.89841 
 C                     1.52463   0.        0. 
 H                     1.87764   0.47597   0.9062 
 H                     1.91904   0.56447  -0.83202 
 S                     2.2431   -1.66916  -0.0072 
 C                     2.1057   -2.10505  -1.76947 
 H                     1.05818  -2.19942  -2.03306 
 H                     2.53276  -1.30776  -2.36316 
 C                     2.79185  -3.43399  -2.09113 
 H                     2.48057  -3.74053  -3.0823 
 H                     2.46808  -4.21037  -1.40913 
 S                     4.61337  -3.39318  -2.15266 
 C                     5.1259   -3.98933  -0.50861 
 H                     4.57211  -3.47143   0.26021 
 H                     6.15995  -3.68029  -0.42266 
 C                     5.00551  -5.50326  -0.34831 
 H                     3.97053  -5.81115  -0.42783 
 H                     5.54683  -6.01388  -1.13312 
 S                     5.5418   -6.11326   1.28047 
 C                     7.35705  -6.02689   1.17319 
 H                     7.65643  -5.02846   0.87851 
 H                     7.69116  -6.16178   2.1951 
 C                     7.99965  -7.07653   0.27122 
 H                     7.69432  -6.96166  -0.76287 
 H                     9.08159  -6.98339   0.30609 
 H                     7.73233  -8.07687   0.59105 
 
 ITRead=  0  0  0  0  0  0  0  0  0  0  0  0  0  0  0  0  0  0  0  0
 ITRead=  0  0  0  0  0  0  0  0  0  0  0  0  0  0  0  0  0  0  0  0
 ITRead=  0  0  0  0  0  0  0  0  0  0
 MicOpt= -1 -1 -1 -1 -1 -1 -1 -1 -1 -1 -1 -1 -1 -1 -1 -1 -1 -1 -1 -1
 MicOpt= -1 -1 -1 -1 -1 -1 -1 -1 -1 -1 -1 -1 -1 -1 -1 -1 -1 -1 -1 -1
 MicOpt= -1 -1 -1 -1 -1 -1 -1 -1 -1 -1
 NAtoms=     50 NQM=       50 NQMF=       0 NMMI=      0 NMMIF=      0
                NMic=       0 NMicF=      0.
                          Input orientation:                          
 ---------------------------------------------------------------------
 Center     Atomic      Atomic             Coordinates (Angstroms)
 Number     Number       Type             X           Y           Z
 ---------------------------------------------------------------------
      1          6           0        5.628323    0.967068   -3.779828
      2          1           0        5.675481    1.889865   -4.349205
      3          1           0        6.644832    0.684493   -3.523813
      4          1           0        5.211168    0.193426   -4.415342
      5          6           0        4.797096    1.115593   -2.512940
      6          1           0        4.823847    0.194785   -1.947471
      7          1           0        5.201156    1.904783   -1.882038
      8          8           0        3.438317    1.365640   -2.767978
      9          6           0        3.119220    2.651997   -3.203218
     10          1           0        3.391634    2.786550   -4.248104
     11          1           0        3.648642    3.398420   -2.616291
     12          6           0        1.631660    2.876298   -3.057132
     13          1           0        1.357453    3.787460   -3.588292
     14          1           0        1.099382    2.048278   -3.519486
     15          8           0        1.313707    2.998793   -1.703744
     16          6           0       -0.041416    3.198042   -1.415683
     17          1           0       -0.512264    3.787773   -2.201220
     18          1           0       -0.088590    3.766004   -0.495914
     19          6           0       -0.814409    1.904070   -1.226006
     20          1           0       -0.618494    1.225823   -2.051505
     21          1           0       -1.877868    2.131174   -1.235124
     22          8           0       -0.503824    1.306883    0.000000
     23          6           0        0.000000    0.000000    0.000000
     24          1           0       -0.389513   -0.556708   -0.847574
     25          1           0       -0.365645   -0.480082    0.898412
     26          6           0        1.524632    0.000000    0.000000
     27          1           0        1.877635    0.475968    0.906204
     28          1           0        1.919035    0.564473   -0.832020
     29         16           0        2.243099   -1.669156   -0.007196
     30          6           0        2.105701   -2.105050   -1.769473
     31          1           0        1.058184   -2.199418   -2.033060
     32          1           0        2.532762   -1.307764   -2.363160
     33          6           0        2.791852   -3.433993   -2.091128
     34          1           0        2.480565   -3.740528   -3.082296
     35          1           0        2.468082   -4.210368   -1.409131
     36         16           0        4.613370   -3.393179   -2.152655
     37          6           0        5.125904   -3.989327   -0.508611
     38          1           0        4.572109   -3.471428    0.260205
     39          1           0        6.159948   -3.680294   -0.422657
     40          6           0        5.005512   -5.503255   -0.348308
     41          1           0        3.970525   -5.811150   -0.427829
     42          1           0        5.546826   -6.013876   -1.133116
     43         16           0        5.541804   -6.113262    1.280467
     44          6           0        7.357052   -6.026889    1.173188
     45          1           0        7.656430   -5.028461    0.878506
     46          1           0        7.691159   -6.161780    2.195101
     47          6           0        7.999652   -7.076526    0.271223
     48          1           0        7.694320   -6.961656   -0.762866
     49          1           0        9.081592   -6.983393    0.306094
     50          1           0        7.732335   -8.076868    0.591050
 ---------------------------------------------------------------------
 Stoichiometry    C14H30O3S3
 Framework group  C1[X(C14H30O3S3)]
 Standard basis: 6-31G(d) (6D, 7F)
   372 basis functions,   752 primitive gaussians,   372 cartesian basis functions
    93 alpha electrons       93 beta electrons
 Requested convergence on RMS density matrix=1.00D-08 within  64 cycles.
 Requested convergence on MAX density matrix=1.00D-06.
 Requested convergence on             energy=1.00D-06.
 SCF Done:  E(RHF) =  -1964.68897375     A.U. after   13 cycles
            NFock= 13  Conv=0.46D-08     -V/T= 2.0006
 Mulliken charges:
     1  C   -0.504065
     2  H    0.156185
     3  H    0.163975
     4  H    0.175130
     5  C   -0.000970
     6  H    0.200542
     7  H    0.144732
     8  O   -0.630958
     9  C    0.016047
    10  H    0.142824
    11  H    0.157904
    12  C    0.005438
    13  H    0.143042
    14  H    0.148255
    15  O   -0.622305
    16  C    0.000736
    17  H    0.134464
    18  H    0.190007
    19  C    0.006571
    20  H    0.144634
    21  H    0.154127
    22  O   -0.632885
    23  C    0.024315
    24  H    0.140838
    25  H    0.179268
    26  C   -0.522373
    27  H    0.205874
    28  H    0.253763
    29  S    0.089320
    30  C   -0.460180
    31  H    0.184368
    32  H    0.227041
    33  C   -0.494886
    34  H    0.208431
    35  H    0.205789
    36  S    0.109411
    37  C   -0.481948
    38  H    0.242819
    39  H    0.197275
    40  C   -0.475117
    41  H    0.200322
    42  H    0.206778
    43  S    0.115069
    44  C   -0.475924
    45  H    0.189241
    46  H    0.200057
    47  C   -0.475082
    48  H    0.165609
    49  H    0.166314
    50  H    0.180176
 Sum of Mulliken charges =  -0.00000
 Dipole moment (field-independent basis, Debye):
    X=              0.0217    Y=              1.7988    Z=             -3.6941  Tot=              4.1089
 Quadrupole moment (field-independent basis, Debye-Ang):
   XX=           -132.5708   YY=           -149.1606   ZZ=           -144.2034
   XY=              0.4327   XZ=             -0.7920   YZ=             -2.6024
 Traceless Quadrupole moment (field-independent basis, Debye-Ang):
   XX=              9.4075   YY=             -7.1824   ZZ=             -2.2251
   XY=              0.4327   XZ=             -0.7920   YZ=             -2.6024
 Octapole moment (field-independent basis, Debye-Ang**2):
  XXX=          -1307.5121  YYY=            744.8491  ZZZ=            464.0991  XYY=           -487.0204
  XXY=            169.1624  XXZ=            172.9224  XZZ=           -512.2505  YZZ=            270.9830
  YYZ=            101.3071  XYZ=            -12.9882
 Hexadecapole moment (field-independent basis, Debye-Ang**3):
 XXXX=         -13891.4358 YYYY=         -12598.7773 ZZZZ=          -3221.3268 XXXY=           4053.0068
 XXXZ=           1532.6446 YYYX=           4931.0487 YYYZ=            803.2423 ZZZX=           1362.6997
 ZZZY=            545.5735 XXYY=          -4150.5894 XXZZ=          -3237.0819 YYZZ=          -2572.6653
 XXYZ=             23.9645 YYXZ=            368.3545 ZZXY=           1799.2384
 Merz-Kollman atomic radii used.
 Atom Element Radius
    1     6    1.50
    2     1    1.20
    3     1    1.20
    4     1    1.20
    5     6    1.50
    6     1    1.20
    7     1    1.20
    8     8    1.40
    9     6    1.50
   10     1    1.20
   11     1    1.20
   12     6    1.50
   13     1    1.20
   14     1    1.20
   15     8    1.40
   16     6    1.50
   17     1    1.20
   18     1    1.20
   19     6    1.50
   20     1    1.20
   21     1    1.20
   22     8    1.40
   23     6    1.50
   24     1    1.20
   25     1    1.20
   26     6    1.50
   27     1    1.20
   28     1    1.20
   29    16    1.75
   30     6    1.50
   31     1    1.20
   32     1    1.20
   33     6    1.50
   34     1    1.20
   35     1    1.20
   36    16    1.75
   37     6    1.50
   38     1    1.20
   39     1    1.20
   40     6    1.50
   41     1    1.20
   42     1    1.20
   43    16    1.75
   44     6    1.50
   45     1    1.20
   46     1    1.20
   47     6    1.50
   48     1    1.20
   49     1    1.20
   50     1    1.20
 Generate VDW surfaces: Layer= 4 Dens= 1 Start= 1.400 Inc= 0.200
            Electrostatic Properties Using The SCF Density.


       Atomic Center    1 is at   5.628323  0.967068 -3.779828
       Atomic Center    2 is at   5.675481  1.889865 -4.349205
       Atomic Center    3 is at   6.644832  0.684493 -3.523813
       Atomic Center    4 is at   5.211168  0.193426 -4.415342
       Atomic Center    5 is at   4.797096  1.115593 -2.512940
       Atomic Center    6 is at   4.823847  0.194785 -1.947471
       Atomic Center    7 is at   5.201156  1.904783 -1.882038
       Atomic Center    8 is at   3.438317  1.365640 -2.767978
       Atomic Center    9 is at   3.119220  2.651997 -3.203218
       Atomic Center   10 is at   3.391634  2.786550 -4.248104
       Atomic Center   11 is at   3.648642  3.398420 -2.616291
       Atomic Center   12 is at   1.631660  2.876298 -3.057132
       Atomic Center   13 is at   1.357453  3.787460 -3.588292
       Atomic Center   14 is at   1.099382  2.048278 -3.519486
       Atomic Center   15 is at   1.313707  2.998793 -1.703744
       Atomic Center   16 is at  -0.041416  3.198042 -1.415683
       Atomic Center   17 is at  -0.512264  3.787773 -2.201220
       Atomic Center   18 is at  -0.088590  3.766004 -0.495914
       Atomic Center   19 is at  -0.814409  1.904070 -1.226006
       Atomic Center   20 is at  -0.618494  1.225823 -2.051505
       Atomic Center   21 is at  -1.877868  2.131174 -1.235124
       Atomic Center   22 is at  -0.503824  1.306883  0.000000
       Atomic Center   23 is at   0.000000  0.000000  0.000000
       Atomic Center   24 is at  -0.389513 -0.556708 -0.847574
       Atomic Center   25 is at  -0.365645 -0.480082  0.898412
       Atomic Center   26 is at   1.524632  0.000000  0.000000
       Atomic Center   27 is at   1.877635  0.475968  0.906204
       Atomic Center   28 is at   1.919035  0.564473 -0.832020
       Atomic Center   29 is at   2.243099 -1.669156 -0.007196
       Atomic Center   30 is at   2.105701 -2.105050 -1.769473
       Atomic Center   31 is at   1.058184 -2.199418 -2.033060
       Atomic Center   32 is at   2.532762 -1.307764 -2.363160
       Atomic Center   33 is at   2.791852 -3.433993 -2.091128
       Atomic Center   34 is at   2.480565 -3.740528 -3.082296
       Atomic Center   35 is at   2.468082 -4.210368 -1.409131
       Atomic Center   36 is at   4.613370 -3.393179 -2.152655
       Atomic Center   37 is at   5.125904 -3.989327 -0.508611
       Atomic Center   38 is at   4.572109 -3.471428  0.260205
       Atomic Center   39 is at   6.159948 -3.680294 -0.422657
       Atomic Center   40 is at   5.005512 -5.503255 -0.348308
       Atomic Center   41 is at   3.970525 -5.811150 -0.427829
       Atomic Center   42 is at   5.546826 -6.013876 -1.133116
       Atomic Center   43 is at   5.541804 -6.113262  1.280467
       Atomic Center   44 is at   7.357052 -6.026889  1.173188
       Atomic Center   45 is at   7.656430 -5.028461  0.878506
       Atomic Center   46 is at   7.691159 -6.161780  2.195101
       Atomic Center   47 is at   7.999652 -7.076526  0.271223
       Atomic Center   48 is at   7.694320 -6.961656 -0.762866
       Atomic Center   49 is at   9.081592 -6.983393  0.306094
       Atomic Center   50 is at   7.732335 -8.076868  0.591050
      ESP Fit Center   51 is at   6.678323  0.967068 -5.598481
      ESP Fit Center   52 is at   5.628323  0.967068 -5.879828
      ESP Fit Center   53 is at   6.899448  2.916895 -3.830056
      ESP Fit Center   54 is at   5.952932  3.463366 -3.830056
      ESP Fit Center   55 is at   7.273256  1.889865 -4.868354
      ESP Fit Center   56 is at   6.899448  2.916895 -4.868354
      ESP Fit Center   57 is at   5.952932  3.463366 -4.868354
      ESP Fit Center   58 is at   4.876594  3.273579 -4.868354
      ESP Fit Center   59 is at   6.662960  1.889865 -5.708354
      ESP Fit Center   60 is at   5.980629  2.829014 -5.708354
      ESP Fit Center   61 is at   4.876594  2.470291 -5.708354
      ESP Fit Center   62 is at   5.675481  1.889865 -6.029205
      ESP Fit Center   63 is at   7.632311  0.684493 -2.164664
      ESP Fit Center   64 is at   6.949980  1.623642 -2.164664
      ESP Fit Center   65 is at   6.949980 -0.254656 -2.164664
      ESP Fit Center   66 is at   8.242607  0.684493 -3.004664
      ESP Fit Center   67 is at   7.868799  1.711523 -3.004664
      ESP Fit Center   68 is at   6.922283 -0.889008 -3.004664
      ESP Fit Center   69 is at   7.868799 -0.342537 -3.004664
      ESP Fit Center   70 is at   8.242607  0.684493 -4.042962
      ESP Fit Center   71 is at   7.868799  1.711523 -4.042962
      ESP Fit Center   72 is at   6.922283 -0.889008 -4.042962
      ESP Fit Center   73 is at   7.868799 -0.342537 -4.042962
      ESP Fit Center   74 is at   7.632311  0.684493 -4.882962
      ESP Fit Center   75 is at   6.949980 -0.254656 -4.882962
      ESP Fit Center   76 is at   3.709751 -0.353045 -3.896193
      ESP Fit Center   77 is at   4.412281 -1.190288 -3.896193
      ESP Fit Center   78 is at   5.488619 -1.380075 -3.896193
      ESP Fit Center   79 is at   3.709751  0.739897 -4.934491
      ESP Fit Center   80 is at   3.709751 -0.353045 -4.934491
      ESP Fit Center   81 is at   4.412281 -1.190288 -4.934491
      ESP Fit Center   82 is at   5.488619 -1.380075 -4.934491
      ESP Fit Center   83 is at   6.435135 -0.833604 -4.934491
      ESP Fit Center   84 is at   6.198647  0.193426 -5.774491
      ESP Fit Center   85 is at   4.412281  0.773852 -5.774491
      ESP Fit Center   86 is at   4.412281 -0.387000 -5.774491
      ESP Fit Center   87 is at   5.516316 -0.745723 -5.774491
      ESP Fit Center   88 is at   5.211168  0.193426 -6.095342
      ESP Fit Center   89 is at   4.797096  1.115593 -0.412940
      ESP Fit Center   90 is at   3.747096  1.115593 -0.694287
      ESP Fit Center   91 is at   4.823847  0.194785 -0.267471
      ESP Fit Center   92 is at   5.811326  0.194785 -0.588322
      ESP Fit Center   93 is at   4.024960  0.775211 -0.588322
      ESP Fit Center   94 is at   5.128995 -0.744364 -0.588322
      ESP Fit Center   95 is at   6.421622  0.194785 -1.428322
      ESP Fit Center   96 is at   6.047814 -0.832245 -1.428322
      ESP Fit Center   97 is at   6.047814 -0.832245 -2.466620
      ESP Fit Center   98 is at   5.201156  1.904783 -0.202038
      ESP Fit Center   99 is at   6.188635  1.904783 -0.522889
      ESP Fit Center  100 is at   5.506304  2.843932 -0.522889
      ESP Fit Center  101 is at   4.402269  2.485209 -0.522889
      ESP Fit Center  102 is at   5.506304  0.965634 -0.522889
      ESP Fit Center  103 is at   6.798931  1.904783 -1.362889
      ESP Fit Center  104 is at   6.425123  2.931813 -1.362889
      ESP Fit Center  105 is at   5.478607  3.478284 -1.362889
      ESP Fit Center  106 is at   6.425123  2.931813 -2.401187
      ESP Fit Center  107 is at   5.478607  3.478284 -2.401187
      ESP Fit Center  108 is at   3.438317  1.365640 -0.807978
      ESP Fit Center  109 is at   1.740907  0.385640 -2.767978
      ESP Fit Center  110 is at   2.065084  0.367928 -3.747978
      ESP Fit Center  111 is at   2.913789 -0.248693 -3.747978
      ESP Fit Center  112 is at   2.948317  0.516935 -4.465388
      ESP Fit Center  113 is at   2.860399  4.452139 -4.253218
      ESP Fit Center  114 is at   4.615601  3.813580 -4.767253
      ESP Fit Center  115 is at   3.669085  4.360051 -4.767253
      ESP Fit Center  116 is at   2.592747  4.170264 -4.767253
      ESP Fit Center  117 is at   3.669085  1.213049 -4.767253
      ESP Fit Center  118 is at   4.379113  2.786550 -5.607253
      ESP Fit Center  119 is at   3.696782  3.725699 -5.607253
      ESP Fit Center  120 is at   2.592747  3.366976 -5.607253
      ESP Fit Center  121 is at   2.592747  2.206124 -5.607253
      ESP Fit Center  122 is at   3.696782  1.847401 -5.607253
      ESP Fit Center  123 is at   3.391634  2.786550 -5.928104
      ESP Fit Center  124 is at   3.648642  3.398420 -0.936291
      ESP Fit Center  125 is at   4.636121  3.398420 -1.257142
      ESP Fit Center  126 is at   3.953790  4.337569 -1.257142
      ESP Fit Center  127 is at   4.872609  4.425450 -2.097142
      ESP Fit Center  128 is at   3.926093  4.971921 -2.097142
      ESP Fit Center  129 is at   2.849755  4.782134 -2.097142
      ESP Fit Center  130 is at   5.246417  3.398420 -3.135440
      ESP Fit Center  131 is at   4.872609  4.425450 -3.135440
      ESP Fit Center  132 is at   3.926093  4.971921 -3.135440
      ESP Fit Center  133 is at   2.849755  4.782134 -3.135440
      ESP Fit Center  134 is at   1.631660  2.876298 -5.157132
      ESP Fit Center  135 is at   2.581420  4.814490 -3.069143
      ESP Fit Center  136 is at   1.634904  5.360961 -3.069143
      ESP Fit Center  137 is at   0.558566  5.171174 -3.069143
      ESP Fit Center  138 is at   2.581420  4.814490 -4.107441
      ESP Fit Center  139 is at   1.634904  5.360961 -4.107441
      ESP Fit Center  140 is at   0.558566  5.171174 -4.107441
      ESP Fit Center  141 is at  -0.143964  4.333931 -4.107441
      ESP Fit Center  142 is at   1.662601  4.726609 -4.947441
      ESP Fit Center  143 is at   0.558566  4.367886 -4.947441
      ESP Fit Center  144 is at   0.558566  3.207034 -4.947441
      ESP Fit Center  145 is at   1.357453  3.787460 -5.268292
      ESP Fit Center  146 is at   1.376833  0.474777 -3.000337
      ESP Fit Center  147 is at  -0.402035  2.594749 -4.038635
      ESP Fit Center  148 is at  -0.402035  1.501807 -4.038635
      ESP Fit Center  149 is at   0.300495  0.664564 -4.038635
      ESP Fit Center  150 is at   1.376833  0.474777 -4.038635
      ESP Fit Center  151 is at   0.300495  2.628704 -4.878635
      ESP Fit Center  152 is at   0.300495  1.467852 -4.878635
      ESP Fit Center  153 is at   1.404530  1.109129 -4.878635
      ESP Fit Center  154 is at   1.099382  2.048278 -5.199486
      ESP Fit Center  155 is at   1.313707  2.998793  0.256256
      ESP Fit Center  156 is at   2.293707  2.998793 -0.006334
      ESP Fit Center  157 is at   1.803707  3.847498 -0.006334
      ESP Fit Center  158 is at   1.803707  2.150088 -0.006334
      ESP Fit Center  159 is at   3.011117  2.998793 -0.723744
      ESP Fit Center  160 is at   2.686940  3.996505 -0.723744
      ESP Fit Center  161 is at   1.838235  4.613126 -0.723744
      ESP Fit Center  162 is at   2.293707  4.696203 -1.703744
      ESP Fit Center  163 is at   1.313707  4.958793 -1.703744
      ESP Fit Center  164 is at  -1.786401  3.710416 -0.365683
      ESP Fit Center  165 is at   0.211711  5.282731 -1.415683
      ESP Fit Center  166 is at  -0.234813  5.361274 -1.682071
      ESP Fit Center  167 is at  -1.311151  5.171487 -1.682071
      ESP Fit Center  168 is at  -2.013681  4.334244 -1.682071
      ESP Fit Center  169 is at  -0.234813  5.361274 -2.720369
      ESP Fit Center  170 is at  -1.311151  5.171487 -2.720369
      ESP Fit Center  171 is at  -2.013681  4.334244 -2.720369
      ESP Fit Center  172 is at  -2.013681  3.241302 -2.720369
      ESP Fit Center  173 is at  -0.207116  4.726922 -3.560369
      ESP Fit Center  174 is at  -1.311151  4.368199 -3.560369
      ESP Fit Center  175 is at  -1.311151  3.207347 -3.560369
      ESP Fit Center  176 is at  -0.512264  3.787773 -3.881220
      ESP Fit Center  177 is at  -0.088590  3.766004  1.184086
      ESP Fit Center  178 is at   0.898889  3.766004  0.863235
      ESP Fit Center  179 is at   0.216558  4.705153  0.863235
      ESP Fit Center  180 is at  -0.887477  4.346430  0.863235
      ESP Fit Center  181 is at  -0.887477  3.185578  0.863235
      ESP Fit Center  182 is at   1.135377  4.793034  0.023235
      ESP Fit Center  183 is at   0.188861  5.339505  0.023235
      ESP Fit Center  184 is at  -0.887477  5.149718  0.023235
      ESP Fit Center  185 is at  -1.590007  4.312475  0.023235
      ESP Fit Center  186 is at   0.188861  5.339505 -1.015063
      ESP Fit Center  187 is at  -0.887477  5.149718 -1.015063
      ESP Fit Center  188 is at  -2.386282  0.511512 -1.226006
      ESP Fit Center  189 is at  -1.864409  1.904070 -3.044659
      ESP Fit Center  190 is at  -2.119911  0.679352 -2.570654
      ESP Fit Center  191 is at  -1.417381 -0.157891 -2.570654
      ESP Fit Center  192 is at  -0.341043 -0.347678 -2.570654
      ESP Fit Center  193 is at   0.605473  0.198793 -2.570654
      ESP Fit Center  194 is at  -1.417381  1.806249 -3.410654
      ESP Fit Center  195 is at  -1.417381  0.645397 -3.410654
      ESP Fit Center  196 is at  -0.313346  0.286674 -3.410654
      ESP Fit Center  197 is at  -0.618494  1.225823 -3.731505
      ESP Fit Center  198 is at  -2.676755  2.711600  0.124025
      ESP Fit Center  199 is at  -2.676755  1.550748  0.124025
      ESP Fit Center  200 is at  -2.676755  3.514888 -0.715975
      ESP Fit Center  201 is at  -3.379285  2.677645 -0.715975
      ESP Fit Center  202 is at  -3.379285  1.584703 -0.715975
      ESP Fit Center  203 is at  -2.676755  0.747460 -0.715975
      ESP Fit Center  204 is at  -2.676755  3.514888 -1.754273
      ESP Fit Center  205 is at  -3.379285  2.677645 -1.754273
      ESP Fit Center  206 is at  -3.379285  1.584703 -1.754273
      ESP Fit Center  207 is at  -2.676755  0.747460 -1.754273
      ESP Fit Center  208 is at  -2.676755  2.711600 -2.594273
      ESP Fit Center  209 is at  -2.676755  1.550748 -2.594273
      ESP Fit Center  210 is at  -0.503824  1.306883  1.960000
      ESP Fit Center  211 is at   0.476176  1.306883  1.697410
      ESP Fit Center  212 is at  -0.013824  2.155588  1.697410
      ESP Fit Center  213 is at  -0.993824  2.155588  1.697410
      ESP Fit Center  214 is at  -1.483824  1.306883  1.697410
      ESP Fit Center  215 is at   0.869409  2.304595  0.980000
      ESP Fit Center  216 is at   0.020704  2.921216  0.980000
      ESP Fit Center  217 is at  -1.028352  2.921216  0.980000
      ESP Fit Center  218 is at  -1.877057  2.304595  0.980000
      ESP Fit Center  219 is at  -2.201234  1.306883  0.980000
      ESP Fit Center  220 is at  -1.877057  0.309171  0.980000
      ESP Fit Center  221 is at  -2.201234  0.326883  0.000000
      ESP Fit Center  222 is at   0.525000  0.909327  1.818653
      ESP Fit Center  223 is at  -2.038978 -0.502563  0.000000
      ESP Fit Center  224 is at  -0.744670 -1.963534  0.000000
      ESP Fit Center  225 is at  -1.890930 -1.103179 -0.328425
      ESP Fit Center  226 is at  -1.188400 -1.940422 -0.328425
      ESP Fit Center  227 is at  -1.890930 -0.010237 -1.366723
      ESP Fit Center  228 is at  -1.890930 -1.103179 -1.366723
      ESP Fit Center  229 is at  -1.188400 -1.940422 -1.366723
      ESP Fit Center  230 is at   0.597966 -0.556708 -2.206723
      ESP Fit Center  231 is at  -1.188400 -1.137134 -2.206723
      ESP Fit Center  232 is at  -0.389513 -0.556708 -2.527574
      ESP Fit Center  233 is at  -0.365645 -0.480082  2.578412
      ESP Fit Center  234 is at   0.621834 -0.480082  2.257561
      ESP Fit Center  235 is at  -0.060497  0.459067  2.257561
      ESP Fit Center  236 is at  -1.164532  0.100344  2.257561
      ESP Fit Center  237 is at  -1.164532 -1.060508  2.257561
      ESP Fit Center  238 is at  -0.060497 -1.419231  2.257561
      ESP Fit Center  239 is at  -1.867062  0.066389  1.417561
      ESP Fit Center  240 is at  -1.867062 -1.026553  1.417561
      ESP Fit Center  241 is at  -1.164532 -1.863796  1.417561
      ESP Fit Center  242 is at  -0.088194 -2.053583  1.417561
      ESP Fit Center  243 is at  -1.867062 -1.026553  0.379263
      ESP Fit Center  244 is at  -1.164532 -1.863796  0.379263
      ESP Fit Center  245 is at   3.384090  0.975919  0.000000
      ESP Fit Center  246 is at   1.777759  2.084689  0.000000
      ESP Fit Center  247 is at   1.877635  0.475968  2.586204
      ESP Fit Center  248 is at   2.865114  0.475968  2.265353
      ESP Fit Center  249 is at   2.182783  1.415117  2.265353
      ESP Fit Center  250 is at   1.078748  1.056394  2.265353
      ESP Fit Center  251 is at   1.078748 -0.104458  2.265353
      ESP Fit Center  252 is at   2.182783 -0.463181  2.265353
      ESP Fit Center  253 is at   3.475410  0.475968  1.425353
      ESP Fit Center  254 is at   3.101602  1.502998  1.425353
      ESP Fit Center  255 is at   2.155086  2.049469  1.425353
      ESP Fit Center  256 is at   1.078748  1.859682  1.425353
      ESP Fit Center  257 is at   3.101602  1.502998  0.387055
      ESP Fit Center  258 is at   2.155086  2.049469  0.387055
      ESP Fit Center  259 is at   3.143002  1.591503 -0.312871
      ESP Fit Center  260 is at   1.120148 -0.015953 -2.191169
      ESP Fit Center  261 is at   2.243099 -1.669156  2.442804
      ESP Fit Center  262 is at   3.306114 -1.669156  2.200178
      ESP Fit Center  263 is at   2.774607 -0.748558  2.200178
      ESP Fit Center  264 is at   1.711591 -0.748558  2.200178
      ESP Fit Center  265 is at   1.180084 -1.669156  2.200178
      ESP Fit Center  266 is at   1.711591 -2.589754  2.200178
      ESP Fit Center  267 is at   2.774607 -2.589754  2.200178
      ESP Fit Center  268 is at   4.158586 -1.669156  1.520354
      ESP Fit Center  269 is at   3.854509 -0.633565  1.520354
      ESP Fit Center  270 is at   0.405203 -2.208811  1.520354
      ESP Fit Center  271 is at   0.988722 -3.116785  1.520354
      ESP Fit Center  272 is at   1.970497 -3.565146  1.520354
      ESP Fit Center  273 is at   3.038821 -3.411544  1.520354
      ESP Fit Center  274 is at   4.631672 -1.669156  0.537980
      ESP Fit Center  275 is at   4.395129 -0.632793  0.537980
      ESP Fit Center  276 is at   3.732350  0.198306  0.537980
      ESP Fit Center  277 is at   0.091069 -2.705519  0.537980
      ESP Fit Center  278 is at   0.753848 -3.536618  0.537980
      ESP Fit Center  279 is at   1.711591 -3.997843  0.537980
      ESP Fit Center  280 is at   2.774607 -3.997843  0.537980
      ESP Fit Center  281 is at   3.732350  0.198306 -0.552372
      ESP Fit Center  282 is at   0.091069 -2.705519 -0.552372
      ESP Fit Center  283 is at   0.753848 -3.536618 -0.552372
      ESP Fit Center  284 is at   2.105701 -2.105050 -3.869473
      ESP Fit Center  285 is at  -0.443233 -2.745889 -1.513911
      ESP Fit Center  286 is at   0.259297 -3.583132 -1.513911
      ESP Fit Center  287 is at   0.259297 -0.815704 -2.552209
      ESP Fit Center  288 is at  -0.443233 -1.652947 -2.552209
      ESP Fit Center  289 is at  -0.443233 -2.745889 -2.552209
      ESP Fit Center  290 is at   0.259297 -3.583132 -2.552209
      ESP Fit Center  291 is at   0.259297 -1.618992 -3.392209
      ESP Fit Center  292 is at   0.259297 -2.779844 -3.392209
      ESP Fit Center  293 is at   1.058184 -2.199418 -3.713060
      ESP Fit Center  294 is at   1.733875  0.075950 -2.882309
      ESP Fit Center  295 is at   3.520241 -1.307764 -3.722309
      ESP Fit Center  296 is at   2.837910 -0.368615 -3.722309
      ESP Fit Center  297 is at   1.733875 -0.727338 -3.722309
      ESP Fit Center  298 is at   2.532762 -1.307764 -4.043160
      ESP Fit Center  299 is at   0.752874 -3.936556 -2.091128
      ESP Fit Center  300 is at   0.979148 -3.194057 -3.601445
      ESP Fit Center  301 is at   0.979148 -4.286999 -3.601445
      ESP Fit Center  302 is at   1.681678 -5.124242 -3.601445
      ESP Fit Center  303 is at   2.758016 -5.314029 -3.601445
      ESP Fit Center  304 is at   3.468044 -3.740528 -4.441445
      ESP Fit Center  305 is at   2.785713 -2.801379 -4.441445
      ESP Fit Center  306 is at   1.681678 -3.160102 -4.441445
      ESP Fit Center  307 is at   1.681678 -4.320954 -4.441445
      ESP Fit Center  308 is at   2.785713 -4.679677 -4.441445
      ESP Fit Center  309 is at   2.480565 -3.740528 -4.762296
      ESP Fit Center  310 is at   2.468082 -4.210368  0.270869
      ESP Fit Center  311 is at   1.669195 -4.790794 -0.049982
      ESP Fit Center  312 is at   0.966665 -3.663897 -0.889982
      ESP Fit Center  313 is at   0.966665 -4.756839 -0.889982
      ESP Fit Center  314 is at   1.669195 -5.594082 -0.889982
      ESP Fit Center  315 is at   0.966665 -4.756839 -1.928280
      ESP Fit Center  316 is at   1.669195 -5.594082 -1.928280
      ESP Fit Center  317 is at   2.745533 -5.783869 -1.928280
      ESP Fit Center  318 is at   5.409092 -1.650791 -0.625105
      ESP Fit Center  319 is at   6.765400 -2.356816 -1.607479
      ESP Fit Center  320 is at   6.102621 -1.525717 -1.607479
      ESP Fit Center  321 is at   7.001943 -3.393179 -2.697831
      ESP Fit Center  322 is at   6.765400 -2.356816 -2.697831
      ESP Fit Center  323 is at   6.102621 -1.525717 -2.697831
      ESP Fit Center  324 is at   4.081862 -5.721866 -2.697831
      ESP Fit Center  325 is at   6.102621 -5.260641 -2.697831
      ESP Fit Center  326 is at   6.765400 -4.429542 -2.697831
      ESP Fit Center  327 is at   6.528857 -3.393179 -3.680205
      ESP Fit Center  328 is at   6.224780 -2.357588 -3.680205
      ESP Fit Center  329 is at   5.409092 -1.650791 -3.680205
      ESP Fit Center  330 is at   4.340768 -1.497189 -3.680205
      ESP Fit Center  331 is at   3.358993 -1.945550 -3.680205
      ESP Fit Center  332 is at   4.340768 -5.289169 -3.680205
      ESP Fit Center  333 is at   5.409092 -5.135567 -3.680205
      ESP Fit Center  334 is at   6.224780 -4.428770 -3.680205
      ESP Fit Center  335 is at   5.676385 -3.393179 -4.360029
      ESP Fit Center  336 is at   5.144878 -2.472581 -4.360029
      ESP Fit Center  337 is at   4.081862 -2.472581 -4.360029
      ESP Fit Center  338 is at   3.550355 -3.393179 -4.360029
      ESP Fit Center  339 is at   4.081862 -4.313777 -4.360029
      ESP Fit Center  340 is at   5.144878 -4.313777 -4.360029
      ESP Fit Center  341 is at   4.613370 -3.393179 -4.602655
      ESP Fit Center  342 is at   4.572109 -3.471428  1.940205
      ESP Fit Center  343 is at   5.559588 -3.471428  1.619354
      ESP Fit Center  344 is at   4.877257 -2.532279  1.619354
      ESP Fit Center  345 is at   3.773222 -2.891002  1.619354
      ESP Fit Center  346 is at   3.773222 -4.051854  1.619354
      ESP Fit Center  347 is at   5.796076 -2.444398  0.779354
      ESP Fit Center  348 is at   4.849560 -1.897927  0.779354
      ESP Fit Center  349 is at   3.070692 -4.017899  0.779354
      ESP Fit Center  350 is at   6.465096 -2.741145  0.936492
      ESP Fit Center  351 is at   7.383915 -2.653264  0.096492
      ESP Fit Center  352 is at   6.437399 -2.106793  0.096492
      ESP Fit Center  353 is at   7.757723 -3.680294 -0.941806
      ESP Fit Center  354 is at   7.383915 -2.653264 -0.941806
      ESP Fit Center  355 is at   6.437399 -2.106793 -0.941806
      ESP Fit Center  356 is at   7.383915 -4.707324 -0.941806
      ESP Fit Center  357 is at   7.147427 -3.680294 -1.781806
      ESP Fit Center  358 is at   4.260842 -7.466789 -0.348308
      ESP Fit Center  359 is at   3.171638 -5.230724  0.931320
      ESP Fit Center  360 is at   2.469108 -5.264679  0.091320
      ESP Fit Center  361 is at   2.469108 -6.357621  0.091320
      ESP Fit Center  362 is at   3.171638 -7.194864  0.091320
      ESP Fit Center  363 is at   2.469108 -6.357621 -0.946978
      ESP Fit Center  364 is at   3.171638 -7.194864 -0.946978
      ESP Fit Center  365 is at   4.247976 -7.384651 -0.946978
      ESP Fit Center  366 is at   3.171638 -6.391576 -1.786978
      ESP Fit Center  367 is at   6.770793 -4.986846 -1.652265
      ESP Fit Center  368 is at   4.747939 -7.397590 -1.652265
      ESP Fit Center  369 is at   5.824277 -7.587377 -1.652265
      ESP Fit Center  370 is at   6.534305 -6.013876 -2.492265
      ESP Fit Center  371 is at   4.747939 -6.594302 -2.492265
      ESP Fit Center  372 is at   5.851974 -6.953025 -2.492265
      ESP Fit Center  373 is at   5.546826 -6.013876 -2.813116
      ESP Fit Center  374 is at   5.541804 -6.113262  3.730467
      ESP Fit Center  375 is at   6.604819 -6.113262  3.487841
      ESP Fit Center  376 is at   6.073312 -5.192664  3.487841
      ESP Fit Center  377 is at   5.010296 -5.192664  3.487841
      ESP Fit Center  378 is at   4.478789 -6.113262  3.487841
      ESP Fit Center  379 is at   5.010296 -7.033860  3.487841
      ESP Fit Center  380 is at   6.073312 -7.033860  3.487841
      ESP Fit Center  381 is at   6.337526 -4.370874  2.808017
      ESP Fit Center  382 is at   5.269202 -4.217272  2.808017
      ESP Fit Center  383 is at   4.287427 -4.665633  2.808017
      ESP Fit Center  384 is at   3.703908 -5.573607  2.808017
      ESP Fit Center  385 is at   3.703908 -6.652917  2.808017
      ESP Fit Center  386 is at   4.287427 -7.560891  2.808017
      ESP Fit Center  387 is at   5.269202 -8.009252  2.808017
      ESP Fit Center  388 is at   6.337526 -7.855650  2.808017
      ESP Fit Center  389 is at   6.073312 -3.784575  1.825643
      ESP Fit Center  390 is at   4.052553 -4.245800  1.825643
      ESP Fit Center  391 is at   3.389774 -5.076899  1.825643
      ESP Fit Center  392 is at   3.153231 -6.113262  1.825643
      ESP Fit Center  393 is at   3.389774 -7.149625  1.825643
      ESP Fit Center  394 is at   4.052553 -7.980724  1.825643
      ESP Fit Center  395 is at   5.010296 -8.441949  1.825643
      ESP Fit Center  396 is at   6.073312 -8.441949  1.825643
      ESP Fit Center  397 is at   3.389774 -7.149625  0.735291
      ESP Fit Center  398 is at   4.052553 -7.980724  0.735291
      ESP Fit Center  399 is at   5.010296 -8.441949  0.735291
      ESP Fit Center  400 is at   6.073312 -8.441949  0.735291
      ESP Fit Center  401 is at   4.287427 -7.560891 -0.247083
      ESP Fit Center  402 is at   5.269202 -8.009252 -0.247083
      ESP Fit Center  403 is at   7.098231 -7.827031  2.223188
      ESP Fit Center  404 is at   7.961578 -4.089312  2.237655
      ESP Fit Center  405 is at   9.254205 -5.028461  1.397655
      ESP Fit Center  406 is at   8.880397 -4.001431  1.397655
      ESP Fit Center  407 is at   7.933881 -3.454960  1.397655
      ESP Fit Center  408 is at   6.857543 -3.644747  1.397655
      ESP Fit Center  409 is at   9.254205 -5.028461  0.359357
      ESP Fit Center  410 is at   8.880397 -4.001431  0.359357
      ESP Fit Center  411 is at   7.933881 -3.454960  0.359357
      ESP Fit Center  412 is at   8.643909 -5.028461 -0.480643
      ESP Fit Center  413 is at   7.961578 -4.089312 -0.480643
      ESP Fit Center  414 is at   7.656430 -5.028461 -0.801494
      ESP Fit Center  415 is at   7.691159 -6.161780  3.875101
      ESP Fit Center  416 is at   8.678638 -6.161780  3.554250
      ESP Fit Center  417 is at   7.996307 -5.222631  3.554250
      ESP Fit Center  418 is at   6.892272 -5.581354  3.554250
      ESP Fit Center  419 is at   6.892272 -6.742206  3.554250
      ESP Fit Center  420 is at   7.996307 -7.100929  3.554250
      ESP Fit Center  421 is at   9.288934 -6.161780  2.714250
      ESP Fit Center  422 is at   8.915126 -5.134750  2.714250
      ESP Fit Center  423 is at   7.968610 -4.588279  2.714250
      ESP Fit Center  424 is at   7.968610 -7.735281  2.714250
      ESP Fit Center  425 is at   8.915126 -7.188810  2.714250
      ESP Fit Center  426 is at   8.524652 -7.985853  2.089876
      ESP Fit Center  427 is at   8.755148 -5.422221 -0.778777
      ESP Fit Center  428 is at   6.808687 -8.450972 -0.778777
      ESP Fit Center  429 is at   8.755148 -8.730831 -0.778777
      ESP Fit Center  430 is at   8.918287 -5.934626 -1.282015
      ESP Fit Center  431 is at   7.971771 -5.388155 -1.282015
      ESP Fit Center  432 is at   6.895433 -8.345370 -1.282015
      ESP Fit Center  433 is at   7.971771 -8.535157 -1.282015
      ESP Fit Center  434 is at   8.681799 -6.961656 -2.122015
      ESP Fit Center  435 is at   7.999468 -6.022507 -2.122015
      ESP Fit Center  436 is at   6.895433 -6.381230 -2.122015
      ESP Fit Center  437 is at   6.895433 -7.542082 -2.122015
      ESP Fit Center  438 is at   7.999468 -7.900805 -2.122015
      ESP Fit Center  439 is at   7.694320 -6.961656 -2.442866
      ESP Fit Center  440 is at  10.069071 -6.983393  1.665243
      ESP Fit Center  441 is at   9.386740 -7.922542  1.665243
      ESP Fit Center  442 is at  10.679367 -6.983393  0.825243
      ESP Fit Center  443 is at  10.305559 -5.956363  0.825243
      ESP Fit Center  444 is at   9.359043 -5.409892  0.825243
      ESP Fit Center  445 is at  10.305559 -8.010423  0.825243
      ESP Fit Center  446 is at  10.679367 -6.983393 -0.213055
      ESP Fit Center  447 is at  10.305559 -5.956363 -0.213055
      ESP Fit Center  448 is at   9.359043 -5.409892 -0.213055
      ESP Fit Center  449 is at  10.305559 -8.010423 -0.213055
      ESP Fit Center  450 is at  10.069071 -6.983393 -1.053055
      ESP Fit Center  451 is at   9.386740 -6.044244 -1.053055
      ESP Fit Center  452 is at   7.732335 -8.076868  2.271050
      ESP Fit Center  453 is at   6.933448 -8.657294  1.950199
      ESP Fit Center  454 is at   8.037483 -9.016017  1.950199
      ESP Fit Center  455 is at   6.230918 -8.623339  1.110199
      ESP Fit Center  456 is at   6.933448 -9.460582  1.110199
      ESP Fit Center  457 is at   8.009786 -9.650369  1.110199
      ESP Fit Center  458 is at   8.956302 -9.103898  1.110199
      ESP Fit Center  459 is at   6.230918 -8.623339  0.071901
      ESP Fit Center  460 is at   6.933448 -9.460582  0.071901
      ESP Fit Center  461 is at   8.009786 -9.650369  0.071901
      ESP Fit Center  462 is at   8.956302 -9.103898  0.071901
      ESP Fit Center  463 is at   6.933448 -8.657294 -0.768099
      ESP Fit Center  464 is at   8.037483 -9.016017 -0.768099
      ESP Fit Center  465 is at   7.087181  2.796418 -3.245778
      ESP Fit Center  466 is at   6.148983 -1.314095 -3.245778
      ESP Fit Center  467 is at   7.504719  0.967068 -5.276204
      ESP Fit Center  468 is at   7.206847 -0.047388 -5.276204
      ESP Fit Center  469 is at   6.669644  0.967068 -5.942153
      ESP Fit Center  470 is at   5.628323  0.967068 -6.179828
      ESP Fit Center  471 is at   6.189305  3.471252 -3.389205
      ESP Fit Center  472 is at   7.338250  2.849865 -4.349205
      ESP Fit Center  473 is at   6.635481  3.552634 -4.349205
      ESP Fit Center  474 is at   5.675481  3.809865 -4.349205
      ESP Fit Center  475 is at   7.338250  1.889865 -5.309205
      ESP Fit Center  476 is at   7.020689  2.867216 -5.309205
      ESP Fit Center  477 is at   6.189305  3.471252 -5.309205
      ESP Fit Center  478 is at   5.161657  3.471252 -5.309205
      ESP Fit Center  479 is at   6.635481  1.889865 -6.011974
      ESP Fit Center  480 is at   6.155481  2.721249 -6.011974
      ESP Fit Center  481 is at   5.195481  2.721249 -6.011974
      ESP Fit Center  482 is at   4.715481  1.889865 -6.011974
      ESP Fit Center  483 is at   5.675481  1.889865 -6.269205
      ESP Fit Center  484 is at   7.604832  0.684493 -1.861044
      ESP Fit Center  485 is at   7.124832  1.515877 -1.861044
      ESP Fit Center  486 is at   7.124832 -0.146891 -1.861044
      ESP Fit Center  487 is at   8.307601  0.684493 -2.563813
      ESP Fit Center  488 is at   7.990040  1.661844 -2.563813
      ESP Fit Center  489 is at   7.158656 -0.896894 -2.563813
      ESP Fit Center  490 is at   7.990040 -0.292858 -2.563813
      ESP Fit Center  491 is at   8.564832  0.684493 -3.523813
      ESP Fit Center  492 is at   8.307601  1.644493 -3.523813
      ESP Fit Center  493 is at   7.604832  2.347262 -3.523813
      ESP Fit Center  494 is at   6.644832 -1.235507 -3.523813
      ESP Fit Center  495 is at   7.604832 -0.978276 -3.523813
      ESP Fit Center  496 is at   8.307601 -0.275507 -3.523813
      ESP Fit Center  497 is at   8.307601  0.684493 -4.483813
      ESP Fit Center  498 is at   7.990040  1.661844 -4.483813
      ESP Fit Center  499 is at   7.158656 -0.896894 -4.483813
      ESP Fit Center  500 is at   7.990040 -0.292858 -4.483813
      ESP Fit Center  501 is at   7.604832  0.684493 -5.186582
      ESP Fit Center  502 is at   3.548399 -0.766574 -4.415342
      ESP Fit Center  503 is at   4.251168 -1.469343 -4.415342
      ESP Fit Center  504 is at   5.211168 -1.726574 -4.415342
      ESP Fit Center  505 is at   6.171168 -1.469343 -4.415342
      ESP Fit Center  506 is at   3.548399  0.193426 -5.375342
      ESP Fit Center  507 is at   3.865960 -0.783925 -5.375342
      ESP Fit Center  508 is at   4.697344 -1.387961 -5.375342
      ESP Fit Center  509 is at   5.724992 -1.387961 -5.375342
      ESP Fit Center  510 is at   6.556376 -0.783925 -5.375342
      ESP Fit Center  511 is at   6.171168  0.193426 -6.078111
      ESP Fit Center  512 is at   4.731168  1.024810 -6.078111
      ESP Fit Center  513 is at   4.251168  0.193426 -6.078111
      ESP Fit Center  514 is at   4.731168 -0.637958 -6.078111
      ESP Fit Center  515 is at   5.691168 -0.637958 -6.078111
      ESP Fit Center  516 is at   5.211168  0.193426 -6.335342
      ESP Fit Center  517 is at   4.797096  1.115593 -0.112940
      ESP Fit Center  518 is at   3.755775  1.115593 -0.350615
      ESP Fit Center  519 is at   4.823847  0.194785 -0.027471
      ESP Fit Center  520 is at   5.783847  0.194785 -0.284702
      ESP Fit Center  521 is at   5.303847 -0.636599 -0.284702
      ESP Fit Center  522 is at   6.486616  0.194785 -0.987471
      ESP Fit Center  523 is at   6.169055 -0.782566 -0.987471
      ESP Fit Center  524 is at   6.486616 -0.765215 -1.947471
      ESP Fit Center  525 is at   5.201156  1.904783  0.037962
      ESP Fit Center  526 is at   6.161156  1.904783 -0.219269
      ESP Fit Center  527 is at   5.681156  2.736167 -0.219269
      ESP Fit Center  528 is at   4.721156  2.736167 -0.219269
      ESP Fit Center  529 is at   4.241156  1.904783 -0.219269
      ESP Fit Center  530 is at   5.681156  1.073399 -0.219269
      ESP Fit Center  531 is at   6.863925  1.904783 -0.922038
      ESP Fit Center  532 is at   6.546364  2.882134 -0.922038
      ESP Fit Center  533 is at   5.714980  3.486170 -0.922038
      ESP Fit Center  534 is at   4.687332  3.486170 -0.922038
      ESP Fit Center  535 is at   7.121156  1.904783 -1.882038
      ESP Fit Center  536 is at   6.863925  2.864783 -1.882038
      ESP Fit Center  537 is at   6.161156  3.567552 -1.882038
      ESP Fit Center  538 is at   5.714980  3.486170 -2.842038
      ESP Fit Center  539 is at   2.021483  0.336250 -4.164595
      ESP Fit Center  540 is at   2.897135 -0.299948 -4.164595
      ESP Fit Center  541 is at   2.952367  0.523950 -4.786148
      ESP Fit Center  542 is at   5.227331  3.667210 -3.737268
      ESP Fit Center  543 is at   5.054403  3.746550 -4.248104
      ESP Fit Center  544 is at   4.351634  4.449319 -4.248104
      ESP Fit Center  545 is at   4.736842  3.763901 -5.208104
      ESP Fit Center  546 is at   3.905458  4.367937 -5.208104
      ESP Fit Center  547 is at   2.877810  4.367937 -5.208104
      ESP Fit Center  548 is at   2.046426  1.809199 -5.208104
      ESP Fit Center  549 is at   2.877810  1.205163 -5.208104
      ESP Fit Center  550 is at   4.351634  2.786550 -5.910873
      ESP Fit Center  551 is at   3.871634  3.617934 -5.910873
      ESP Fit Center  552 is at   2.911634  3.617934 -5.910873
      ESP Fit Center  553 is at   2.431634  2.786550 -5.910873
      ESP Fit Center  554 is at   2.911634  1.955166 -5.910873
      ESP Fit Center  555 is at   3.871634  1.955166 -5.910873
      ESP Fit Center  556 is at   3.391634  2.786550 -6.168104
      ESP Fit Center  557 is at   3.648642  3.398420 -0.696291
      ESP Fit Center  558 is at   4.128642  4.229804 -0.953522
      ESP Fit Center  559 is at   3.168642  4.229804 -0.953522
      ESP Fit Center  560 is at   4.993850  4.375771 -1.656291
      ESP Fit Center  561 is at   4.162466  4.979807 -1.656291
      ESP Fit Center  562 is at   3.134818  4.979807 -1.656291
      ESP Fit Center  563 is at   5.311411  4.358420 -2.616291
      ESP Fit Center  564 is at   4.608642  5.061189 -2.616291
      ESP Fit Center  565 is at   3.648642  5.318420 -2.616291
      ESP Fit Center  566 is at   2.688642  5.061189 -2.616291
      ESP Fit Center  567 is at   4.993850  4.375771 -3.576291
      ESP Fit Center  568 is at   4.162466  4.979807 -3.576291
      ESP Fit Center  569 is at   0.590339  2.876298 -5.219457
      ESP Fit Center  570 is at   1.631660  2.876298 -5.457132
      ESP Fit Center  571 is at   1.871277  5.368847 -2.628292
      ESP Fit Center  572 is at   0.843629  5.368847 -2.628292
      ESP Fit Center  573 is at   2.317453  5.450229 -3.588292
      ESP Fit Center  574 is at   1.357453  5.707460 -3.588292
      ESP Fit Center  575 is at   0.397453  5.450229 -3.588292
      ESP Fit Center  576 is at   2.702661  4.764811 -4.548292
      ESP Fit Center  577 is at   1.871277  5.368847 -4.548292
      ESP Fit Center  578 is at   0.843629  5.368847 -4.548292
      ESP Fit Center  579 is at   0.012245  4.764811 -4.548292
      ESP Fit Center  580 is at  -0.305316  3.787460 -4.548292
      ESP Fit Center  581 is at   1.837453  4.618844 -5.251061
      ESP Fit Center  582 is at   0.877453  4.618844 -5.251061
      ESP Fit Center  583 is at   0.397453  3.787460 -5.251061
      ESP Fit Center  584 is at   1.357453  3.787460 -5.508292
      ESP Fit Center  585 is at   1.099382  0.128278 -3.519486
      ESP Fit Center  586 is at  -0.563387  2.048278 -4.479486
      ESP Fit Center  587 is at  -0.245826  1.070927 -4.479486
      ESP Fit Center  588 is at   0.585558  0.466891 -4.479486
      ESP Fit Center  589 is at   1.613206  0.466891 -4.479486
      ESP Fit Center  590 is at   0.139382  2.048278 -5.182255
      ESP Fit Center  591 is at   0.619382  1.216894 -5.182255
      ESP Fit Center  592 is at   1.579382  1.216894 -5.182255
      ESP Fit Center  593 is at   1.099382  2.048278 -5.439486
      ESP Fit Center  594 is at   2.285607  2.998793  0.314426
      ESP Fit Center  595 is at   1.799657  3.840483  0.314426
      ESP Fit Center  596 is at   3.065010  2.998793 -0.307127
      ESP Fit Center  597 is at   2.730541  4.028183 -0.307127
      ESP Fit Center  598 is at   1.854889  4.664381 -0.307127
      ESP Fit Center  599 is at   2.554269  4.796057 -1.205297
      ESP Fit Center  600 is at   1.576940  5.166709 -1.205297
      ESP Fit Center  601 is at   1.576940  5.166709 -2.202191
      ESP Fit Center  602 is at  -1.500274  5.027392 -0.881633
      ESP Fit Center  603 is at  -2.149527  4.213255 -0.881633
      ESP Fit Center  604 is at   0.479244  5.479205 -1.949733
      ESP Fit Center  605 is at  -1.857472  4.765124 -1.241220
      ESP Fit Center  606 is at   0.447736  5.450542 -2.201220
      ESP Fit Center  607 is at  -0.512264  5.707773 -2.201220
      ESP Fit Center  608 is at  -1.472264  5.450542 -2.201220
      ESP Fit Center  609 is at  -2.175033  4.747773 -2.201220
      ESP Fit Center  610 is at  -2.432264  3.787773 -2.201220
      ESP Fit Center  611 is at   0.001560  5.369160 -3.161220
      ESP Fit Center  612 is at  -1.026088  5.369160 -3.161220
      ESP Fit Center  613 is at  -1.857472  4.765124 -3.161220
      ESP Fit Center  614 is at  -2.175033  3.787773 -3.161220
      ESP Fit Center  615 is at  -0.992264  4.619157 -3.863989
      ESP Fit Center  616 is at  -1.472264  3.787773 -3.863989
      ESP Fit Center  617 is at  -0.992264  2.956389 -3.863989
      ESP Fit Center  618 is at  -0.512264  3.787773 -4.121220
      ESP Fit Center  619 is at  -0.088590  3.766004  1.424086
      ESP Fit Center  620 is at   0.871410  3.766004  1.166855
      ESP Fit Center  621 is at   0.391410  4.597388  1.166855
      ESP Fit Center  622 is at  -0.568590  4.597388  1.166855
      ESP Fit Center  623 is at  -1.048590  3.766004  1.166855
      ESP Fit Center  624 is at   1.574179  3.766004  0.464086
      ESP Fit Center  625 is at   1.256618  4.743355  0.464086
      ESP Fit Center  626 is at   0.425234  5.347391  0.464086
      ESP Fit Center  627 is at  -0.602414  5.347391  0.464086
      ESP Fit Center  628 is at  -1.433798  4.743355  0.464086
      ESP Fit Center  629 is at  -1.751359  3.766004  0.464086
      ESP Fit Center  630 is at   0.871410  5.428773 -0.495914
      ESP Fit Center  631 is at  -0.088590  5.686004 -0.495914
      ESP Fit Center  632 is at  -1.048590  5.428773 -0.495914
      ESP Fit Center  633 is at  -1.751359  4.726004 -0.495914
      ESP Fit Center  634 is at  -2.043187  3.322155  0.270370
      ESP Fit Center  635 is at  -2.273267  0.074720 -1.760056
      ESP Fit Center  636 is at  -1.855730  1.904070 -3.388331
      ESP Fit Center  637 is at  -2.281263  1.225823 -3.011505
      ESP Fit Center  638 is at  -1.963702  0.248472 -3.011505
      ESP Fit Center  639 is at  -1.132318 -0.355564 -3.011505
      ESP Fit Center  640 is at  -0.104670 -0.355564 -3.011505
      ESP Fit Center  641 is at  -1.098494  2.057207 -3.714274
      ESP Fit Center  642 is at  -1.578494  1.225823 -3.714274
      ESP Fit Center  643 is at  -1.098494  0.394439 -3.714274
      ESP Fit Center  644 is at  -0.138494  0.394439 -3.714274
      ESP Fit Center  645 is at  -0.618494  1.225823 -3.971505
      ESP Fit Center  646 is at  -2.357868  2.962558  0.427645
      ESP Fit Center  647 is at  -2.837868  2.131174  0.427645
      ESP Fit Center  648 is at  -2.391692  3.712561 -0.275124
      ESP Fit Center  649 is at  -3.223076  3.108525 -0.275124
      ESP Fit Center  650 is at  -3.540637  2.131174 -0.275124
      ESP Fit Center  651 is at  -3.223076  1.153823 -0.275124
      ESP Fit Center  652 is at  -2.837868  3.793943 -1.235124
      ESP Fit Center  653 is at  -3.540637  3.091174 -1.235124
      ESP Fit Center  654 is at  -3.797868  2.131174 -1.235124
      ESP Fit Center  655 is at  -3.540637  1.171174 -1.235124
      ESP Fit Center  656 is at  -2.837868  0.468405 -1.235124
      ESP Fit Center  657 is at  -3.223076  3.108525 -2.195124
      ESP Fit Center  658 is at  -3.540637  2.131174 -2.195124
      ESP Fit Center  659 is at  -3.223076  1.153823 -2.195124
      ESP Fit Center  660 is at  -2.357868  2.962558 -2.897893
      ESP Fit Center  661 is at  -2.837868  2.131174 -2.897893
      ESP Fit Center  662 is at  -0.503824  1.306883  2.240000
      ESP Fit Center  663 is at   0.468076  1.306883  2.018170
      ESP Fit Center  664 is at  -0.017874  2.148573  2.018170
      ESP Fit Center  665 is at  -0.989774  2.148573  2.018170
      ESP Fit Center  666 is at  -1.475724  1.306883  2.018170
      ESP Fit Center  667 is at   0.913010  2.336273  1.396617
      ESP Fit Center  668 is at   0.037358  2.972471  1.396617
      ESP Fit Center  669 is at  -1.045006  2.972471  1.396617
      ESP Fit Center  670 is at  -1.920658  2.336273  1.396617
      ESP Fit Center  671 is at  -2.255127  1.306883  1.396617
      ESP Fit Center  672 is at  -2.624204  0.784256  0.498447
      ESP Fit Center  673 is at  -2.339827  0.000000  0.534050
      ESP Fit Center  674 is at  -2.339827  0.000000 -0.534050
      ESP Fit Center  675 is at  -2.309513 -0.556708 -0.847574
      ESP Fit Center  676 is at  -2.052282 -1.516708 -0.847574
      ESP Fit Center  677 is at  -1.349513 -2.219477 -0.847574
      ESP Fit Center  678 is at  -2.052282 -0.556708 -1.807574
      ESP Fit Center  679 is at  -1.734721 -1.534059 -1.807574
      ESP Fit Center  680 is at  -0.903337 -2.138095 -1.807574
      ESP Fit Center  681 is at  -1.349513 -0.556708 -2.510343
      ESP Fit Center  682 is at  -0.869513 -1.388092 -2.510343
      ESP Fit Center  683 is at  -0.389513 -0.556708 -2.767574
      ESP Fit Center  684 is at  -0.365645 -0.480082  2.818412
      ESP Fit Center  685 is at   0.594355 -0.480082  2.561181
      ESP Fit Center  686 is at   0.114355  0.351302  2.561181
      ESP Fit Center  687 is at  -0.845645  0.351302  2.561181
      ESP Fit Center  688 is at  -1.325645 -0.480082  2.561181
      ESP Fit Center  689 is at  -0.845645 -1.311466  2.561181
      ESP Fit Center  690 is at   0.114355 -1.311466  2.561181
      ESP Fit Center  691 is at  -1.710853  0.497269  1.858412
      ESP Fit Center  692 is at  -2.028414 -0.480082  1.858412
      ESP Fit Center  693 is at  -1.710853 -1.457433  1.858412
      ESP Fit Center  694 is at  -0.879469 -2.061469  1.858412
      ESP Fit Center  695 is at   0.148179 -2.061469  1.858412
      ESP Fit Center  696 is at  -2.285645 -0.480082  0.898412
      ESP Fit Center  697 is at  -2.028414 -1.440082  0.898412
      ESP Fit Center  698 is at  -1.325645 -2.142851  0.898412
      ESP Fit Center  699 is at  -0.365645 -2.400082  0.898412
      ESP Fit Center  700 is at   1.877635  0.475968  2.826204
      ESP Fit Center  701 is at   2.837635  0.475968  2.568973
      ESP Fit Center  702 is at   2.357635  1.307352  2.568973
      ESP Fit Center  703 is at   1.397635  1.307352  2.568973
      ESP Fit Center  704 is at   0.917635  0.475968  2.568973
      ESP Fit Center  705 is at   1.397635 -0.355416  2.568973
      ESP Fit Center  706 is at   2.357635 -0.355416  2.568973
      ESP Fit Center  707 is at   3.540404  0.475968  1.866204
      ESP Fit Center  708 is at   3.222843  1.453319  1.866204
      ESP Fit Center  709 is at   2.391459  2.057355  1.866204
      ESP Fit Center  710 is at   1.363811  2.057355  1.866204
      ESP Fit Center  711 is at   3.797635  0.475968  0.906204
      ESP Fit Center  712 is at   3.540404  1.435968  0.906204
      ESP Fit Center  713 is at   2.837635  2.138737  0.906204
      ESP Fit Center  714 is at   1.877635  2.395968  0.906204
      ESP Fit Center  715 is at   2.243099 -1.669156  2.792804
      ESP Fit Center  716 is at   3.314613 -1.669156  2.579667
      ESP Fit Center  717 is at   2.778856 -0.741198  2.579667
      ESP Fit Center  718 is at   1.707342 -0.741198  2.579667
      ESP Fit Center  719 is at   1.171585 -1.669156  2.579667
      ESP Fit Center  720 is at   1.707342 -2.597114  2.579667
      ESP Fit Center  721 is at   2.778856 -2.597114  2.579667
      ESP Fit Center  722 is at   4.222998 -1.669156  1.972703
      ESP Fit Center  723 is at   3.957742 -0.679207  1.972703
      ESP Fit Center  724 is at   0.528456 -2.659105  1.972703
      ESP Fit Center  725 is at   1.253150 -3.383799  1.972703
      ESP Fit Center  726 is at   2.243099 -3.649055  1.972703
      ESP Fit Center  727 is at   3.233048 -3.383799  1.972703
      ESP Fit Center  728 is at   3.957742 -2.659105  1.972703
      ESP Fit Center  729 is at   4.829962 -1.669156  1.064318
      ESP Fit Center  730 is at   4.606316 -0.616984  1.064318
      ESP Fit Center  731 is at   3.974048  0.253258  1.064318
      ESP Fit Center  732 is at   0.150283 -3.189676  1.064318
      ESP Fit Center  733 is at   0.949668 -3.909445  1.064318
      ESP Fit Center  734 is at   1.972698 -4.241848  1.064318
      ESP Fit Center  735 is at   4.854021 -0.657679 -0.007196
      ESP Fit Center  736 is at   4.312324  0.217192 -0.007196
      ESP Fit Center  737 is at  -0.137509 -3.143166 -0.007196
      ESP Fit Center  738 is at   0.555722 -3.903604 -0.007196
      ESP Fit Center  739 is at   0.876923 -0.686965 -3.265849
      ESP Fit Center  740 is at   2.105701 -2.105050 -4.169473
      ESP Fit Center  741 is at  -0.287024 -3.176769 -1.073060
      ESP Fit Center  742 is at  -0.861816 -2.199418 -2.033060
      ESP Fit Center  743 is at  -0.604585 -3.159418 -2.033060
      ESP Fit Center  744 is at   0.098184 -3.862187 -2.033060
      ESP Fit Center  745 is at   0.544360 -0.618031 -2.993060
      ESP Fit Center  746 is at  -0.287024 -1.222067 -2.993060
      ESP Fit Center  747 is at  -0.604585 -2.199418 -2.993060
      ESP Fit Center  748 is at  -0.287024 -3.176769 -2.993060
      ESP Fit Center  749 is at   0.544360 -3.780805 -2.993060
      ESP Fit Center  750 is at   0.578184 -1.368034 -3.695829
      ESP Fit Center  751 is at   0.098184 -2.199418 -3.695829
      ESP Fit Center  752 is at   0.578184 -3.030802 -3.695829
      ESP Fit Center  753 is at   1.058184 -2.199418 -3.953060
      ESP Fit Center  754 is at   1.187554 -0.330413 -3.323160
      ESP Fit Center  755 is at   3.492762 -1.307764 -4.025929
      ESP Fit Center  756 is at   3.012762 -0.476380 -4.025929
      ESP Fit Center  757 is at   2.052762 -0.476380 -4.025929
      ESP Fit Center  758 is at   1.572762 -1.307764 -4.025929
      ESP Fit Center  759 is at   2.532762 -1.307764 -4.283160
      ESP Fit Center  760 is at   0.683741 -4.449206 -2.625178
      ESP Fit Center  761 is at   1.332994 -5.263343 -2.625178
      ESP Fit Center  762 is at   2.271192 -5.715156 -2.625178
      ESP Fit Center  763 is at   0.560565 -3.740528 -3.082296
      ESP Fit Center  764 is at   0.817796 -4.700528 -3.082296
      ESP Fit Center  765 is at   1.520565 -5.403297 -3.082296
      ESP Fit Center  766 is at   2.480565 -5.660528 -3.082296
      ESP Fit Center  767 is at   1.135357 -2.763177 -4.042296
      ESP Fit Center  768 is at   0.817796 -3.740528 -4.042296
      ESP Fit Center  769 is at   1.135357 -4.717879 -4.042296
      ESP Fit Center  770 is at   1.966741 -5.321915 -4.042296
      ESP Fit Center  771 is at   2.994389 -5.321915 -4.042296
      ESP Fit Center  772 is at   3.440565 -3.740528 -4.745065
      ESP Fit Center  773 is at   2.960565 -2.909144 -4.745065
      ESP Fit Center  774 is at   2.000565 -2.909144 -4.745065
      ESP Fit Center  775 is at   1.520565 -3.740528 -4.745065
      ESP Fit Center  776 is at   2.000565 -4.571912 -4.745065
      ESP Fit Center  777 is at   2.960565 -4.571912 -4.745065
      ESP Fit Center  778 is at   2.480565 -3.740528 -5.002296
      ESP Fit Center  779 is at   1.988082 -5.041752  0.253638
      ESP Fit Center  780 is at   0.805313 -4.210368 -0.449131
      ESP Fit Center  781 is at   1.122874 -5.187719 -0.449131
      ESP Fit Center  782 is at   1.954258 -5.791755 -0.449131
      ESP Fit Center  783 is at   0.548082 -4.210368 -1.409131
      ESP Fit Center  784 is at   0.805313 -5.170368 -1.409131
      ESP Fit Center  785 is at   1.508082 -5.873137 -1.409131
      ESP Fit Center  786 is at   1.122874 -5.187719 -2.369131
      ESP Fit Center  787 is at   1.954258 -5.791755 -2.369131
      ESP Fit Center  788 is at   6.344319 -1.470765 -1.081141
      ESP Fit Center  789 is at   7.413370 -3.393179 -2.152655
      ESP Fit Center  790 is at   7.224292 -2.381702 -2.152655
      ESP Fit Center  791 is at   6.682595 -1.506831 -2.152655
      ESP Fit Center  792 is at   7.224292 -4.404656 -2.152655
      ESP Fit Center  793 is at   7.200233 -3.393179 -3.224169
      ESP Fit Center  794 is at   6.976587 -2.341007 -3.224169
      ESP Fit Center  795 is at   6.344319 -1.470765 -3.224169
      ESP Fit Center  796 is at   3.319939 -5.633468 -3.224169
      ESP Fit Center  797 is at   4.342969 -5.965871 -3.224169
      ESP Fit Center  798 is at   5.412755 -5.853432 -3.224169
      ESP Fit Center  799 is at   6.344319 -5.315593 -3.224169
      ESP Fit Center  800 is at   6.976587 -4.445351 -3.224169
      ESP Fit Center  801 is at   6.593269 -3.393179 -4.132554
      ESP Fit Center  802 is at   6.328013 -2.403230 -4.132554
      ESP Fit Center  803 is at   5.603319 -1.678536 -4.132554
      ESP Fit Center  804 is at   3.623421 -1.678536 -4.132554
      ESP Fit Center  805 is at   3.623421 -5.107822 -4.132554
      ESP Fit Center  806 is at   4.613370 -5.373078 -4.132554
      ESP Fit Center  807 is at   5.603319 -5.107822 -4.132554
      ESP Fit Center  808 is at   6.328013 -4.383128 -4.132554
      ESP Fit Center  809 is at   5.684884 -3.393179 -4.739518
      ESP Fit Center  810 is at   5.149127 -2.465221 -4.739518
      ESP Fit Center  811 is at   4.077613 -2.465221 -4.739518
      ESP Fit Center  812 is at   3.541856 -3.393179 -4.739518
      ESP Fit Center  813 is at   4.077613 -4.321137 -4.739518
      ESP Fit Center  814 is at   5.149127 -4.321137 -4.739518
      ESP Fit Center  815 is at   4.613370 -3.393179 -4.952655
      ESP Fit Center  816 is at   5.905387 -2.282498  0.987765
      ESP Fit Center  817 is at   5.646564 -1.708164  0.025439
      ESP Fit Center  818 is at   4.572109 -3.471428  2.180205
      ESP Fit Center  819 is at   5.052109 -2.640044  1.922974
      ESP Fit Center  820 is at   4.092109 -2.640044  1.922974
      ESP Fit Center  821 is at   3.612109 -3.471428  1.922974
      ESP Fit Center  822 is at   5.917317 -2.494077  1.220205
      ESP Fit Center  823 is at   5.085933 -1.890041  1.220205
      ESP Fit Center  824 is at   3.226901 -4.448779  1.220205
      ESP Fit Center  825 is at   6.639948 -2.848910  1.240112
      ESP Fit Center  826 is at   7.505156 -2.702943  0.537343
      ESP Fit Center  827 is at   6.673772 -2.098907  0.537343
      ESP Fit Center  828 is at   8.079948 -3.680294 -0.422657
      ESP Fit Center  829 is at   7.822717 -2.720294 -0.422657
      ESP Fit Center  830 is at   7.119948 -2.017525 -0.422657
      ESP Fit Center  831 is at   6.159948 -1.760294 -0.422657
      ESP Fit Center  832 is at   7.822717 -3.680294 -1.382657
      ESP Fit Center  833 is at   7.505156 -2.702943 -1.382657
      ESP Fit Center  834 is at   7.505156 -4.657645 -1.382657
      ESP Fit Center  835 is at   4.484852 -7.784418 -0.882358
      ESP Fit Center  836 is at   2.625317 -4.833799  0.532171
      ESP Fit Center  837 is at   2.307756 -5.811150  0.532171
      ESP Fit Center  838 is at   2.625317 -6.788501  0.532171
      ESP Fit Center  839 is at   2.050525 -5.811150 -0.427829
      ESP Fit Center  840 is at   2.307756 -6.771150 -0.427829
      ESP Fit Center  841 is at   3.010525 -7.473919 -0.427829
      ESP Fit Center  842 is at   3.970525 -7.731150 -0.427829
      ESP Fit Center  843 is at   2.625317 -6.788501 -1.387829
      ESP Fit Center  844 is at   3.456701 -7.392537 -1.387829
      ESP Fit Center  845 is at   3.490525 -6.642534 -2.090598
      ESP Fit Center  846 is at   5.546826 -7.933876 -1.133116
      ESP Fit Center  847 is at   6.892034 -5.036525 -2.093116
      ESP Fit Center  848 is at   4.201618 -6.991227 -2.093116
      ESP Fit Center  849 is at   5.033002 -7.595263 -2.093116
      ESP Fit Center  850 is at   6.060650 -7.595263 -2.093116
      ESP Fit Center  851 is at   6.506826 -6.013876 -2.795885
      ESP Fit Center  852 is at   5.066826 -6.845260 -2.795885
      ESP Fit Center  853 is at   6.026826 -6.845260 -2.795885
      ESP Fit Center  854 is at   5.546826 -6.013876 -3.053116
      ESP Fit Center  855 is at   5.541804 -6.113262  4.080467
      ESP Fit Center  856 is at   6.613318 -6.113262  3.867330
      ESP Fit Center  857 is at   6.077561 -5.185304  3.867330
      ESP Fit Center  858 is at   5.006047 -5.185304  3.867330
      ESP Fit Center  859 is at   4.470290 -6.113262  3.867330
      ESP Fit Center  860 is at   5.006047 -7.041220  3.867330
      ESP Fit Center  861 is at   6.077561 -7.041220  3.867330
      ESP Fit Center  862 is at   6.531753 -4.398619  3.260366
      ESP Fit Center  863 is at   5.541804 -4.133363  3.260366
      ESP Fit Center  864 is at   4.551855 -4.398619  3.260366
      ESP Fit Center  865 is at   3.827161 -5.123313  3.260366
      ESP Fit Center  866 is at   3.561905 -6.113262  3.260366
      ESP Fit Center  867 is at   3.827161 -7.103211  3.260366
      ESP Fit Center  868 is at   4.551855 -7.827905  3.260366
      ESP Fit Center  869 is at   5.541804 -8.093161  3.260366
      ESP Fit Center  870 is at   6.531753 -7.827905  3.260366
      ESP Fit Center  871 is at   6.341189 -3.653009  2.351981
      ESP Fit Center  872 is at   5.271403 -3.540570  2.351981
      ESP Fit Center  873 is at   4.248373 -3.872973  2.351981
      ESP Fit Center  874 is at   3.448988 -4.592742  2.351981
      ESP Fit Center  875 is at   3.011470 -5.575423  2.351981
      ESP Fit Center  876 is at   3.011470 -6.651101  2.351981
      ESP Fit Center  877 is at   3.448988 -7.633782  2.351981
      ESP Fit Center  878 is at   4.248373 -8.353551  2.351981
      ESP Fit Center  879 is at   5.271403 -8.685954  2.351981
      ESP Fit Center  880 is at   6.341189 -8.573515  2.351981
      ESP Fit Center  881 is at   3.161196 -4.639252  1.280467
      ESP Fit Center  882 is at   2.789479 -5.598763  1.280467
      ESP Fit Center  883 is at   2.789479 -6.627761  1.280467
      ESP Fit Center  884 is at   3.161196 -7.587272  1.280467
      ESP Fit Center  885 is at   3.854427 -8.347710  1.280467
      ESP Fit Center  886 is at   4.775548 -8.806374  1.280467
      ESP Fit Center  887 is at   5.800155 -8.901318  1.280467
      ESP Fit Center  888 is at   3.448988 -7.633782  0.208953
      ESP Fit Center  889 is at   4.248373 -8.353551  0.208953
      ESP Fit Center  890 is at   5.271403 -8.685954  0.208953
      ESP Fit Center  891 is at   5.541804 -8.093161 -0.699432
      ESP Fit Center  892 is at   8.136535 -4.320060  2.669564
      ESP Fit Center  893 is at   7.090013 -4.169592  2.669564
      ESP Fit Center  894 is at   9.465163 -5.011676  1.707238
      ESP Fit Center  895 is at   8.136430 -4.197077  2.541275
      ESP Fit Center  896 is at   9.001638 -4.051110  1.838506
      ESP Fit Center  897 is at   8.170254 -3.447074  1.838506
      ESP Fit Center  898 is at   7.142606 -3.447074  1.838506
      ESP Fit Center  899 is at   9.576430 -5.028461  0.878506
      ESP Fit Center  900 is at   9.319199 -4.068461  0.878506
      ESP Fit Center  901 is at   8.616430 -3.365692  0.878506
      ESP Fit Center  902 is at   7.656430 -3.108461  0.878506
      ESP Fit Center  903 is at   9.319199 -5.028461 -0.081494
      ESP Fit Center  904 is at   9.001638 -4.051110 -0.081494
      ESP Fit Center  905 is at   8.170254 -3.447074 -0.081494
      ESP Fit Center  906 is at   8.136430 -4.197077 -0.784263
      ESP Fit Center  907 is at   7.656430 -5.028461 -1.041494
      ESP Fit Center  908 is at   7.691159 -6.161780  4.115101
      ESP Fit Center  909 is at   8.651159 -6.161780  3.857870
      ESP Fit Center  910 is at   8.171159 -5.330396  3.857870
      ESP Fit Center  911 is at   7.211159 -5.330396  3.857870
      ESP Fit Center  912 is at   6.731159 -6.161780  3.857870
      ESP Fit Center  913 is at   7.211159 -6.993164  3.857870
      ESP Fit Center  914 is at   8.171159 -6.993164  3.857870
      ESP Fit Center  915 is at   9.353928 -6.161780  3.155101
      ESP Fit Center  916 is at   9.036367 -5.184429  3.155101
      ESP Fit Center  917 is at   8.204983 -4.580393  3.155101
      ESP Fit Center  918 is at   7.177335 -4.580393  3.155101
      ESP Fit Center  919 is at   7.177335 -7.743167  3.155101
      ESP Fit Center  920 is at   8.204983 -7.743167  3.155101
      ESP Fit Center  921 is at   9.036367 -7.139131  3.155101
      ESP Fit Center  922 is at   9.611159 -6.161780  2.195101
      ESP Fit Center  923 is at   8.520312 -7.978336  2.433548
      ESP Fit Center  924 is at   9.458510 -8.905876  0.805273
      ESP Fit Center  925 is at   9.458510 -8.905876 -0.262827
      ESP Fit Center  926 is at   8.779135 -5.369697 -1.225153
      ESP Fit Center  927 is at   7.732613 -8.933823 -1.225153
      ESP Fit Center  928 is at   8.779135 -8.783355 -1.225153
      ESP Fit Center  929 is at   9.578176 -8.090982 -1.225153
      ESP Fit Center  930 is at   9.357089 -6.961656 -1.722866
      ESP Fit Center  931 is at   9.039528 -5.984305 -1.722866
      ESP Fit Center  932 is at   8.208144 -5.380269 -1.722866
      ESP Fit Center  933 is at   6.349112 -7.939007 -1.722866
      ESP Fit Center  934 is at   7.180496 -8.543043 -1.722866
      ESP Fit Center  935 is at   8.208144 -8.543043 -1.722866
      ESP Fit Center  936 is at   9.039528 -7.939007 -1.722866
      ESP Fit Center  937 is at   8.654320 -6.961656 -2.425635
      ESP Fit Center  938 is at   8.174320 -6.130272 -2.425635
      ESP Fit Center  939 is at   7.214320 -6.130272 -2.425635
      ESP Fit Center  940 is at   6.734320 -6.961656 -2.425635
      ESP Fit Center  941 is at   7.214320 -7.793040 -2.425635
      ESP Fit Center  942 is at   8.174320 -7.793040 -2.425635
      ESP Fit Center  943 is at   7.694320 -6.961656 -2.682866
      ESP Fit Center  944 is at  10.041592 -6.983393  1.968863
      ESP Fit Center  945 is at   9.561592 -7.814777  1.968863
      ESP Fit Center  946 is at  10.744361 -6.983393  1.266094
      ESP Fit Center  947 is at  10.426800 -6.006042  1.266094
      ESP Fit Center  948 is at  10.426800 -7.960744  1.266094
      ESP Fit Center  949 is at  11.001592 -6.983393  0.306094
      ESP Fit Center  950 is at  10.744361 -6.023393  0.306094
      ESP Fit Center  951 is at  10.041592 -5.320624  0.306094
      ESP Fit Center  952 is at  10.041592 -8.646162  0.306094
      ESP Fit Center  953 is at  10.744361 -7.943393  0.306094
      ESP Fit Center  954 is at  10.744361 -6.983393 -0.653906
      ESP Fit Center  955 is at  10.426800 -6.006042 -0.653906
      ESP Fit Center  956 is at   9.595416 -5.402006 -0.653906
      ESP Fit Center  957 is at  10.426800 -7.960744 -0.653906
      ESP Fit Center  958 is at  10.041592 -6.983393 -1.356675
      ESP Fit Center  959 is at   9.561592 -6.152009 -1.356675
      ESP Fit Center  960 is at   7.732335 -8.076868  2.511050
      ESP Fit Center  961 is at   7.252335 -8.908252  2.253819
      ESP Fit Center  962 is at   8.212335 -8.908252  2.253819
      ESP Fit Center  963 is at   6.387127 -9.054219  1.551050
      ESP Fit Center  964 is at   7.218511 -9.658255  1.551050
      ESP Fit Center  965 is at   8.246159 -9.658255  1.551050
      ESP Fit Center  966 is at   9.077543 -9.054219  1.551050
      ESP Fit Center  967 is at   6.069566 -9.036868  0.591050
      ESP Fit Center  968 is at   6.772335 -9.739637  0.591050
      ESP Fit Center  969 is at   7.732335 -9.996868  0.591050
      ESP Fit Center  970 is at   8.692335 -9.739637  0.591050
      ESP Fit Center  971 is at   9.395104 -9.036868  0.591050
      ESP Fit Center  972 is at   6.387127 -9.054219 -0.368950
      ESP Fit Center  973 is at   7.218511 -9.658255 -0.368950
      ESP Fit Center  974 is at   8.246159 -9.658255 -0.368950
      ESP Fit Center  975 is at   7.183603  2.917327 -2.746583
      ESP Fit Center  976 is at   7.537511  2.876256 -3.779828
      ESP Fit Center  977 is at   6.661568 -1.527407 -3.779828
      ESP Fit Center  978 is at   7.875767  2.049380 -4.813073
      ESP Fit Center  979 is at   7.183603 -0.983191 -4.813073
      ESP Fit Center  980 is at   7.537511  0.967068 -5.689016
      ESP Fit Center  981 is at   7.234434 -0.065117 -5.689016
      ESP Fit Center  982 is at   6.661568  0.967068 -6.274303
      ESP Fit Center  983 is at   5.628323  0.967068 -6.479828
      ESP Fit Center  984 is at   6.452563  3.591436 -3.269205
      ESP Fit Center  985 is at   7.588066  2.893667 -4.349205
      ESP Fit Center  986 is at   6.902501  3.667510 -4.349205
      ESP Fit Center  987 is at   5.935840  4.034116 -4.349205
      ESP Fit Center  988 is at   7.249142  2.901196 -5.429205
      ESP Fit Center  989 is at   6.452563  3.591436 -5.429205
      ESP Fit Center  990 is at   5.409265  3.741440 -5.429205
      ESP Fit Center  991 is at   6.755481  1.889865 -6.219820
      ESP Fit Center  992 is at   6.215481  2.825172 -6.219820
      ESP Fit Center  993 is at   5.135481  2.825172 -6.219820
      ESP Fit Center  994 is at   4.595481  1.889865 -6.219820
      ESP Fit Center  995 is at   5.675481  1.889865 -6.509205
      ESP Fit Center  996 is at   7.724832  0.684493 -1.653198
      ESP Fit Center  997 is at   7.184832 -0.250814 -1.653198
      ESP Fit Center  998 is at   8.515447  0.684493 -2.443813
      ESP Fit Center  999 is at   8.218493  1.695824 -2.443813
      ESP Fit Center 1000 is at   7.421914 -1.017078 -2.443813
      ESP Fit Center 1001 is at   8.218493 -0.326838 -2.443813
      ESP Fit Center 1002 is at   8.804832  0.684493 -3.523813
      ESP Fit Center 1003 is at   8.557417  1.688295 -3.523813
      ESP Fit Center 1004 is at   7.871852  2.462138 -3.523813
      ESP Fit Center 1005 is at   6.905191 -1.459758 -3.523813
      ESP Fit Center 1006 is at   7.871852 -1.093152 -3.523813
      ESP Fit Center 1007 is at   8.557417 -0.319309 -3.523813
      ESP Fit Center 1008 is at   8.515447  0.684493 -4.603813
      ESP Fit Center 1009 is at   8.218493  1.695824 -4.603813
      ESP Fit Center 1010 is at   7.421914 -1.017078 -4.603813
      ESP Fit Center 1011 is at   8.218493 -0.326838 -4.603813
      ESP Fit Center 1012 is at   3.594385 -1.238919 -4.415342
      ESP Fit Center 1013 is at   6.438188 -1.584219 -4.415342
      ESP Fit Center 1014 is at   3.416326  0.720439 -5.495342
      ESP Fit Center 1015 is at   3.416326 -0.333587 -5.495342
      ESP Fit Center 1016 is at   3.986176 -1.220290 -5.495342
      ESP Fit Center 1017 is at   4.944952 -1.658149 -5.495342
      ESP Fit Center 1018 is at   5.988250 -1.508145 -5.495342
      ESP Fit Center 1019 is at   6.784829 -0.817905 -5.495342
      ESP Fit Center 1020 is at   6.291168  0.193426 -6.285957
      ESP Fit Center 1021 is at   4.131168  0.193426 -6.285957
      ESP Fit Center 1022 is at   4.671168 -0.741881 -6.285957
      ESP Fit Center 1023 is at   5.751168 -0.741881 -6.285957
      ESP Fit Center 1024 is at   5.211168  0.193426 -6.575342
      ESP Fit Center 1025 is at   4.797096  1.115593  0.187060
      ESP Fit Center 1026 is at   7.291571  1.115593 -1.479695
      ESP Fit Center 1027 is at   7.044540  0.033281 -1.479695
      ESP Fit Center 1028 is at   4.823847  0.194785  0.212529
      ESP Fit Center 1029 is at   5.903847  0.194785 -0.076856
      ESP Fit Center 1030 is at   5.363847 -0.740522 -0.076856
      ESP Fit Center 1031 is at   6.397508 -0.816546 -0.867471
      ESP Fit Center 1032 is at   6.736432 -0.809017 -1.947471
      ESP Fit Center 1033 is at   5.201156  1.904783  0.277962
      ESP Fit Center 1034 is at   6.281156  1.904783 -0.011423
      ESP Fit Center 1035 is at   5.741156  2.840090 -0.011423
      ESP Fit Center 1036 is at   4.661156  2.840090 -0.011423
      ESP Fit Center 1037 is at   4.121156  1.904783 -0.011423
      ESP Fit Center 1038 is at   7.071771  1.904783 -0.802038
      ESP Fit Center 1039 is at   6.774817  2.916114 -0.802038
      ESP Fit Center 1040 is at   5.978238  3.606354 -0.802038
      ESP Fit Center 1041 is at   4.934940  3.756358 -0.802038
      ESP Fit Center 1042 is at   7.361156  1.904783 -1.882038
      ESP Fit Center 1043 is at   7.113741  2.908585 -1.882038
      ESP Fit Center 1044 is at   6.428176  3.682428 -1.882038
      ESP Fit Center 1045 is at   5.978238  3.606354 -2.962038
      ESP Fit Center 1046 is at   2.148100 -0.123349 -4.339172
      ESP Fit Center 1047 is at   3.157926 -0.584521 -4.339172
      ESP Fit Center 1048 is at   2.891623  0.418739 -5.038420
[...]
 1170 Fit      -0.019861
 1171 Fit      -0.014051
 1172 Fit      -0.012148
 1173 Fit      -0.012130
 1174 Fit      -0.006492
 1175 Fit      -0.001130
 1176 Fit       0.000135
 1177 Fit      -0.003161
 1178 Fit       0.003534
 1179 Fit       0.004246
 1180 Fit       0.003822
 1181 Fit       0.009490
 1182 Fit       0.010364
 1183 Fit       0.015526
 1184 Fit      -0.006552
 1185 Fit      -0.005875
 1186 Fit      -0.009405
 1187 Fit      -0.012293
 1188 Fit      -0.006729
 1189 Fit      -0.005403
 1190 Fit      -0.008330
 1191 Fit      -0.011590
 1192 Fit      -0.004903
 1193 Fit      -0.004160
 1194 Fit      -0.009194
 1195 Fit      -0.004076
 1196 Fit      -0.002453
 1197 Fit      -0.006203
 1198 Fit      -0.021847
 1199 Fit      -0.005318
 1200 Fit      -0.005996
 1201 Fit      -0.006006
 1202 Fit      -0.008865
 1203 Fit      -0.007026
 1204 Fit      -0.005834
 1205 Fit      -0.009848
 1206 Fit      -0.007767
 1207 Fit      -0.009862
 1208 Fit      -0.014928
 1209 Fit      -0.012579
 1210 Fit      -0.016489
 1211 Fit      -0.023823
 1212 Fit      -0.014740
 1213 Fit      -0.016829
 1214 Fit      -0.010544
 1215 Fit      -0.008128
 1216 Fit      -0.013410
 1217 Fit      -0.019262
 1218 Fit      -0.020030
 1219 Fit      -0.018857
 1220 Fit      -0.015276
 1221 Fit      -0.018594
 1222 Fit      -0.021681
 1223 Fit      -0.021798
 1224 Fit      -0.022004
 1225 Fit      -0.020424
 1226 Fit      -0.018514
 1227 Fit      -0.018932
 1228 Fit      -0.014458
 1229 Fit      -0.015671
 1230 Fit      -0.019779
 1231 Fit      -0.018574
 1232 Fit      -0.015526
 1233 Fit      -0.019940
 1234 Fit      -0.017492
 1235 Fit      -0.010386
 1236 Fit      -0.013865
 1237 Fit      -0.011262
 1238 Fit      -0.000797
 1239 Fit      -0.003373
 1240 Fit       0.008524
 1241 Fit       0.011253
 1242 Fit       0.009611
 1243 Fit       0.004156
 1244 Fit       0.001571
 1245 Fit       0.010785
 1246 Fit       0.009095
 1247 Fit       0.016053
 1248 Fit       0.014554
 1249 Fit       0.012551
 1250 Fit       0.012256
 1251 Fit       0.010882
 1252 Fit       0.012578
 1253 Fit       0.014124
 1254 Fit      -0.002839
 1255 Fit       0.003023
 1256 Fit       0.009523
 1257 Fit       0.012009
 1258 Fit       0.009359
 1259 Fit       0.007370
 1260 Fit       0.013567
 1261 Fit       0.011624
 1262 Fit       0.009244
 1263 Fit       0.005774
 1264 Fit      -0.001683
 1265 Fit       0.006119
 1266 Fit       0.010238
 1267 Fit       0.011069
 1268 Fit       0.008550
 1269 Fit       0.003217
 1270 Fit       0.007775
 1271 Fit       0.002204
 1272 Fit       0.000835
 1273 Fit       0.005989
 1274 Fit       0.006919
 1275 Fit       0.007631
 1276 Fit       0.009290
 1277 Fit       0.008484
 1278 Fit       0.007056
 1279 Fit      -0.005768
 1280 Fit       0.001373
 1281 Fit      -0.005386
 1282 Fit      -0.002038
 1283 Fit      -0.005306
 1284 Fit      -0.008389
 1285 Fit       0.001855
 1286 Fit       0.000035
 1287 Fit      -0.000721
 1288 Fit      -0.009620
 1289 Fit      -0.010790
 1290 Fit      -0.005617
 1291 Fit      -0.011587
 1292 Fit      -0.012556
 1293 Fit      -0.011384
 1294 Fit      -0.009997
 1295 Fit      -0.013733
 1296 Fit      -0.012885
 1297 Fit      -0.000087
 1298 Fit      -0.004523
 1299 Fit      -0.013066
 1300 Fit      -0.015853
 1301 Fit      -0.015099
 1302 Fit      -0.013141
 1303 Fit      -0.009045
 1304 Fit      -0.002469
 1305 Fit       0.001208
 1306 Fit      -0.006408
 1307 Fit      -0.013403
 1308 Fit      -0.007897
 1309 Fit      -0.013224
 1310 Fit      -0.015210
 1311 Fit      -0.014775
 1312 Fit      -0.002263
 1313 Fit       0.007309
 1314 Fit      -0.000206
 1315 Fit       0.008561
 1316 Fit       0.002652
 1317 Fit       0.008813
 1318 Fit       0.004616
 1319 Fit       0.011362
 1320 Fit      -0.002310
 1321 Fit       0.000821
 1322 Fit       0.001745
 1323 Fit       0.001369
 1324 Fit       0.008235
 1325 Fit       0.003550
 1326 Fit      -0.002198
 1327 Fit       0.004692
 1328 Fit       0.000454
 1329 Fit       0.001924
 1330 Fit      -0.003131
 1331 Fit       0.000123
 1332 Fit       0.001108
 1333 Fit      -0.000737
 1334 Fit      -0.002176
 1335 Fit       0.001511
 1336 Fit      -0.015099
 1337 Fit      -0.005628
 1338 Fit      -0.014031
 1339 Fit      -0.021184
 1340 Fit      -0.020710
 1341 Fit      -0.016769
 1342 Fit      -0.009365
 1343 Fit      -0.012735
 1344 Fit      -0.021288
 1345 Fit      -0.025058
 1346 Fit      -0.024162
 1347 Fit      -0.021767
 1348 Fit      -0.020513
 1349 Fit      -0.019030
 1350 Fit      -0.014341
 1351 Fit      -0.006061
 1352 Fit      -0.012457
 1353 Fit      -0.020331
 1354 Fit      -0.024333
 1355 Fit      -0.024284
 1356 Fit      -0.020917
 1357 Fit      -0.018155
 1358 Fit      -0.018457
 1359 Fit      -0.020365
 1360 Fit      -0.020635
 1361 Fit      -0.016669
 1362 Fit      -0.008297
 1363 Fit      -0.017963
 1364 Fit      -0.013002
 1365 Fit      -0.010265
 1366 Fit      -0.012460
 1367 Fit      -0.017212
 1368 Fit      -0.020920
 1369 Fit      -0.020455
 1370 Fit      -0.013933
 1371 Fit      -0.003659
 1372 Fit      -0.011815
 1373 Fit      -0.017791
 1374 Fit      -0.018783
 1375 Fit      -0.006774
 1376 Fit      -0.012801
 1377 Fit      -0.012401
 1378 Fit       0.007978
 1379 Fit       0.006263
 1380 Fit       0.008191
 1381 Fit       0.005569
 1382 Fit       0.004064
 1383 Fit      -0.000077
 1384 Fit       0.007939
 1385 Fit       0.008011
 1386 Fit       0.007864
 1387 Fit       0.009587
 1388 Fit       0.011666
 1389 Fit       0.001838
 1390 Fit       0.005148
 1391 Fit       0.002505
 1392 Fit      -0.003335
 1393 Fit       0.000056
 1394 Fit       0.004242
 1395 Fit       0.006578
 1396 Fit       0.005202
 1397 Fit       0.002264
 1398 Fit      -0.003901
 1399 Fit       0.000726
 1400 Fit       0.004555
 1401 Fit       0.006321
 1402 Fit       0.003590
 1403 Fit       0.001509
 1404 Fit       0.001482
 1405 Fit       0.007153
 1406 Fit       0.000819
 1407 Fit       0.003919
 1408 Fit       0.000100
 1409 Fit       0.000682
 1410 Fit       0.001586
 1411 Fit       0.004138
 1412 Fit       0.006638
 1413 Fit       0.009588
 1414 Fit       0.000990
 1415 Fit       0.000521
 1416 Fit       0.003548
 1417 Fit       0.004549
 1418 Fit       0.005104
 1419 Fit       0.003565
 1420 Fit       0.003001
 1421 Fit       0.004304
 1422 Fit       0.006448
 1423 Fit       0.006299
 1424 Fit       0.007343
 1425 Fit       0.004441
 1426 Fit       0.006184
 1427 Fit       0.006957
 1428 Fit       0.007681
 1429 Fit       0.002424
 1430 Fit       0.004631
 1431 Fit       0.005104
 1432 Fit       0.005758
 1433 Fit       0.006490
 1434 Fit       0.003567
 1435 Fit       0.003327
 1436 Fit      -0.002883
 1437 Fit       0.001401
 1438 Fit      -0.007238
 1439 Fit      -0.000696
 1440 Fit       0.001349
 1441 Fit       0.001670
 1442 Fit      -0.008952
 1443 Fit      -0.001917
 1444 Fit       0.000775
 1445 Fit       0.001263
 1446 Fit      -0.004058
 1447 Fit      -0.000590
 1448 Fit       0.000508
 1449 Fit       0.005528
 1450 Fit       0.004279
 1451 Fit       0.006306
 1452 Fit      -0.008244
 1453 Fit       0.002404
 1454 Fit      -0.002646
 1455 Fit       0.000826
 1456 Fit      -0.000641
 1457 Fit       0.001161
 1458 Fit       0.002019
 1459 Fit       0.005953
 1460 Fit       0.008487
 1461 Fit       0.003922
 1462 Fit       0.006079
 1463 Fit       0.008497
 1464 Fit       0.004641
 1465 Fit       0.007086
 1466 Fit       0.009677
 1467 Fit       0.003048
 1468 Fit       0.005786
 1469 Fit       0.007649
 1470 Fit       0.005710
 1471 Fit       0.004133
 1472 Fit       0.003484
 1473 Fit       0.003871
 1474 Fit       0.004441
 1475 Fit      -0.001860
 1476 Fit       0.002389
 1477 Fit       0.003779
 1478 Fit       0.004008
 1479 Fit       0.004170
 1480 Fit      -0.000415
 1481 Fit       0.002644
 1482 Fit       0.003004
 1483 Fit       0.003244
 1484 Fit      -0.007225
 1485 Fit      -0.001253
 1486 Fit       0.001782
 1487 Fit       0.001719
 1488 Fit       0.000166
 1489 Fit      -0.001090
 1490 Fit      -0.006530
 1491 Fit       0.002312
 1492 Fit       0.001504
 1493 Fit       0.001053
 1494 Fit      -0.001425
 1495 Fit      -0.002643
 1496 Fit      -0.001873
 1497 Fit       0.002579
 1498 Fit       0.001497
 1499 Fit       0.000234
 1500 Fit       0.001750
 1501 Fit      -0.011129
 1502 Fit      -0.005224
 1503 Fit       0.003187
 1504 Fit       0.000759
 1505 Fit      -0.007999
 1506 Fit      -0.006573
 1507 Fit      -0.003102
 1508 Fit      -0.006390
 1509 Fit      -0.001696
 1510 Fit      -0.001893
 1511 Fit      -0.007274
 1512 Fit       0.001861
 1513 Fit       0.002317
 1514 Fit       0.001554
 1515 Fit      -0.001832
 1516 Fit       0.004523
 1517 Fit       0.004557
 1518 Fit       0.004739
 1519 Fit       0.004768
 1520 Fit       0.006656
 1521 Fit      -0.003228
 1522 Fit      -0.001321
 1523 Fit       0.010472
 1524 Fit       0.011804
 1525 Fit       0.001030
 1526 Fit       0.011011
 1527 Fit       0.011032
 1528 Fit       0.011409
 1529 Fit       0.013006
 1530 Fit       0.008025
 1531 Fit       0.002686
 1532 Fit       0.009318
 1533 Fit       0.010944
 1534 Fit       0.012249
 1535 Fit       0.011869
 1536 Fit       0.008531
 1537 Fit       0.007041
 1538 Fit       0.010044
 1539 Fit      -0.005923
 1540 Fit       0.002987
 1541 Fit       0.000468
 1542 Fit      -0.004902
 1543 Fit       0.006857
 1544 Fit       0.005609
 1545 Fit       0.004236
 1546 Fit       0.001780
 1547 Fit       0.008819
 1548 Fit       0.008146
 1549 Fit       0.007986
 1550 Fit       0.008422
 1551 Fit       0.016301
 1552 Fit       0.013668
 1553 Fit       0.013845
 1554 Fit       0.006741
 1555 Fit       0.008049
 1556 Fit       0.011758
 1557 Fit       0.010334
 1558 Fit       0.010716
 1559 Fit       0.012404
 1560 Fit       0.012656
 1561 Fit       0.012151
 1562 Fit       0.012810
 1563 Fit       0.013982
 1564 Fit       0.013837
 1565 Fit       0.013162
 1566 Fit       0.013679
 1567 Fit       0.014192
 1568 Fit       0.010210
 1569 Fit       0.015097
 1570 Fit       0.014494
 1571 Fit       0.012784
 1572 Fit       0.008819
 1573 Fit       0.002062
 1574 Fit       0.013145
 1575 Fit       0.011234
 1576 Fit       0.008743
 1577 Fit       0.012543
 1578 Fit      -0.022742
 1579 Fit      -0.021679
 1580 Fit      -0.019406
 1581 Fit      -0.016148
 1582 Fit      -0.012652
 1583 Fit      -0.010634
 1584 Fit      -0.004315
 1585 Fit      -0.002616
 1586 Fit      -0.004091
 1587 Fit       0.001791
 1588 Fit       0.004931
 1589 Fit       0.006865
 1590 Fit       0.008255
 1591 Fit       0.000267
 1592 Fit       0.004676
 1593 Fit       0.006860
 1594 Fit       0.008517
 1595 Fit       0.010337
 1596 Fit       0.008248
 1597 Fit       0.009152
 1598 Fit       0.010211
 1599 Fit       0.011577
 1600 Fit       0.013772
 1601 Fit       0.011834
 1602 Fit       0.012126
 1603 Fit       0.013245
 1604 Fit       0.015271
 1605 Fit       0.014185
 1606 Fit       0.014947
 1607 Fit      -0.012772
 1608 Fit      -0.013833
 1609 Fit      -0.006493
 1610 Fit      -0.004384
 1611 Fit      -0.010765
 1612 Fit      -0.018472
 1613 Fit      -0.009769
 1614 Fit      -0.003425
 1615 Fit      -0.000142
 1616 Fit       0.000574
 1617 Fit      -0.001814
 1618 Fit      -0.006134
 1619 Fit      -0.000347
 1620 Fit       0.002621
 1621 Fit       0.004117
 1622 Fit       0.004635
 1623 Fit      -0.009552
 1624 Fit       0.009607
 1625 Fit       0.014205
 1626 Fit       0.012631
 1627 Fit       0.015915
 1628 Fit       0.011661
 1629 Fit       0.012386
 1630 Fit       0.012831
 1631 Fit       0.014473
 1632 Fit       0.013435
 1633 Fit       0.014993
 1634 Fit       0.014460
 1635 Fit       0.000695
 1636 Fit      -0.001088
 1637 Fit      -0.003993
 1638 Fit       0.006517
 1639 Fit       0.004929
 1640 Fit       0.003420
 1641 Fit       0.001726
 1642 Fit       0.000253
 1643 Fit       0.010223
 1644 Fit       0.008387
 1645 Fit       0.007055
 1646 Fit       0.006019
 1647 Fit       0.005900
 1648 Fit       0.012838
 1649 Fit       0.010543
 1650 Fit       0.009390
 1651 Fit       0.012951
 1652 Fit      -0.017837
 1653 Fit      -0.020534
 1654 Fit      -0.021345
 1655 Fit      -0.019246
 1656 Fit      -0.020449
 1657 Fit      -0.018465
 1658 Fit      -0.018327
 1659 Fit      -0.018986
 1660 Fit      -0.018182
 1661 Fit      -0.011468
 1662 Fit      -0.013372
 1663 Fit      -0.013095
 1664 Fit      -0.004975
 1665 Fit      -0.001930
 1666 Fit       0.000120
 1667 Fit       0.000900
 1668 Fit       0.005311
 1669 Fit       0.005560
 1670 Fit       0.006088
 1671 Fit       0.010015
 1672 Fit       0.010745
 1673 Fit      -0.007174
 1674 Fit      -0.006948
 1675 Fit      -0.009228
 1676 Fit      -0.011011
 1677 Fit      -0.007118
 1678 Fit      -0.006246
 1679 Fit      -0.008451
 1680 Fit      -0.010335
 1681 Fit      -0.005504
 1682 Fit      -0.005058
 1683 Fit      -0.008977
 1684 Fit      -0.007253
 1685 Fit      -0.003702
 1686 Fit      -0.004124
 1687 Fit      -0.009316
 1688 Fit      -0.015473
 1689 Fit      -0.006317
 1690 Fit      -0.006723
 1691 Fit      -0.006617
 1692 Fit      -0.008677
 1693 Fit      -0.007569
 1694 Fit      -0.009108
 1695 Fit      -0.007453
 1696 Fit      -0.008895
 1697 Fit      -0.012630
 1698 Fit      -0.010208
 1699 Fit      -0.011906
 1700 Fit      -0.016304
 1701 Fit      -0.013365
 1702 Fit      -0.014902
 1703 Fit      -0.010401
 1704 Fit      -0.008801
 1705 Fit      -0.012104
 1706 Fit      -0.016362
 1707 Fit      -0.017545
 1708 Fit      -0.016211
 1709 Fit      -0.013032
 1710 Fit      -0.015154
 1711 Fit      -0.017989
 1712 Fit      -0.019448
 1713 Fit      -0.020935
 1714 Fit      -0.019151
 1715 Fit      -0.015709
 1716 Fit      -0.014945
 1717 Fit      -0.011758
 1718 Fit      -0.012773
 1719 Fit      -0.016243
 1720 Fit      -0.016578
 1721 Fit      -0.016571
 1722 Fit      -0.015316
 1723 Fit      -0.014009
 1724 Fit      -0.011212
 1725 Fit      -0.012610
 1726 Fit      -0.010584
 1727 Fit      -0.006445
 1728 Fit      -0.004985
 1729 Fit      -0.006005
 1730 Fit      -0.003101
 1731 Fit       0.008214
 1732 Fit       0.005895
 1733 Fit       0.010049
 1734 Fit       0.006205
 1735 Fit       0.005549
 1736 Fit       0.011845
 1737 Fit       0.009687
 1738 Fit       0.009414
 1739 Fit       0.014099
 1740 Fit       0.012893
 1741 Fit       0.011408
 1742 Fit       0.011445
 1743 Fit       0.011399
 1744 Fit      -0.000990
 1745 Fit       0.002878
 1746 Fit       0.008332
 1747 Fit       0.007267
 1748 Fit       0.005976
 1749 Fit       0.009529
 1750 Fit       0.007551
 1751 Fit       0.005129
 1752 Fit       0.011459
 1753 Fit       0.009992
 1754 Fit       0.007882
 1755 Fit       0.004754
 1756 Fit       0.004788
 1757 Fit       0.008457
 1758 Fit       0.009160
 1759 Fit       0.006946
 1760 Fit       0.002589
 1761 Fit       0.006210
 1762 Fit      -0.001900
 1763 Fit       0.002582
 1764 Fit       0.003985
 1765 Fit       0.005824
 1766 Fit       0.007186
 1767 Fit       0.006878
 1768 Fit       0.007091
 1769 Fit      -0.001945
 1770 Fit       0.002823
 1771 Fit      -0.000315
 1772 Fit      -0.003011
 1773 Fit       0.004820
 1774 Fit      -0.003727
 1775 Fit      -0.005181
 1776 Fit      -0.001179
 1777 Fit      -0.004833
 1778 Fit      -0.002654
 1779 Fit      -0.002989
 1780 Fit      -0.008421
 1781 Fit      -0.008716
 1782 Fit      -0.003878
 1783 Fit      -0.008645
 1784 Fit      -0.009941
 1785 Fit      -0.009504
 1786 Fit      -0.008750
 1787 Fit      -0.010553
 1788 Fit      -0.009514
 1789 Fit       0.000374
 1790 Fit      -0.003001
 1791 Fit      -0.009129
 1792 Fit      -0.011500
 1793 Fit      -0.011401
 1794 Fit      -0.009593
 1795 Fit      -0.006401
 1796 Fit      -0.001739
 1797 Fit       0.000634
 1798 Fit      -0.004530
 1799 Fit      -0.009548
 1800 Fit      -0.005722
 1801 Fit      -0.010366
 1802 Fit      -0.015913
 1803 Fit      -0.014208
 1804 Fit      -0.001777
 1805 Fit       0.007786
 1806 Fit       0.002559
 1807 Fit      -0.004093
 1808 Fit       0.009993
 1809 Fit       0.006369
 1810 Fit       0.001747
 1811 Fit       0.000132
 1812 Fit      -0.000602
 1813 Fit       0.002213
 1814 Fit      -0.001970
 1815 Fit       0.006031
 1816 Fit       0.001926
 1817 Fit      -0.002303
 1818 Fit       0.003581
 1819 Fit      -0.002011
 1820 Fit      -0.000693
 1821 Fit       0.000459
 1822 Fit       0.003136
 1823 Fit      -0.003536
 1824 Fit      -0.000639
 1825 Fit      -0.012814
 1826 Fit      -0.006080
 1827 Fit      -0.011812
 1828 Fit      -0.017133
 1829 Fit      -0.017082
 1830 Fit      -0.014059
 1831 Fit      -0.008657
 1832 Fit      -0.010688
 1833 Fit      -0.017117
 1834 Fit      -0.020339
 1835 Fit      -0.020165
 1836 Fit      -0.018518
 1837 Fit      -0.017201
 1838 Fit      -0.015528
 1839 Fit      -0.011781
 1840 Fit      -0.005799
 1841 Fit      -0.011012
 1842 Fit      -0.017368
 1843 Fit      -0.021122
 1844 Fit      -0.021605
 1845 Fit      -0.019302
 1846 Fit      -0.016993
 1847 Fit      -0.016496
 1848 Fit      -0.016954
 1849 Fit      -0.016314
 1850 Fit      -0.012956
 1851 Fit      -0.006822
 1852 Fit      -0.010086
 1853 Fit      -0.018066
 1854 Fit      -0.013636
 1855 Fit      -0.012402
 1856 Fit      -0.013916
 1857 Fit      -0.016176
 1858 Fit      -0.017054
 1859 Fit      -0.014954
 1860 Fit      -0.009253
 1861 Fit      -0.005399
 1862 Fit      -0.005429
 1863 Fit      -0.008662
 1864 Fit      -0.012694
 1865 Fit      -0.015556
 1866 Fit      -0.015738
 1867 Fit      -0.012101
 1868 Fit      -0.003088
 1869 Fit      -0.009360
 1870 Fit      -0.012800
 1871 Fit      -0.012291
 1872 Fit      -0.007850
 1873 Fit      -0.007568
 1874 Fit       0.005216
 1875 Fit       0.003442
 1876 Fit       0.006452
 1877 Fit       0.004140
 1878 Fit       0.002000
 1879 Fit      -0.002635
 1880 Fit       0.006122
 1881 Fit       0.005457
 1882 Fit       0.004159
 1883 Fit       0.007468
 1884 Fit       0.007640
 1885 Fit       0.008428
 1886 Fit       0.000324
 1887 Fit       0.003384
 1888 Fit       0.001136
 1889 Fit      -0.003765
 1890 Fit      -0.001225
 1891 Fit       0.002516
 1892 Fit       0.005006
 1893 Fit       0.003851
 1894 Fit       0.001150
 1895 Fit      -0.004286
 1896 Fit      -0.000371
 1897 Fit       0.003124
 1898 Fit       0.004756
 1899 Fit       0.006250
 1900 Fit       0.005391
 1901 Fit       0.005851
 1902 Fit       0.006024
 1903 Fit       0.003535
 1904 Fit       0.001773
 1905 Fit       0.001804
 1906 Fit       0.000679
 1907 Fit       0.001571
 1908 Fit       0.005537
 1909 Fit       0.008363
 1910 Fit      -0.003673
 1911 Fit      -0.002267
 1912 Fit      -0.000563
 1913 Fit       0.000251
 1914 Fit       0.001011
 1915 Fit       0.002583
 1916 Fit       0.003497
 1917 Fit       0.000914
 1918 Fit       0.001625
 1919 Fit       0.003605
 1920 Fit       0.004775
 1921 Fit       0.001340
 1922 Fit       0.000873
 1923 Fit       0.001246
 1924 Fit       0.002868
 1925 Fit       0.003118
 1926 Fit       0.002348
 1927 Fit       0.002644
 1928 Fit       0.002442
 1929 Fit       0.002907
 1930 Fit       0.005899
 1931 Fit       0.005346
 1932 Fit       0.006373
 1933 Fit       0.003875
 1934 Fit       0.005325
 1935 Fit       0.006090
 1936 Fit       0.006850
 1937 Fit       0.002479
 1938 Fit       0.004100
 1939 Fit       0.004921
 1940 Fit       0.005590
 1941 Fit       0.006274
 1942 Fit       0.002241
 1943 Fit       0.003786
 1944 Fit       0.003965
 1945 Fit       0.004597
 1946 Fit       0.002811
 1947 Fit       0.002860
 1948 Fit      -0.003129
 1949 Fit       0.000902
 1950 Fit      -0.007598
 1951 Fit      -0.001634
 1952 Fit       0.000671
 1953 Fit       0.001676
 1954 Fit      -0.006923
 1955 Fit      -0.001738
 1956 Fit       0.000395
 1957 Fit       0.001064
 1958 Fit      -0.005235
 1959 Fit      -0.001373
 1960 Fit       0.000285
 1961 Fit       0.000762
 1962 Fit      -0.003324
 1963 Fit      -0.000927
 Job cpu time:       0 days  0 hours  5 minutes 43.7 seconds.
 Normal termination of Gaussian 16 at Sat Jul  8 22:03:44 2023.
