 Copyright (c) 1988-2019, Gaussian, Inc.  All Rights Reserved.
  
 This is part of the Gaussian(R) 16 program.  It is based on
 the Gaussian(R) 09 system (copyright 2009, Gaussian, Inc.),
 the Gaussian(R) 03 system (copyright 2003, Gaussian, Inc.),
 the Gaussian(R) 98 system (copyright 1998, Gaussian, Inc.),
 the Gaussian(R) 94 system (copyright 1995, Gaussian, Inc.),
 the Gaussian 92(TM) system (copyright 1992, Gaussian, Inc.),
 the Gaussian 90(TM) system (copyright 1990, Gaussian, Inc.),
 the Gaussian 88(TM) system (copyright 1988, Gaussian, Inc.),
 the Gaussian 86(TM) system (copyright 1986, Carnegie Mellon
 University), and the Gaussian 82(TM) system (copyright 1983,
 Carnegie Mellon University). Gaussian is a federally registered
 trademark of Gaussian, Inc.
 Cite this work as:
 Gaussian 16, Revision C.01,
 M. J. Frisch, G. W. Trucks, H. B. Schlegel, G. E. Scuseria, 
 M. A. Robb, J. R. Cheeseman, G. Scalmani, V. Barone, 
 G. A. Petersson, H. Nakatsuji, X. Li, M. Caricato, A. V. Marenich, 
 J. Bloino, B. G. Janesko, R. Gomperts, B. Mennucci, H. P. Hratchian, 
 J. V. Ortiz, A. F. Izmaylov, J. L. Sonnenberg, D. Williams-Young, 
 F. Ding, F. Lipparini, F. Egidi, J. Goings, B. Peng, A. Petrone, 
 T. Henderson, D. Ranasinghe, V. G. Zakrzewski, J. Gao, N. Rega, 
 G. Zheng, W. Liang, M. Hada, M. Ehara, K. Toyota, R. Fukuda, 
 J. Hasegawa, M. Ishida, T. Nakajima, Y. Honda, O. Kitao, H. Nakai, 
 T. Vreven, K. Throssell, J. A. Montgomery, Jr., J. E. Peralta, 
 F. Ogliaro, M. J. Bearpark, J. J. Heyd, E. N. Brothers, K. N. Kudin, 
 V. N. Staroverov, T. A. Keith, R. Kobayashi, J. Normand, 
 K. Raghavachari, A. P. Rendell, J. C. Burant, S. S. Iyengar, 
 J. Tomasi, M. Cossi, J. M. Millam, M. Klene, C. Adamo, R. Cammi, 
 J. W. Ochterski, R. L. Martin, K. Morokuma, O. Farkas, 
 J. B. Foresman, and D. J. Fox, Gaussian, Inc., Wallingford CT, 2019.
 
 ******************************************
 Gaussian 16:  EM64L-G16RevC.01  3-Jul-2019
                 8-Jul-2023 
 ******************************************
 ----------------------------------------------------------------------
 #P HF/6-31G(d) SCF(Conver=8,XQC,MaxConventionalCycles=64,MaxCycle=128)
  NoSymm Test Pop=mk IOp(6/33=2) GFInput GFPrint
 ----------------------------------------------------------------------
 1/38=1,172=1/1;
 2/12=2,15=1,17=6,18=5,40=1/2;
 3/5=1,6=6,7=1,11=9,24=110,25=1,30=1/1,2,3;
 4//1;
 5/5=2,6=8,7=128,8=3,13=1,38=5,85=64/2,8;
 6/7=2,8=2,9=2,10=2,15=8,20=1,28=1,33=2/1,2;
 99/5=1,9=1/99;
 -------------------------------------------------
 MEP step - Input generated by PyRED DVE-DMDS-OPLS
 -------------------------------------------------
 Symbolic Z-matrix:
 Charge =  0 Multiplicity = 1
 C                    -1.71998   5.95666   5.61254 
 H                    -2.77926   5.72967   5.65462 
 H                    -1.30122   5.83911   6.60717 
 H                    -1.60575   6.99093   5.30876 
 C                    -1.02004   5.03898   4.62987 
 H                     0.04581   5.25834   4.59772 
 H                    -1.12809   4.00184   4.94134 
 O                    -1.58354   5.23941   3.36322 
 C                    -1.06709   4.45429   2.32943 
 H                    -0.01605   4.22917   2.49117 
 H                    -1.14533   5.02663   1.41408 
 C                    -1.85214   3.16195   2.17421 
 H                    -1.81215   2.57201   3.08812 
 H                    -2.89649   3.395     1.97785 
 O                    -1.29295   2.45158   1.10998 
 C                    -1.93489   1.2481    0.80784 
 H                    -2.97107   1.43841   0.52812 
 H                    -1.93647   0.5889    1.67358 
 C                    -1.23127   0.56317  -0.34644 
 H                    -1.11615   1.26424  -1.16857 
 H                    -1.85245  -0.25657  -0.68779 
 O                     0.        0.        0. 
 C                     1.1156    0.84584   0. 
 H                     1.11196   1.47795   0.88168 
 H                     1.10009   1.49078  -0.87368 
 C                     2.37694   0.        0. 
 H                     2.36596  -0.68431   0.84015 
 H                     3.23409   0.65225   0.12404 
 S                     2.69726  -0.93364  -1.52557 
 C                     1.68545  -2.42823  -1.28086 
 H                     1.99741  -2.89038  -0.35019 
 H                     0.64824  -2.14799  -1.18998 
 C                     1.87222  -3.44374  -2.40927 
 H                     1.45774  -4.38743  -2.07544 
 H                     2.92324  -3.61921  -2.60511 
 S                     1.00367  -3.08316  -3.97011 
 C                     2.25374  -2.20928  -4.96114 
 H                     2.73409  -1.46226  -4.34362 
 H                     1.69059  -1.67551  -5.71603 
 C                     3.31519  -3.09848  -5.61311 
 H                     4.12698  -2.47653  -5.97647 
 H                     3.74358  -3.77432  -4.8841 
 S                     2.74294  -4.14472  -6.98321 
 C                     2.70592  -2.94228  -8.34793 
 H                     2.01675  -2.1407   -8.11065 
 H                     3.69334  -2.51036  -8.46494 
 C                     2.27505  -3.63127  -9.6399 
 H                     1.28276  -4.05768  -9.54349 
 H                     2.25657  -2.91449  -10.45458 
 H                     2.96134  -4.42745  -9.90629 
 
 ITRead=  0  0  0  0  0  0  0  0  0  0  0  0  0  0  0  0  0  0  0  0
 ITRead=  0  0  0  0  0  0  0  0  0  0  0  0  0  0  0  0  0  0  0  0
 ITRead=  0  0  0  0  0  0  0  0  0  0
 MicOpt= -1 -1 -1 -1 -1 -1 -1 -1 -1 -1 -1 -1 -1 -1 -1 -1 -1 -1 -1 -1
 MicOpt= -1 -1 -1 -1 -1 -1 -1 -1 -1 -1 -1 -1 -1 -1 -1 -1 -1 -1 -1 -1
 MicOpt= -1 -1 -1 -1 -1 -1 -1 -1 -1 -1
 NAtoms=     50 NQM=       50 NQMF=       0 NMMI=      0 NMMIF=      0
                NMic=       0 NMicF=      0.
                          Input orientation:                          
 ---------------------------------------------------------------------
 Center     Atomic      Atomic             Coordinates (Angstroms)
 Number     Number       Type             X           Y           Z
 ---------------------------------------------------------------------
      1          6           0       -1.719980    5.956661    5.612539
      2          1           0       -2.779262    5.729674    5.654617
      3          1           0       -1.301221    5.839114    6.607169
      4          1           0       -1.605749    6.990930    5.308764
      5          6           0       -1.020042    5.038978    4.629872
      6          1           0        0.045812    5.258336    4.597716
      7          1           0       -1.128087    4.001841    4.941341
      8          8           0       -1.583535    5.239409    3.363216
      9          6           0       -1.067089    4.454290    2.329428
     10          1           0       -0.016045    4.229175    2.491169
     11          1           0       -1.145330    5.026629    1.414077
     12          6           0       -1.852139    3.161951    2.174205
     13          1           0       -1.812145    2.572006    3.088115
     14          1           0       -2.896487    3.395001    1.977854
     15          8           0       -1.292954    2.451581    1.109976
     16          6           0       -1.934890    1.248096    0.807843
     17          1           0       -2.971073    1.438405    0.528120
     18          1           0       -1.936474    0.588898    1.673576
     19          6           0       -1.231269    0.563170   -0.346440
     20          1           0       -1.116153    1.264239   -1.168570
     21          1           0       -1.852453   -0.256567   -0.687792
     22          8           0        0.000000    0.000000    0.000000
     23          6           0        1.115600    0.845840    0.000000
     24          1           0        1.111960    1.477949    0.881682
     25          1           0        1.100087    1.490783   -0.873676
     26          6           0        2.376944    0.000000    0.000000
     27          1           0        2.365964   -0.684310    0.840152
     28          1           0        3.234089    0.652254    0.124035
     29         16           0        2.697264   -0.933636   -1.525566
     30          6           0        1.685450   -2.428228   -1.280864
     31          1           0        1.997411   -2.890381   -0.350192
     32          1           0        0.648237   -2.147992   -1.189980
     33          6           0        1.872221   -3.443739   -2.409271
     34          1           0        1.457742   -4.387430   -2.075440
     35          1           0        2.923242   -3.619211   -2.605111
     36         16           0        1.003672   -3.083157   -3.970109
     37          6           0        2.253737   -2.209278   -4.961139
     38          1           0        2.734087   -1.462261   -4.343624
     39          1           0        1.690586   -1.675508   -5.716033
     40          6           0        3.315187   -3.098480   -5.613108
     41          1           0        4.126977   -2.476530   -5.976466
     42          1           0        3.743581   -3.774324   -4.884095
     43         16           0        2.742936   -4.144718   -6.983207
     44          6           0        2.705920   -2.942283   -8.347927
     45          1           0        2.016754   -2.140700   -8.110653
     46          1           0        3.693340   -2.510362   -8.464935
     47          6           0        2.275049   -3.631274   -9.639903
     48          1           0        1.282762   -4.057680   -9.543494
     49          1           0        2.256572   -2.914492  -10.454578
     50          1           0        2.961336   -4.427448   -9.906286
 ---------------------------------------------------------------------
 Stoichiometry    C14H30O3S3
 Framework group  C1[X(C14H30O3S3)]
 Standard basis: 6-31G(d) (6D, 7F)
   372 basis functions,   752 primitive gaussians,   372 cartesian basis functions
    93 alpha electrons       93 beta electrons
 Requested convergence on RMS density matrix=1.00D-08 within  64 cycles.
 Requested convergence on MAX density matrix=1.00D-06.
 Requested convergence on             energy=1.00D-06.
 SCF Done:  E(RHF) =  -1964.69114406     A.U. after   13 cycles
            NFock= 13  Conv=0.56D-08     -V/T= 2.0006
 Mulliken charges:
     1  C   -0.488656
     2  H    0.173105
     3  H    0.157404
     4  H    0.176463
     5  C    0.017011
     6  H    0.142822
     7  H    0.136206
     8  O   -0.631332
     9  C    0.002674
    10  H    0.150187
    11  H    0.181933
    12  C    0.011508
    13  H    0.142461
    14  H    0.154062
    15  O   -0.641433
    16  C    0.008561
    17  H    0.141744
    18  H    0.153242
    19  C   -0.001991
    20  H    0.162694
    21  H    0.174985
    22  O   -0.635351
    23  C    0.038800
    24  H    0.166276
    25  H    0.156600
    26  C   -0.502588
    27  H    0.199573
    28  H    0.196744
    29  S    0.097411
    30  C   -0.444509
    31  H    0.183870
    32  H    0.235627
    33  C   -0.502868
    34  H    0.210184
    35  H    0.201729
    36  S    0.134182
    37  C   -0.483686
    38  H    0.226881
    39  H    0.201403
    40  C   -0.475380
    41  H    0.192061
    42  H    0.202508
    43  S    0.133066
    44  C   -0.458956
    45  H    0.184015
    46  H    0.183234
    47  C   -0.495256
    48  H    0.181121
    49  H    0.170284
    50  H    0.179378
 Sum of Mulliken charges =  -0.00000
 Dipole moment (field-independent basis, Debye):
    X=              0.2662    Y=              2.1089    Z=              2.6315  Tot=              3.3828
 Quadrupole moment (field-independent basis, Debye-Ang):
   XX=           -145.3897   YY=           -167.7799   ZZ=           -138.8381
   XY=              6.5431   XZ=             -0.9966   YZ=            -15.0106
 Traceless Quadrupole moment (field-independent basis, Debye-Ang):
   XX=              5.2795   YY=            -17.1107   ZZ=             11.8311
   XY=              6.5431   XZ=             -0.9966   YZ=            -15.0106
 Octapole moment (field-independent basis, Debye-Ang**2):
  XXX=           -398.6749  YYY=            143.0091  ZZZ=            704.9749  XYY=           -114.6119
  XXY=             43.6510  XXZ=            244.9006  XZZ=            -94.2701  YZZ=            160.3659
  YYZ=            361.7748  XYZ=             -9.0277
 Hexadecapole moment (field-independent basis, Debye-Ang**3):
 XXXX=          -3960.9985 YYYY=         -10252.3445 ZZZZ=         -16338.1812 XXXY=           2347.3763
 XXXZ=           3305.9829 YYYX=           2638.8733 YYYZ=          -6293.1176 ZZZX=           2934.4991
 ZZZY=          -5743.0459 XXYY=          -2374.6207 XXZZ=          -3589.9583 YYZZ=          -5201.9031
 XXYZ=          -1969.5178 YYXZ=           1421.2742 ZZXY=            938.4425
 Merz-Kollman atomic radii used.
 Atom Element Radius
    1     6    1.50
    2     1    1.20
    3     1    1.20
    4     1    1.20
    5     6    1.50
    6     1    1.20
    7     1    1.20
    8     8    1.40
    9     6    1.50
   10     1    1.20
   11     1    1.20
   12     6    1.50
   13     1    1.20
   14     1    1.20
   15     8    1.40
   16     6    1.50
   17     1    1.20
   18     1    1.20
   19     6    1.50
   20     1    1.20
   21     1    1.20
   22     8    1.40
   23     6    1.50
   24     1    1.20
   25     1    1.20
   26     6    1.50
   27     1    1.20
   28     1    1.20
   29    16    1.75
   30     6    1.50
   31     1    1.20
   32     1    1.20
   33     6    1.50
   34     1    1.20
   35     1    1.20
   36    16    1.75
   37     6    1.50
   38     1    1.20
   39     1    1.20
   40     6    1.50
   41     1    1.20
   42     1    1.20
   43    16    1.75
   44     6    1.50
   45     1    1.20
   46     1    1.20
   47     6    1.50
   48     1    1.20
   49     1    1.20
   50     1    1.20
 Generate VDW surfaces: Layer= 4 Dens= 1 Start= 1.400 Inc= 0.200
            Electrostatic Properties Using The SCF Density.


       Atomic Center    1 is at  -1.719980  5.956661  5.612539
       Atomic Center    2 is at  -2.779262  5.729674  5.654617
       Atomic Center    3 is at  -1.301221  5.839114  6.607169
       Atomic Center    4 is at  -1.605749  6.990930  5.308764
       Atomic Center    5 is at  -1.020042  5.038978  4.629872
       Atomic Center    6 is at   0.045812  5.258336  4.597716
       Atomic Center    7 is at  -1.128087  4.001841  4.941341
       Atomic Center    8 is at  -1.583535  5.239409  3.363216
       Atomic Center    9 is at  -1.067089  4.454290  2.329428
       Atomic Center   10 is at  -0.016045  4.229175  2.491169
       Atomic Center   11 is at  -1.145330  5.026629  1.414077
       Atomic Center   12 is at  -1.852139  3.161951  2.174205
       Atomic Center   13 is at  -1.812145  2.572006  3.088115
       Atomic Center   14 is at  -2.896487  3.395001  1.977854
       Atomic Center   15 is at  -1.292954  2.451581  1.109976
       Atomic Center   16 is at  -1.934890  1.248096  0.807843
       Atomic Center   17 is at  -2.971073  1.438405  0.528120
       Atomic Center   18 is at  -1.936474  0.588898  1.673576
       Atomic Center   19 is at  -1.231269  0.563170 -0.346440
       Atomic Center   20 is at  -1.116153  1.264239 -1.168570
       Atomic Center   21 is at  -1.852453 -0.256567 -0.687792
       Atomic Center   22 is at   0.000000  0.000000  0.000000
       Atomic Center   23 is at   1.115600  0.845840  0.000000
       Atomic Center   24 is at   1.111960  1.477949  0.881682
       Atomic Center   25 is at   1.100087  1.490783 -0.873676
       Atomic Center   26 is at   2.376944  0.000000  0.000000
       Atomic Center   27 is at   2.365964 -0.684310  0.840152
       Atomic Center   28 is at   3.234089  0.652254  0.124035
       Atomic Center   29 is at   2.697264 -0.933636 -1.525566
       Atomic Center   30 is at   1.685450 -2.428228 -1.280864
       Atomic Center   31 is at   1.997411 -2.890381 -0.350192
       Atomic Center   32 is at   0.648237 -2.147992 -1.189980
       Atomic Center   33 is at   1.872221 -3.443739 -2.409271
       Atomic Center   34 is at   1.457742 -4.387430 -2.075440
       Atomic Center   35 is at   2.923242 -3.619211 -2.605111
       Atomic Center   36 is at   1.003672 -3.083157 -3.970109
       Atomic Center   37 is at   2.253737 -2.209278 -4.961139
       Atomic Center   38 is at   2.734087 -1.462261 -4.343624
       Atomic Center   39 is at   1.690586 -1.675508 -5.716033
       Atomic Center   40 is at   3.315187 -3.098480 -5.613108
       Atomic Center   41 is at   4.126977 -2.476530 -5.976466
       Atomic Center   42 is at   3.743581 -3.774324 -4.884095
       Atomic Center   43 is at   2.742936 -4.144718 -6.983207
       Atomic Center   44 is at   2.705920 -2.942283 -8.347927
       Atomic Center   45 is at   2.016754 -2.140700 -8.110653
       Atomic Center   46 is at   3.693340 -2.510362 -8.464935
       Atomic Center   47 is at   2.275049 -3.631274 -9.639903
       Atomic Center   48 is at   1.282762 -4.057680 -9.543494
       Atomic Center   49 is at   2.256572 -2.914492-10.454578
       Atomic Center   50 is at   2.961336 -4.427448 -9.906286
      ESP Fit Center   51 is at  -2.769980  5.956661  7.431192
      ESP Fit Center   52 is at  -2.910945  7.331107  6.662539
      ESP Fit Center   53 is at  -1.978801  4.156519  6.662539
      ESP Fit Center   54 is at   0.139478  6.932580  5.612539
      ESP Fit Center   55 is at  -3.291853  7.349219  5.612539
      ESP Fit Center   56 is at  -3.578149  6.310100  7.013766
      ESP Fit Center   57 is at  -3.578149  5.149248  7.013766
      ESP Fit Center   58 is at  -3.578149  7.113388  6.173766
      ESP Fit Center   59 is at  -4.280679  6.276145  6.173766
      ESP Fit Center   60 is at  -4.280679  5.183203  6.173766
      ESP Fit Center   61 is at  -3.578149  4.345960  6.173766
      ESP Fit Center   62 is at  -3.578149  7.113388  5.135468
      ESP Fit Center   63 is at  -4.280679  6.276145  5.135468
      ESP Fit Center   64 is at  -4.280679  5.183203  5.135468
      ESP Fit Center   65 is at  -3.578149  4.345960  5.135468
      ESP Fit Center   66 is at  -3.578149  6.310100  4.295468
      ESP Fit Center   67 is at  -3.578149  5.149248  4.295468
      ESP Fit Center   68 is at  -1.301221  5.839114  8.287169
      ESP Fit Center   69 is at  -0.313742  5.839114  7.966318
      ESP Fit Center   70 is at  -0.996073  6.778263  7.966318
      ESP Fit Center   71 is at  -2.100108  6.419540  7.966318
      ESP Fit Center   72 is at  -2.100108  5.258688  7.966318
      ESP Fit Center   73 is at  -0.996073  4.899965  7.966318
      ESP Fit Center   74 is at   0.296554  5.839114  7.126318
      ESP Fit Center   75 is at  -0.077254  6.866144  7.126318
      ESP Fit Center   76 is at  -1.023770  7.412615  7.126318
      ESP Fit Center   77 is at  -2.100108  4.455400  7.126318
      ESP Fit Center   78 is at  -1.023770  4.265613  7.126318
      ESP Fit Center   79 is at  -0.077254  4.812084  7.126318
      ESP Fit Center   80 is at  -1.300601  7.930079  6.667913
      ESP Fit Center   81 is at  -0.381782  8.017960  5.827913
      ESP Fit Center   82 is at  -1.328298  8.564431  5.827913
      ESP Fit Center   83 is at  -2.404636  8.374644  5.827913
      ESP Fit Center   84 is at  -3.107166  7.537401  5.827913
      ESP Fit Center   85 is at  -0.007974  6.990930  4.789615
      ESP Fit Center   86 is at  -0.381782  8.017960  4.789615
      ESP Fit Center   87 is at  -1.328298  8.564431  4.789615
      ESP Fit Center   88 is at  -2.404636  8.374644  4.789615
      ESP Fit Center   89 is at  -3.107166  7.537401  4.789615
      ESP Fit Center   90 is at  -0.618270  6.990930  3.949615
      ESP Fit Center   91 is at  -1.300601  7.930079  3.949615
      ESP Fit Center   92 is at  -2.404636  7.571356  3.949615
      ESP Fit Center   93 is at   0.509907  4.055740  5.679872
      ESP Fit Center   94 is at  -0.264546  6.693283  3.579872
      ESP Fit Center   95 is at   1.033291  5.258336  5.956865
      ESP Fit Center   96 is at   0.350960  6.197485  5.956865
      ESP Fit Center   97 is at   1.643587  5.258336  5.116865
      ESP Fit Center   98 is at   1.269779  6.285366  5.116865
      ESP Fit Center   99 is at   0.323263  6.831837  5.116865
      ESP Fit Center  100 is at   1.269779  4.231306  5.116865
      ESP Fit Center  101 is at   1.643587  5.258336  4.078567
      ESP Fit Center  102 is at   1.269779  6.285366  4.078567
      ESP Fit Center  103 is at   0.323263  6.831837  4.078567
      ESP Fit Center  104 is at   1.269779  4.231306  4.078567
      ESP Fit Center  105 is at   0.350960  6.197485  3.238567
      ESP Fit Center  106 is at  -1.128087  4.001841  6.621341
      ESP Fit Center  107 is at  -0.140608  4.001841  6.300490
      ESP Fit Center  108 is at  -1.926974  3.421415  6.300490
      ESP Fit Center  109 is at  -0.822939  3.062692  6.300490
      ESP Fit Center  110 is at  -2.629504  3.455370  5.460490
      ESP Fit Center  111 is at  -1.926974  2.618127  5.460490
      ESP Fit Center  112 is at  -0.850636  2.428340  5.460490
      ESP Fit Center  113 is at   0.095880  2.974811  5.460490
      ESP Fit Center  114 is at  -2.629504  3.455370  4.422192
      ESP Fit Center  115 is at   0.095880  2.974811  4.422192
      ESP Fit Center  116 is at  -2.956768  4.241697  4.343216
      ESP Fit Center  117 is at  -0.603535  6.936819  3.363216
      ESP Fit Center  118 is at  -1.583535  7.199409  3.363216
      ESP Fit Center  119 is at  -2.563535  6.936819  3.363216
      ESP Fit Center  120 is at  -3.280945  6.219409  3.363216
      ESP Fit Center  121 is at  -3.543535  5.239409  3.363216
      ESP Fit Center  122 is at  -1.059007  6.853742  2.383216
      ESP Fit Center  123 is at  -2.108063  6.853742  2.383216
      ESP Fit Center  124 is at  -2.956768  6.237121  2.383216
      ESP Fit Center  125 is at  -3.280945  5.239409  2.383216
      ESP Fit Center  126 is at   0.125847  6.182556  2.329428
      ESP Fit Center  127 is at   0.289103  3.290026  3.850318
      ESP Fit Center  128 is at   1.581730  4.229175  3.010318
      ESP Fit Center  129 is at   1.207922  5.256205  3.010318
      ESP Fit Center  130 is at   0.261406  2.655674  3.010318
      ESP Fit Center  131 is at   1.207922  3.202145  3.010318
      ESP Fit Center  132 is at   1.581730  4.229175  1.972020
      ESP Fit Center  133 is at   1.207922  5.256205  1.972020
      ESP Fit Center  134 is at   1.207922  3.202145  1.972020
      ESP Fit Center  135 is at   0.971434  4.229175  1.132020
      ESP Fit Center  136 is at  -0.867879  6.600130  1.933226
      ESP Fit Center  137 is at   0.452445  5.026629  0.894928
      ESP Fit Center  138 is at   0.078637  6.053659  0.894928
      ESP Fit Center  139 is at  -0.867879  6.600130  0.894928
      ESP Fit Center  140 is at  -1.944217  6.410343  0.894928
      ESP Fit Center  141 is at  -2.646747  5.573100  0.894928
      ESP Fit Center  142 is at  -0.157851  5.026629  0.054928
      ESP Fit Center  143 is at  -0.840182  5.965778  0.054928
      ESP Fit Center  144 is at  -1.944217  5.607055  0.054928
      ESP Fit Center  145 is at  -1.944217  4.446203  0.054928
      ESP Fit Center  146 is at  -0.840182  4.087480  0.054928
      ESP Fit Center  147 is at  -1.145330  5.026629 -0.265923
      ESP Fit Center  148 is at  -2.377139  4.071278  0.355552
      ESP Fit Center  149 is at  -2.611032  3.152432  4.447264
      ESP Fit Center  150 is at  -2.611032  1.991580  4.447264
      ESP Fit Center  151 is at  -1.506997  1.632857  4.447264
      ESP Fit Center  152 is at  -0.214370  2.572006  3.607264
      ESP Fit Center  153 is at  -3.313562  2.025535  3.607264
      ESP Fit Center  154 is at  -2.611032  1.188292  3.607264
      ESP Fit Center  155 is at  -1.534694  0.998505  3.607264
      ESP Fit Center  156 is at  -0.588178  1.544976  3.607264
      ESP Fit Center  157 is at  -3.695374  3.975427  3.337003
      ESP Fit Center  158 is at  -3.695374  2.814575  3.337003
      ESP Fit Center  159 is at  -3.695374  4.778715  2.497003
      ESP Fit Center  160 is at  -4.397904  3.941472  2.497003
      ESP Fit Center  161 is at  -4.397904  2.848530  2.497003
      ESP Fit Center  162 is at  -3.695374  2.011287  2.497003
      ESP Fit Center  163 is at  -3.695374  4.778715  1.458705
      ESP Fit Center  164 is at  -4.397904  3.941472  1.458705
      ESP Fit Center  165 is at  -4.397904  2.848530  1.458705
      ESP Fit Center  166 is at  -3.695374  3.975427  0.618705
      ESP Fit Center  167 is at  -2.896487  3.395001  0.297854
      ESP Fit Center  168 is at   0.404456  2.451581  2.089976
      ESP Fit Center  169 is at   0.080279  3.449293  0.129976
      ESP Fit Center  170 is at  -1.817482  4.065914  0.129976
      ESP Fit Center  171 is at  -2.666187  3.449293  0.129976
      ESP Fit Center  172 is at  -0.802954  3.300286 -0.587434
      ESP Fit Center  173 is at  -1.782954  3.300286 -0.587434
      ESP Fit Center  174 is at  -3.506763 -0.144462  0.807843
      ESP Fit Center  175 is at  -2.679560 -0.715438  0.807843
      ESP Fit Center  176 is at  -3.769960  0.857979  1.887269
      ESP Fit Center  177 is at  -4.472490  1.984876  1.047269
      ESP Fit Center  178 is at  -4.472490  0.891934  1.047269
      ESP Fit Center  179 is at  -3.769960  0.054691  1.047269
      ESP Fit Center  180 is at  -3.769960  2.822119  0.008971
      ESP Fit Center  181 is at  -4.472490  1.984876  0.008971
      ESP Fit Center  182 is at  -4.472490  0.891934  0.008971
      ESP Fit Center  183 is at  -3.769960  0.054691  0.008971
      ESP Fit Center  184 is at  -2.665925  2.377554 -0.831029
      ESP Fit Center  185 is at  -3.769960  2.018831 -0.831029
      ESP Fit Center  186 is at  -3.769960  0.857979 -0.831029
      ESP Fit Center  187 is at  -2.971073  1.438405 -1.151880
      ESP Fit Center  188 is at  -1.936474  0.588898  3.353576
      ESP Fit Center  189 is at  -0.948995  0.588898  3.032725
      ESP Fit Center  190 is at  -2.735361  1.169324  3.032725
      ESP Fit Center  191 is at  -2.735361  0.008472  3.032725
      ESP Fit Center  192 is at  -1.631326 -0.350251  3.032725
      ESP Fit Center  193 is at  -0.338699  0.588898  2.192725
      ESP Fit Center  194 is at  -3.437891  0.042427  2.192725
      ESP Fit Center  195 is at  -2.735361 -0.794816  2.192725
      ESP Fit Center  196 is at  -1.659023 -0.984603  2.192725
      ESP Fit Center  197 is at  -0.712507 -0.438132  2.192725
      ESP Fit Center  198 is at  -2.735361 -0.794816  1.154427
      ESP Fit Center  199 is at  -1.659023 -0.984603  1.154427
      ESP Fit Center  200 is at  -1.490090 -1.236972  0.703560
      ESP Fit Center  201 is at  -2.976254  1.075544 -1.396440
      ESP Fit Center  202 is at  -2.281269  0.563170 -2.165093
      ESP Fit Center  203 is at  -0.706269 -0.346157 -2.165093
      ESP Fit Center  204 is at  -0.838702  2.837740 -1.687719
      ESP Fit Center  205 is at  -1.915040  2.647953 -1.687719
      ESP Fit Center  206 is at  -2.617570  1.810710 -1.687719
      ESP Fit Center  207 is at  -0.128674  1.264239 -2.527719
      ESP Fit Center  208 is at  -0.811005  2.203388 -2.527719
      ESP Fit Center  209 is at  -1.915040  1.844665 -2.527719
      ESP Fit Center  210 is at  -1.915040  0.683813 -2.527719
      ESP Fit Center  211 is at  -0.811005  0.325090 -2.527719
      ESP Fit Center  212 is at  -1.116153  1.264239 -2.848570
      ESP Fit Center  213 is at  -2.651340 -0.836993  0.671357
      ESP Fit Center  214 is at  -3.353870 -0.803038 -0.168643
      ESP Fit Center  215 is at  -2.651340 -1.640281 -0.168643
      ESP Fit Center  216 is at  -1.575002 -1.830068 -0.168643
      ESP Fit Center  217 is at  -3.353870  0.289904 -1.206941
      ESP Fit Center  218 is at  -3.353870 -0.803038 -1.206941
      ESP Fit Center  219 is at  -2.651340 -1.640281 -1.206941
      ESP Fit Center  220 is at  -1.575002 -1.830068 -1.206941
      ESP Fit Center  221 is at  -2.651340  0.323859 -2.046941
      ESP Fit Center  222 is at  -2.651340 -0.836993 -2.046941
      ESP Fit Center  223 is at  -1.547305 -1.195716 -2.046941
      ESP Fit Center  224 is at  -1.852453 -0.256567 -2.367792
      ESP Fit Center  225 is at   0.000000  0.000000  1.960000
      ESP Fit Center  226 is at  -0.490000 -0.848705  1.697410
      ESP Fit Center  227 is at   0.490000 -0.848705  1.697410
      ESP Fit Center  228 is at  -0.524528 -1.614333  0.980000
      ESP Fit Center  229 is at   0.524528 -1.614333  0.980000
      ESP Fit Center  230 is at  -0.980000 -1.697410  0.000000
      ESP Fit Center  231 is at   0.000000  0.000000 -1.960000
      ESP Fit Center  232 is at   2.308536  2.574106  0.000000
      ESP Fit Center  233 is at   1.368727  2.930529  0.000000
      ESP Fit Center  234 is at   0.370930  2.809374  0.000000
      ESP Fit Center  235 is at   1.111960  1.477949  2.561682
      ESP Fit Center  236 is at   2.099439  1.477949  2.240831
      ESP Fit Center  237 is at   1.417108  2.417098  2.240831
      ESP Fit Center  238 is at   0.313073  2.058375  2.240831
      ESP Fit Center  239 is at   0.313073  0.897523  2.240831
      ESP Fit Center  240 is at   1.417108  0.538800  2.240831
      ESP Fit Center  241 is at   2.335927  2.504979  1.400831
      ESP Fit Center  242 is at   1.389411  3.051450  1.400831
      ESP Fit Center  243 is at   1.389411  3.051450  0.362533
      ESP Fit Center  244 is at   1.377538  3.064284 -0.354527
      ESP Fit Center  245 is at   0.301200  2.874497 -0.354527
      ESP Fit Center  246 is at   2.324054  2.517813 -1.392825
      ESP Fit Center  247 is at   1.377538  3.064284 -1.392825
      ESP Fit Center  248 is at   0.301200  2.874497 -1.392825
      ESP Fit Center  249 is at   2.087566  1.490783 -2.232825
      ESP Fit Center  250 is at   1.405235  2.429932 -2.232825
      ESP Fit Center  251 is at   0.301200  2.071209 -2.232825
      ESP Fit Center  252 is at   0.301200  0.910357 -2.232825
      ESP Fit Center  253 is at   1.100087  1.490783 -2.553676
      ESP Fit Center  254 is at   2.901944  0.909327  1.818653
      ESP Fit Center  255 is at   2.365964 -0.684310  2.520152
      ESP Fit Center  256 is at   3.353443 -0.684310  2.199301
      ESP Fit Center  257 is at   2.671112  0.254839  2.199301
      ESP Fit Center  258 is at   1.567077 -0.103884  2.199301
      ESP Fit Center  259 is at   1.567077 -1.264736  2.199301
      ESP Fit Center  260 is at   2.671112 -1.623459  2.199301
      ESP Fit Center  261 is at   3.963739 -0.684310  1.359301
      ESP Fit Center  262 is at   0.864547 -1.230781  1.359301
      ESP Fit Center  263 is at   1.567077 -2.068024  1.359301
      ESP Fit Center  264 is at   2.643415 -2.257811  1.359301
      ESP Fit Center  265 is at   3.589931 -1.711340  1.359301
      ESP Fit Center  266 is at   3.234089  0.652254  1.804035
      ESP Fit Center  267 is at   4.221568  0.652254  1.483184
      ESP Fit Center  268 is at   3.539237  1.591403  1.483184
      ESP Fit Center  269 is at   4.831864  0.652254  0.643184
      ESP Fit Center  270 is at   4.458056  1.679284  0.643184
      ESP Fit Center  271 is at   3.511540  2.225755  0.643184
      ESP Fit Center  272 is at   4.458056 -0.374776  0.643184
      ESP Fit Center  273 is at   4.831864  0.652254 -0.395114
      ESP Fit Center  274 is at   4.458056  1.679284 -0.395114
      ESP Fit Center  275 is at   3.511540  2.225755 -0.395114
      ESP Fit Center  276 is at   3.539237  1.591403 -1.235114
      ESP Fit Center  277 is at   4.612751 -0.933636  0.001984
      ESP Fit Center  278 is at   4.308674 -1.969227  0.001984
      ESP Fit Center  279 is at   5.085837 -0.933636 -0.980390
      ESP Fit Center  280 is at   4.849294  0.102727 -0.980390
      ESP Fit Center  281 is at   4.186515 -2.801098 -0.980390
      ESP Fit Center  282 is at   4.849294 -1.969999 -0.980390
      ESP Fit Center  283 is at   5.085837 -0.933636 -2.070742
      ESP Fit Center  284 is at   4.849294  0.102727 -2.070742
      ESP Fit Center  285 is at   4.186515  0.933826 -2.070742
      ESP Fit Center  286 is at   3.228772  1.395051 -2.070742
      ESP Fit Center  287 is at   0.545234  0.102727 -2.070742
      ESP Fit Center  288 is at   4.849294 -1.969999 -2.070742
      ESP Fit Center  289 is at   4.612751 -0.933636 -3.053116
      ESP Fit Center  290 is at   4.308674  0.101955 -3.053116
      ESP Fit Center  291 is at   3.492986  0.808752 -3.053116
      ESP Fit Center  292 is at   2.424662  0.962354 -3.053116
      ESP Fit Center  293 is at   1.442887  0.513993 -3.053116
      ESP Fit Center  294 is at   0.859368 -0.393981 -3.053116
      ESP Fit Center  295 is at   4.308674 -1.969227 -3.053116
      ESP Fit Center  296 is at   0.635450 -2.428228  0.537789
      ESP Fit Center  297 is at   0.494485 -3.802674 -0.230864
      ESP Fit Center  298 is at   1.997411 -2.890381  1.329808
      ESP Fit Center  299 is at   2.984890 -2.890381  1.008957
      ESP Fit Center  300 is at   1.198524 -2.309955  1.008957
      ESP Fit Center  301 is at   1.198524 -3.470807  1.008957
      ESP Fit Center  302 is at   2.302559 -3.829530  1.008957
      ESP Fit Center  303 is at   3.595186 -2.890381  0.168957
      ESP Fit Center  304 is at   0.495994 -3.436852  0.168957
      ESP Fit Center  305 is at   1.198524 -4.274095  0.168957
      ESP Fit Center  306 is at   2.274862 -4.463882  0.168957
      ESP Fit Center  307 is at   3.221378 -3.917411  0.168957
      ESP Fit Center  308 is at   3.221378 -3.917411 -0.869341
      ESP Fit Center  309 is at  -0.150650 -2.728418  0.169169
      ESP Fit Center  310 is at  -0.853180 -2.694463 -0.670831
      ESP Fit Center  311 is at  -0.150650 -3.531706 -0.670831
      ESP Fit Center  312 is at  -0.853180 -1.601521 -1.709129
      ESP Fit Center  313 is at  -0.853180 -2.694463 -1.709129
      ESP Fit Center  314 is at  -0.150650 -3.531706 -1.709129
      ESP Fit Center  315 is at   2.627717 -5.098044 -3.459271
      ESP Fit Center  316 is at   0.658855 -4.967856 -0.716291
      ESP Fit Center  317 is at   1.762890 -5.326579 -0.716291
      ESP Fit Center  318 is at  -0.043675 -3.840959 -1.556291
      ESP Fit Center  319 is at  -0.043675 -4.933901 -1.556291
      ESP Fit Center  320 is at   0.658855 -5.771144 -1.556291
      ESP Fit Center  321 is at   1.735193 -5.960931 -1.556291
      ESP Fit Center  322 is at   2.681709 -5.414460 -1.556291
      ESP Fit Center  323 is at  -0.043675 -4.933901 -2.594589
      ESP Fit Center  324 is at   0.658855 -5.771144 -2.594589
      ESP Fit Center  325 is at   1.735193 -5.960931 -2.594589
      ESP Fit Center  326 is at   2.681709 -5.414460 -2.594589
      ESP Fit Center  327 is at   3.910721 -3.619211 -1.245962
      ESP Fit Center  328 is at   3.228390 -4.558360 -1.245962
      ESP Fit Center  329 is at   4.521017 -3.619211 -2.085962
      ESP Fit Center  330 is at   3.200693 -5.192712 -2.085962
      ESP Fit Center  331 is at   4.147209 -4.646241 -2.085962
      ESP Fit Center  332 is at   4.521017 -3.619211 -3.124260
      ESP Fit Center  333 is at   4.147209 -2.592181 -3.124260
      ESP Fit Center  334 is at   3.200693 -5.192712 -3.124260
      ESP Fit Center  335 is at   4.147209 -4.646241 -3.124260
      ESP Fit Center  336 is at  -0.834224 -2.543502 -2.442559
      ESP Fit Center  337 is at  -0.834224 -3.622812 -2.442559
      ESP Fit Center  338 is at  -0.250705 -4.530786 -2.442559
      ESP Fit Center  339 is at   0.472164 -0.754470 -3.424933
      ESP Fit Center  340 is at  -0.485579 -1.215695 -3.424933
      ESP Fit Center  341 is at  -1.148358 -2.046794 -3.424933
      ESP Fit Center  342 is at  -1.384901 -3.083157 -3.424933
      ESP Fit Center  343 is at  -1.148358 -4.119520 -3.424933
      ESP Fit Center  344 is at  -0.485579 -4.950619 -3.424933
      ESP Fit Center  345 is at   0.472164 -5.411844 -3.424933
      ESP Fit Center  346 is at   1.535180 -5.411844 -3.424933
      ESP Fit Center  347 is at   0.472164 -0.754470 -4.515285
      ESP Fit Center  348 is at  -0.485579 -1.215695 -4.515285
      ESP Fit Center  349 is at  -1.148358 -2.046794 -4.515285
      ESP Fit Center  350 is at  -1.384901 -3.083157 -4.515285
      ESP Fit Center  351 is at  -1.148358 -4.119520 -4.515285
      ESP Fit Center  352 is at  -0.485579 -4.950619 -4.515285
      ESP Fit Center  353 is at   0.472164 -5.411844 -4.515285
      ESP Fit Center  354 is at   1.535180 -5.411844 -4.515285
      ESP Fit Center  355 is at   2.492923 -4.950619 -4.515285
      ESP Fit Center  356 is at  -0.250705 -1.635528 -5.497659
      ESP Fit Center  357 is at  -0.834224 -2.543502 -5.497659
      ESP Fit Center  358 is at  -0.834224 -3.622812 -5.497659
      ESP Fit Center  359 is at  -0.250705 -4.530786 -5.497659
      ESP Fit Center  360 is at   0.731070 -4.979147 -5.497659
      ESP Fit Center  361 is at  -0.059343 -3.083157 -6.177483
      ESP Fit Center  362 is at   3.009233 -0.554973 -6.011139
      ESP Fit Center  363 is at   4.331862 -1.462261 -3.824475
      ESP Fit Center  364 is at   3.958054 -0.435231 -3.824475
      ESP Fit Center  365 is at   3.011538  0.111240 -3.824475
      ESP Fit Center  366 is at   1.935200 -0.078547 -3.824475
      ESP Fit Center  367 is at   3.958054 -0.435231 -4.862773
      ESP Fit Center  368 is at   3.011538  0.111240 -4.862773
      ESP Fit Center  369 is at   1.935200 -0.078547 -4.862773
      ESP Fit Center  370 is at   1.968037 -0.102007 -5.196884
      ESP Fit Center  371 is at   0.891699 -0.291794 -5.196884
      ESP Fit Center  372 is at   2.914553 -0.648478 -6.235182
      ESP Fit Center  373 is at   1.968037 -0.102007 -6.235182
      ESP Fit Center  374 is at   0.891699 -0.291794 -6.235182
      ESP Fit Center  375 is at   0.189169 -1.129037 -6.235182
      ESP Fit Center  376 is at   0.189169 -2.221979 -6.235182
      ESP Fit Center  377 is at   1.995734 -0.736359 -7.075182
      ESP Fit Center  378 is at   0.891699 -1.095082 -7.075182
      ESP Fit Center  379 is at   5.114456 -2.476530 -4.617317
      ESP Fit Center  380 is at   4.432125 -1.537381 -4.617317
      ESP Fit Center  381 is at   5.724752 -2.476530 -5.457317
      ESP Fit Center  382 is at   5.350944 -1.449500 -5.457317
      ESP Fit Center  383 is at   4.404428 -0.903029 -5.457317
      ESP Fit Center  384 is at   5.724752 -2.476530 -6.495615
      ESP Fit Center  385 is at   5.350944 -1.449500 -6.495615
      ESP Fit Center  386 is at   4.404428 -0.903029 -6.495615
      ESP Fit Center  387 is at   3.328090 -1.092816 -6.495615
      ESP Fit Center  388 is at   5.350944 -3.503560 -6.495615
      ESP Fit Center  389 is at   5.114456 -2.476530 -7.335615
      ESP Fit Center  390 is at   4.731060 -3.774324 -3.524946
      ESP Fit Center  391 is at   4.048729 -4.713473 -3.524946
      ESP Fit Center  392 is at   5.341356 -3.774324 -4.364946
      ESP Fit Center  393 is at   4.967548 -2.747294 -4.364946
      ESP Fit Center  394 is at   2.944694 -5.158038 -4.364946
      ESP Fit Center  395 is at   4.021032 -5.347825 -4.364946
      ESP Fit Center  396 is at   4.967548 -4.801354 -4.364946
      ESP Fit Center  397 is at   5.341356 -3.774324 -5.403244
      ESP Fit Center  398 is at   4.967548 -4.801354 -5.403244
      ESP Fit Center  399 is at   2.211428 -5.065316 -4.775833
      ESP Fit Center  400 is at   1.488559 -5.592347 -5.455657
      ESP Fit Center  401 is at   2.470334 -6.040708 -5.455657
      ESP Fit Center  402 is at   3.538658 -5.887106 -5.455657
      ESP Fit Center  403 is at   5.131509 -4.144718 -6.438031
      ESP Fit Center  404 is at   0.590906 -3.108355 -6.438031
      ESP Fit Center  405 is at   0.354363 -4.144718 -6.438031
      ESP Fit Center  406 is at   0.590906 -5.181081 -6.438031
      ESP Fit Center  407 is at   1.253685 -6.012180 -6.438031
      ESP Fit Center  408 is at   2.211428 -6.473405 -6.438031
      ESP Fit Center  409 is at   3.274444 -6.473405 -6.438031
      ESP Fit Center  410 is at   4.232187 -6.012180 -6.438031
      ESP Fit Center  411 is at   4.894966 -5.181081 -6.438031
      ESP Fit Center  412 is at   5.131509 -4.144718 -7.528383
      ESP Fit Center  413 is at   0.590906 -3.108355 -7.528383
      ESP Fit Center  414 is at   0.354363 -4.144718 -7.528383
      ESP Fit Center  415 is at   0.590906 -5.181081 -7.528383
      ESP Fit Center  416 is at   1.253685 -6.012180 -7.528383
      ESP Fit Center  417 is at   2.211428 -6.473405 -7.528383
      ESP Fit Center  418 is at   3.274444 -6.473405 -7.528383
      ESP Fit Center  419 is at   4.232187 -6.012180 -7.528383
      ESP Fit Center  420 is at   4.894966 -5.181081 -7.528383
      ESP Fit Center  421 is at   4.658423 -4.144718 -8.510757
      ESP Fit Center  422 is at   1.488559 -5.592347 -8.510757
      ESP Fit Center  423 is at   2.470334 -6.040708 -8.510757
      ESP Fit Center  424 is at   3.538658 -5.887106 -8.510757
      ESP Fit Center  425 is at   4.354346 -5.180309 -8.510757
      ESP Fit Center  426 is at   3.461416 -1.287978 -7.297927
      ESP Fit Center  427 is at   2.447099 -1.142141 -9.397927
      ESP Fit Center  428 is at   2.294205 -0.567199 -7.591504
      ESP Fit Center  429 is at   1.217867 -0.756986 -7.591504
      ESP Fit Center  430 is at   0.515337 -1.594229 -7.591504
      ESP Fit Center  431 is at   0.515337 -2.687171 -7.591504
      ESP Fit Center  432 is at   2.294205 -0.567199 -8.629802
      ESP Fit Center  433 is at   1.217867 -0.756986 -8.629802
      ESP Fit Center  434 is at   0.515337 -1.594229 -8.629802
      ESP Fit Center  435 is at   0.515337 -2.687171 -8.629802
      ESP Fit Center  436 is at   2.321902 -1.201551 -9.469802
      ESP Fit Center  437 is at   1.217867 -1.560274 -9.469802
      ESP Fit Center  438 is at   5.291115 -2.510362 -7.945786
      ESP Fit Center  439 is at   4.917307 -1.483332 -7.945786
      ESP Fit Center  440 is at   3.970791 -0.936861 -7.945786
      ESP Fit Center  441 is at   4.917307 -3.537392 -7.945786
      ESP Fit Center  442 is at   5.291115 -2.510362 -8.984084
      ESP Fit Center  443 is at   4.917307 -1.483332 -8.984084
      ESP Fit Center  444 is at   3.970791 -0.936861 -8.984084
      ESP Fit Center  445 is at   4.917307 -3.537392 -8.984084
      ESP Fit Center  446 is at   4.680819 -2.510362 -9.824084
      ESP Fit Center  447 is at   3.998488 -1.571213 -9.824084
      ESP Fit Center  448 is at   0.703176 -2.238716 -9.639903
      ESP Fit Center  449 is at   1.750049 -4.540601-11.458556
      ESP Fit Center  450 is at   0.483875 -3.477254 -8.184345
      ESP Fit Center  451 is at   0.483875 -4.638106 -8.184345
      ESP Fit Center  452 is at   0.483875 -2.673966 -9.024345
      ESP Fit Center  453 is at  -0.218655 -3.511209 -9.024345
      ESP Fit Center  454 is at  -0.218655 -4.604151 -9.024345
      ESP Fit Center  455 is at   0.483875 -5.441394 -9.024345
      ESP Fit Center  456 is at   1.560213 -5.631181 -9.024345
      ESP Fit Center  457 is at  -0.218655 -3.511209-10.062643
      ESP Fit Center  458 is at  -0.218655 -4.604151-10.062643
      ESP Fit Center  459 is at   0.483875 -5.441394-10.062643
      ESP Fit Center  460 is at   1.560213 -5.631181-10.062643
      ESP Fit Center  461 is at   0.483875 -3.477254-10.902643
      ESP Fit Center  462 is at   0.483875 -4.638106-10.902643
      ESP Fit Center  463 is at   2.534023 -1.340991 -9.935429
      ESP Fit Center  464 is at   1.457685 -1.530778 -9.935429
      ESP Fit Center  465 is at   3.854347 -2.914492-10.973727
      ESP Fit Center  466 is at   3.480539 -1.887462-10.973727
      ESP Fit Center  467 is at   2.534023 -1.340991-10.973727
      ESP Fit Center  468 is at   1.457685 -1.530778-10.973727
      ESP Fit Center  469 is at   0.755155 -2.368021-10.973727
      ESP Fit Center  470 is at   3.244051 -2.914492-11.813727
      ESP Fit Center  471 is at   2.561720 -1.975343-11.813727
      ESP Fit Center  472 is at   1.457685 -2.334066-11.813727
      ESP Fit Center  473 is at   1.457685 -3.494918-11.813727
      ESP Fit Center  474 is at   2.561720 -3.853641-11.813727
      ESP Fit Center  475 is at   2.256572 -2.914492-12.134578
      ESP Fit Center  476 is at   4.559111 -4.427448 -9.387137
      ESP Fit Center  477 is at   2.162449 -5.811162 -9.387137
      ESP Fit Center  478 is at   3.238787 -6.000949 -9.387137
      ESP Fit Center  479 is at   4.185303 -5.454478 -9.387137
      ESP Fit Center  480 is at   4.559111 -4.427448-10.425435
      ESP Fit Center  481 is at   2.162449 -5.811162-10.425435
      ESP Fit Center  482 is at   3.238787 -6.000949-10.425435
      ESP Fit Center  483 is at   4.185303 -5.454478-10.425435
      ESP Fit Center  484 is at   3.948815 -4.427448-11.265435
      ESP Fit Center  485 is at   2.162449 -5.007874-11.265435
      ESP Fit Center  486 is at   3.266484 -5.366597-11.265435
      ESP Fit Center  487 is at   2.961336 -4.427448-11.586286
      ESP Fit Center  488 is at  -0.940497  7.663490  7.108915
      ESP Fit Center  489 is at  -1.987019  7.813958  7.108915
      ESP Fit Center  490 is at  -2.948758  7.374746  7.108915
      ESP Fit Center  491 is at  -1.987019  4.099364  7.108915
      ESP Fit Center  492 is at   0.388131  6.971874  6.146589
      ESP Fit Center  493 is at  -3.178838  7.786011  6.146589
      ESP Fit Center  494 is at  -3.739262  5.729674  7.317386
      ESP Fit Center  495 is at  -3.259262  4.898290  7.317386
      ESP Fit Center  496 is at  -4.124470  6.707025  6.614617
      ESP Fit Center  497 is at  -4.442031  5.729674  6.614617
      ESP Fit Center  498 is at  -4.124470  4.752323  6.614617
      ESP Fit Center  499 is at  -3.293086  4.148287  6.614617
      ESP Fit Center  500 is at  -3.739262  7.392443  5.654617
      ESP Fit Center  501 is at  -4.442031  6.689674  5.654617
      ESP Fit Center  502 is at  -4.699262  5.729674  5.654617
      ESP Fit Center  503 is at  -4.442031  4.769674  5.654617
      ESP Fit Center  504 is at  -3.739262  4.066905  5.654617
      ESP Fit Center  505 is at  -4.124470  6.707025  4.694617
      ESP Fit Center  506 is at  -4.442031  5.729674  4.694617
      ESP Fit Center  507 is at  -4.124470  4.752323  4.694617
      ESP Fit Center  508 is at  -3.293086  4.148287  4.694617
      ESP Fit Center  509 is at  -3.739262  5.729674  3.991848
      ESP Fit Center  510 is at  -1.301221  5.839114  8.527169
      ESP Fit Center  511 is at  -0.341221  5.839114  8.269938
      ESP Fit Center  512 is at  -0.821221  6.670498  8.269938
      ESP Fit Center  513 is at  -1.781221  6.670498  8.269938
      ESP Fit Center  514 is at  -2.261221  5.839114  8.269938
      ESP Fit Center  515 is at  -1.781221  5.007730  8.269938
      ESP Fit Center  516 is at  -0.821221  5.007730  8.269938
      ESP Fit Center  517 is at   0.361548  5.839114  7.567169
      ESP Fit Center  518 is at   0.043987  6.816465  7.567169
      ESP Fit Center  519 is at  -0.787397  7.420501  7.567169
      ESP Fit Center  520 is at  -1.815045  7.420501  7.567169
      ESP Fit Center  521 is at  -2.646429  4.861763  7.567169
      ESP Fit Center  522 is at  -1.815045  4.257727  7.567169
      ESP Fit Center  523 is at  -0.787397  4.257727  7.567169
      ESP Fit Center  524 is at   0.043987  4.861763  7.567169
      ESP Fit Center  525 is at   0.618779  5.839114  6.607169
      ESP Fit Center  526 is at   0.361548  6.799114  6.607169
      ESP Fit Center  527 is at   0.361548  4.879114  6.607169
      ESP Fit Center  528 is at  -0.260541  7.968281  6.268764
      ESP Fit Center  529 is at  -1.091925  8.572317  6.268764
      ESP Fit Center  530 is at  -2.119573  8.572317  6.268764
      ESP Fit Center  531 is at  -2.950957  7.968281  6.268764
      ESP Fit Center  532 is at   0.057020  7.950930  5.308764
      ESP Fit Center  533 is at  -0.645749  8.653699  5.308764
      ESP Fit Center  534 is at  -1.605749  8.910930  5.308764
      ESP Fit Center  535 is at  -2.565749  8.653699  5.308764
      ESP Fit Center  536 is at  -3.268518  7.950930  5.308764
      ESP Fit Center  537 is at  -0.260541  7.968281  4.348764
      ESP Fit Center  538 is at  -1.091925  8.572317  4.348764
      ESP Fit Center  539 is at  -2.119573  8.572317  4.348764
      ESP Fit Center  540 is at  -2.950957  7.968281  4.348764
      ESP Fit Center  541 is at  -1.125749  7.822314  3.645995
      ESP Fit Center  542 is at  -2.085749  7.822314  3.645995
      ESP Fit Center  543 is at   0.558482  4.024522  6.126248
      ESP Fit Center  544 is at   0.438816  3.209628  4.095822
      ESP Fit Center  545 is at   1.005812  5.258336  6.260485
      ESP Fit Center  546 is at   1.708581  5.258336  5.557716
      ESP Fit Center  547 is at   1.391020  6.235687  5.557716
      ESP Fit Center  548 is at   0.559636  6.839723  5.557716
      ESP Fit Center  549 is at   1.391020  4.280985  5.557716
      ESP Fit Center  550 is at   1.965812  5.258336  4.597716
      ESP Fit Center  551 is at   1.708581  6.218336  4.597716
      ESP Fit Center  552 is at   1.005812  6.921105  4.597716
      ESP Fit Center  553 is at   1.005812  3.595567  4.597716
      ESP Fit Center  554 is at   1.708581  4.298336  4.597716
      ESP Fit Center  555 is at   1.708581  5.258336  3.637716
      ESP Fit Center  556 is at   1.391020  6.235687  3.637716
      ESP Fit Center  557 is at   0.559636  6.839723  3.637716
      ESP Fit Center  558 is at  -1.608087  3.170457  6.604110
      ESP Fit Center  559 is at  -0.648087  3.170457  6.604110
      ESP Fit Center  560 is at  -2.473295  3.024490  5.901341
      ESP Fit Center  561 is at  -1.641911  2.420454  5.901341
      ESP Fit Center  562 is at  -0.614263  2.420454  5.901341
      ESP Fit Center  563 is at   0.217121  3.024490  5.901341
      ESP Fit Center  564 is at  -2.790856  3.041841  4.941341
      ESP Fit Center  565 is at  -1.128087  2.081841  4.941341
      ESP Fit Center  566 is at  -0.168087  2.339072  4.941341
      ESP Fit Center  567 is at   0.534682  3.041841  4.941341
      ESP Fit Center  568 is at   0.217121  3.024490  3.981341
      ESP Fit Center  569 is at  -3.218162  6.687562  3.861663
      ESP Fit Center  570 is at  -3.703915  5.762036  3.861663
      ESP Fit Center  571 is at  -3.703915  4.716782  3.861663
      ESP Fit Center  572 is at  -0.342973  7.036673  2.864769
      ESP Fit Center  573 is at  -1.320302  7.407325  2.864769
      ESP Fit Center  574 is at  -2.357935  7.281333  2.864769
      ESP Fit Center  575 is at  -3.218162  6.687562  2.864769
      ESP Fit Center  576 is at  -3.703915  5.762036  2.864769
      ESP Fit Center  577 is at  -1.042353  6.904997  1.966599
      ESP Fit Center  578 is at  -2.124717  6.904997  1.966599
      ESP Fit Center  579 is at  -3.000369  6.268799  1.966599
      ESP Fit Center  580 is at   0.391769  6.283640  2.863478
      ESP Fit Center  581 is at   0.391769  6.283640  1.795378
      ESP Fit Center  582 is at  -3.175200  5.469503  1.795378
      ESP Fit Center  583 is at   1.646724  4.229175  3.451169
      ESP Fit Center  584 is at   0.497779  2.647788  3.451169
      ESP Fit Center  585 is at   1.329163  3.251824  3.451169
      ESP Fit Center  586 is at   1.903955  4.229175  2.491169
      ESP Fit Center  587 is at   1.646724  5.189175  2.491169
      ESP Fit Center  588 is at   0.943955  5.891944  2.491169
      ESP Fit Center  589 is at   0.943955  2.566406  2.491169
      ESP Fit Center  590 is at   1.646724  3.269175  2.491169
      ESP Fit Center  591 is at   1.646724  4.229175  1.531169
      ESP Fit Center  592 is at   1.329163  5.206526  1.531169
      ESP Fit Center  593 is at   0.943955  4.229175  0.828400
      ESP Fit Center  594 is at  -0.185330  6.689398  1.414077
      ESP Fit Center  595 is at  -1.145330  6.946629  1.414077
      ESP Fit Center  596 is at  -2.105330  6.689398  1.414077
      ESP Fit Center  597 is at  -2.808099  5.986629  1.414077
      ESP Fit Center  598 is at   0.517439  5.026629  0.454077
      ESP Fit Center  599 is at   0.199878  6.003980  0.454077
      ESP Fit Center  600 is at  -0.631506  6.608016  0.454077
      ESP Fit Center  601 is at  -1.659154  6.608016  0.454077
      ESP Fit Center  602 is at  -2.490538  6.003980  0.454077
      ESP Fit Center  603 is at  -2.808099  5.026629  0.454077
      ESP Fit Center  604 is at  -0.185330  5.026629 -0.248692
      ESP Fit Center  605 is at  -0.665330  5.858013 -0.248692
      ESP Fit Center  606 is at  -1.625330  5.858013 -0.248692
      ESP Fit Center  607 is at  -2.105330  5.026629 -0.248692
      ESP Fit Center  608 is at  -0.665330  4.195245 -0.248692
      ESP Fit Center  609 is at  -1.145330  5.026629 -0.505923
      ESP Fit Center  610 is at  -3.652527  2.633309  3.670581
      ESP Fit Center  611 is at   0.255972  2.146738  2.708255
      ESP Fit Center  612 is at  -2.772145  2.572006  4.750884
      ESP Fit Center  613 is at  -2.292145  1.740622  4.750884
      ESP Fit Center  614 is at  -1.332145  1.740622  4.750884
      ESP Fit Center  615 is at  -0.149376  2.572006  4.048115
      ESP Fit Center  616 is at  -3.474914  2.572006  4.048115
      ESP Fit Center  617 is at  -3.157353  1.594655  4.048115
      ESP Fit Center  618 is at  -2.325969  0.990619  4.048115
      ESP Fit Center  619 is at  -1.298321  0.990619  4.048115
      ESP Fit Center  620 is at  -0.466937  1.594655  4.048115
      ESP Fit Center  621 is at  -3.474914  1.612006  3.088115
      ESP Fit Center  622 is at  -0.149376  1.612006  3.088115
      ESP Fit Center  623 is at  -3.856487  3.395001  3.640623
      ESP Fit Center  624 is at  -4.241695  4.372352  2.937854
      ESP Fit Center  625 is at  -4.559256  3.395001  2.937854
      ESP Fit Center  626 is at  -4.241695  2.417650  2.937854
      ESP Fit Center  627 is at  -3.856487  5.057770  1.977854
      ESP Fit Center  628 is at  -4.559256  4.355001  1.977854
      ESP Fit Center  629 is at  -4.816487  3.395001  1.977854
      ESP Fit Center  630 is at  -4.559256  2.435001  1.977854
      ESP Fit Center  631 is at  -3.410311  4.976388  1.017854
      ESP Fit Center  632 is at  -4.241695  4.372352  1.017854
      ESP Fit Center  633 is at  -4.559256  3.395001  1.017854
      ESP Fit Center  634 is at  -3.376487  4.226385  0.315085
      ESP Fit Center  635 is at  -3.856487  3.395001  0.315085
      ESP Fit Center  636 is at   0.640739  3.466461  0.611529
      ESP Fit Center  637 is at   0.123880  3.480971 -0.286641
      ESP Fit Center  638 is at  -0.751772  4.117169 -0.286641
      ESP Fit Center  639 is at  -1.834136  4.117169 -0.286641
      ESP Fit Center  640 is at  -2.709788  3.480971 -0.286641
      ESP Fit Center  641 is at  -0.807004  3.293271 -0.908194
      ESP Fit Center  642 is at  -1.778904  3.293271 -0.908194
      ESP Fit Center  643 is at  -3.931073  1.438405  2.190889
      ESP Fit Center  644 is at  -4.633842  1.438405  1.488120
      ESP Fit Center  645 is at  -4.316281  0.461054  1.488120
      ESP Fit Center  646 is at  -4.633842  2.398405  0.528120
      ESP Fit Center  647 is at  -4.891073  1.438405  0.528120
      ESP Fit Center  648 is at  -4.633842  0.478405  0.528120
      ESP Fit Center  649 is at  -3.931073 -0.224364  0.528120
      ESP Fit Center  650 is at  -3.484897  3.019792 -0.431880
      ESP Fit Center  651 is at  -4.316281  2.415756 -0.431880
      ESP Fit Center  652 is at  -4.633842  1.438405 -0.431880
      ESP Fit Center  653 is at  -4.316281  0.461054 -0.431880
      ESP Fit Center  654 is at  -3.451073  2.269789 -1.134649
      ESP Fit Center  655 is at  -3.931073  1.438405 -1.134649
      ESP Fit Center  656 is at  -1.936474  0.588898  3.593576
      ESP Fit Center  657 is at  -0.976474  0.588898  3.336345
      ESP Fit Center  658 is at  -2.896474  0.588898  3.336345
      ESP Fit Center  659 is at  -2.416474 -0.242486  3.336345
      ESP Fit Center  660 is at  -1.456474 -0.242486  3.336345
      ESP Fit Center  661 is at  -0.273705  0.588898  2.633576
      ESP Fit Center  662 is at  -3.599243  0.588898  2.633576
      ESP Fit Center  663 is at  -3.281682 -0.388453  2.633576
      ESP Fit Center  664 is at  -2.450298 -0.992489  2.633576
      ESP Fit Center  665 is at  -1.422650 -0.992489  2.633576
      ESP Fit Center  666 is at  -0.591266 -0.388453  2.633576
      ESP Fit Center  667 is at  -3.599243 -0.371102  1.673576
      ESP Fit Center  668 is at  -2.896474 -1.073871  1.673576
      ESP Fit Center  669 is at  -1.936474 -1.331102  1.673576
      ESP Fit Center  670 is at  -1.498308 -1.294127  1.149936
      ESP Fit Center  671 is at  -3.031657  1.091812 -1.842816
      ESP Fit Center  672 is at  -0.710609 -0.338640 -2.508765
      ESP Fit Center  673 is at  -0.156153  2.927008 -1.168570
      ESP Fit Center  674 is at  -1.116153  3.184239 -1.168570
      ESP Fit Center  675 is at  -2.076153  2.927008 -1.168570
      ESP Fit Center  676 is at  -0.602329  2.845626 -2.128570
      ESP Fit Center  677 is at  -1.629977  2.845626 -2.128570
      ESP Fit Center  678 is at  -2.461361  2.241590 -2.128570
      ESP Fit Center  679 is at  -2.778922  1.264239 -2.128570
      ESP Fit Center  680 is at  -0.156153  1.264239 -2.831339
      ESP Fit Center  681 is at  -0.636153  2.095623 -2.831339
      ESP Fit Center  682 is at  -1.596153  2.095623 -2.831339
      ESP Fit Center  683 is at  -2.076153  1.264239 -2.831339
      ESP Fit Center  684 is at  -1.596153  0.432855 -2.831339
      ESP Fit Center  685 is at  -0.636153  0.432855 -2.831339
      ESP Fit Center  686 is at  -1.116153  1.264239 -3.088570
      ESP Fit Center  687 is at  -3.197661 -1.233918  0.272208
      ESP Fit Center  688 is at  -2.366277 -1.837954  0.272208
      ESP Fit Center  689 is at  -1.338629 -1.837954  0.272208
      ESP Fit Center  690 is at  -3.772453 -0.256567 -0.687792
      ESP Fit Center  691 is at  -3.515222 -1.216567 -0.687792
      ESP Fit Center  692 is at  -2.812453 -1.919336 -0.687792
      ESP Fit Center  693 is at  -1.852453 -2.176567 -0.687792
      ESP Fit Center  694 is at  -3.515222 -0.256567 -1.647792
      ESP Fit Center  695 is at  -3.197661 -1.233918 -1.647792
      ESP Fit Center  696 is at  -2.366277 -1.837954 -1.647792
      ESP Fit Center  697 is at  -1.338629 -1.837954 -1.647792
      ESP Fit Center  698 is at  -2.812453 -0.256567 -2.350561
      ESP Fit Center  699 is at  -2.332453 -1.087951 -2.350561
      ESP Fit Center  700 is at  -1.372453 -1.087951 -2.350561
      ESP Fit Center  701 is at  -1.852453 -0.256567 -2.607792
      ESP Fit Center  702 is at   0.000000  0.000000  2.240000
      ESP Fit Center  703 is at  -0.485950 -0.841690  2.018170
      ESP Fit Center  704 is at   0.485950 -0.841690  2.018170
      ESP Fit Center  705 is at  -0.541182 -1.665588  1.396617
      ESP Fit Center  706 is at   0.541182 -1.665588  1.396617
      ESP Fit Center  707 is at  -0.774400 -2.041924  0.498447
      ESP Fit Center  708 is at   0.594940 -0.055970  2.162325
      ESP Fit Center  709 is at   2.574458  2.675190  0.534050
      ESP Fit Center  710 is at   2.574458  2.675190 -0.534050
      ESP Fit Center  711 is at   1.111960  1.477949  2.801682
      ESP Fit Center  712 is at   2.071960  1.477949  2.544451
      ESP Fit Center  713 is at   1.591960  2.309333  2.544451
      ESP Fit Center  714 is at   0.631960  2.309333  2.544451
      ESP Fit Center  715 is at   0.151960  1.477949  2.544451
      ESP Fit Center  716 is at   0.631960  0.646565  2.544451
      ESP Fit Center  717 is at   1.591960  0.646565  2.544451
      ESP Fit Center  718 is at   2.457168  2.455300  1.841682
      ESP Fit Center  719 is at   1.625784  3.059336  1.841682
      ESP Fit Center  720 is at   2.774729  2.437949  0.881682
      ESP Fit Center  721 is at   2.071960  3.140718  0.881682
      ESP Fit Center  722 is at   1.111960  3.397949  0.881682
      ESP Fit Center  723 is at   2.762856  2.450783 -0.873676
      ESP Fit Center  724 is at   2.060087  3.153552 -0.873676
      ESP Fit Center  725 is at   1.100087  3.410783 -0.873676
      ESP Fit Center  726 is at   0.140087  3.153552 -0.873676
      ESP Fit Center  727 is at   2.445295  2.468134 -1.833676
      ESP Fit Center  728 is at   1.613911  3.072170 -1.833676
      ESP Fit Center  729 is at   0.586263  3.072170 -1.833676
      ESP Fit Center  730 is at   1.580087  2.322167 -2.536445
      ESP Fit Center  731 is at   0.620087  2.322167 -2.536445
      ESP Fit Center  732 is at   0.620087  0.659399 -2.536445
      ESP Fit Center  733 is at   1.100087  1.490783 -2.793676
      ESP Fit Center  734 is at   2.897604  0.901810  2.162325
      ESP Fit Center  735 is at   2.365964 -0.684310  2.760152
      ESP Fit Center  736 is at   3.325964 -0.684310  2.502921
      ESP Fit Center  737 is at   2.845964  0.147074  2.502921
      ESP Fit Center  738 is at   1.885964  0.147074  2.502921
      ESP Fit Center  739 is at   1.405964 -0.684310  2.502921
      ESP Fit Center  740 is at   1.885964 -1.515694  2.502921
      ESP Fit Center  741 is at   2.845964 -1.515694  2.502921
      ESP Fit Center  742 is at   4.028733 -0.684310  1.800152
      ESP Fit Center  743 is at   1.020756 -1.661661  1.800152
      ESP Fit Center  744 is at   1.852140 -2.265697  1.800152
      ESP Fit Center  745 is at   2.879788 -2.265697  1.800152
      ESP Fit Center  746 is at   3.711172 -1.661661  1.800152
      ESP Fit Center  747 is at   4.028733 -1.644310  0.840152
      ESP Fit Center  748 is at   4.194089  0.652254  1.786804
      ESP Fit Center  749 is at   3.714089  1.483638  1.786804
      ESP Fit Center  750 is at   4.896858  0.652254  1.084035
      ESP Fit Center  751 is at   4.579297  1.629605  1.084035
      ESP Fit Center  752 is at   3.747913  2.233641  1.084035
      ESP Fit Center  753 is at   4.579297 -0.325097  1.084035
      ESP Fit Center  754 is at   5.154089  0.652254  0.124035
      ESP Fit Center  755 is at   4.896858  1.612254  0.124035
      ESP Fit Center  756 is at   4.194089  2.315023  0.124035
      ESP Fit Center  757 is at   3.234089  2.572254  0.124035
      ESP Fit Center  758 is at   4.896858 -0.307746  0.124035
      ESP Fit Center  759 is at   4.579297  1.629605 -0.835965
      ESP Fit Center  760 is at   3.747913  2.233641 -0.835965
      ESP Fit Center  761 is at   4.677163 -0.933636  0.454333
      ESP Fit Center  762 is at   4.411907 -1.923585  0.454333
      ESP Fit Center  763 is at   5.284127 -0.933636 -0.454052
      ESP Fit Center  764 is at   5.060481  0.118536 -0.454052
      ESP Fit Center  765 is at   4.428213 -2.856050 -0.454052
      ESP Fit Center  766 is at   5.060481 -1.985808 -0.454052
      ESP Fit Center  767 is at   5.497264 -0.933636 -1.525566
      ESP Fit Center  768 is at   5.308186  0.077841 -1.525566
      ESP Fit Center  769 is at   4.766489  0.952712 -1.525566
      ESP Fit Center  770 is at   3.945331  1.572821 -1.525566
      ESP Fit Center  771 is at   2.955615  1.854420 -1.525566
      ESP Fit Center  772 is at   4.766489 -2.819984 -1.525566
      ESP Fit Center  773 is at   5.308186 -1.945113 -1.525566
      ESP Fit Center  774 is at   5.284127 -0.933636 -2.597080
      ESP Fit Center  775 is at   5.060481  0.118536 -2.597080
      ESP Fit Center  776 is at   4.428213  0.988778 -2.597080
      ESP Fit Center  777 is at   3.496649  1.526617 -2.597080
      ESP Fit Center  778 is at   2.426863  1.639056 -2.597080
      ESP Fit Center  779 is at   0.604448  0.586884 -2.597080
      ESP Fit Center  780 is at   0.166930 -0.395797 -2.597080
      ESP Fit Center  781 is at   5.060481 -1.985808 -2.597080
      ESP Fit Center  782 is at   4.677163 -0.933636 -3.505465
      ESP Fit Center  783 is at   4.411907  0.056313 -3.505465
      ESP Fit Center  784 is at   3.687213  0.781007 -3.505465
      ESP Fit Center  785 is at   2.697264  1.046263 -3.505465
      ESP Fit Center  786 is at   1.707315  0.781007 -3.505465
      ESP Fit Center  787 is at   0.982621  0.056313 -3.505465
      ESP Fit Center  788 is at   4.411907 -1.923585 -3.505465
      ESP Fit Center  789 is at   3.793561 -3.443441 -0.746814
      ESP Fit Center  790 is at   1.997411 -2.890381  1.569808
      ESP Fit Center  791 is at   2.957411 -2.890381  1.312577
      ESP Fit Center  792 is at   1.037411 -2.890381  1.312577
      ESP Fit Center  793 is at   1.517411 -3.721765  1.312577
      ESP Fit Center  794 is at   2.477411 -3.721765  1.312577
      ESP Fit Center  795 is at   3.660180 -2.890381  0.609808
      ESP Fit Center  796 is at   0.652203 -3.867732  0.609808
      ESP Fit Center  797 is at   1.483587 -4.471768  0.609808
      ESP Fit Center  798 is at   2.511235 -4.471768  0.609808
      ESP Fit Center  799 is at   3.342619 -3.867732  0.609808
      ESP Fit Center  800 is at   2.957411 -4.553150 -0.350192
      ESP Fit Center  801 is at   3.660180 -3.850381 -0.350192
      ESP Fit Center  802 is at  -1.014532 -2.147992 -0.229980
      ESP Fit Center  803 is at  -0.696971 -3.125343 -0.229980
      ESP Fit Center  804 is at  -1.271763 -2.147992 -1.189980
      ESP Fit Center  805 is at  -1.014532 -3.107992 -1.189980
      ESP Fit Center  806 is at  -0.311763 -3.810761 -1.189980
      ESP Fit Center  807 is at  -0.696971 -1.170641 -2.149980
      ESP Fit Center  808 is at  -1.014532 -2.147992 -2.149980
      ESP Fit Center  809 is at   3.450745 -4.458195 -0.912895
      ESP Fit Center  810 is at   0.497742 -4.387430 -0.412671
      ESP Fit Center  811 is at   0.977742 -5.218814 -0.412671
      ESP Fit Center  812 is at   1.937742 -5.218814 -0.412671
      ESP Fit Center  813 is at  -0.205027 -4.387430 -1.115440
      ESP Fit Center  814 is at   0.112534 -5.364781 -1.115440
      ESP Fit Center  815 is at   0.943918 -5.968817 -1.115440
      ESP Fit Center  816 is at   1.971566 -5.968817 -1.115440
      ESP Fit Center  817 is at   2.802950 -5.364781 -1.115440
      ESP Fit Center  818 is at  -0.205027 -5.347430 -2.075440
      ESP Fit Center  819 is at   0.497742 -6.050199 -2.075440
      ESP Fit Center  820 is at   1.457742 -6.307430 -2.075440
      ESP Fit Center  821 is at   2.417742 -6.050199 -2.075440
      ESP Fit Center  822 is at   0.943918 -5.968817 -3.035440
      ESP Fit Center  823 is at   1.971566 -5.968817 -3.035440
      ESP Fit Center  824 is at   3.883242 -3.619211 -0.942342
      ESP Fit Center  825 is at   4.586011 -3.619211 -1.645111
      ESP Fit Center  826 is at   3.437066 -5.200598 -1.645111
      ESP Fit Center  827 is at   4.268450 -4.596562 -1.645111
      ESP Fit Center  828 is at   4.843242 -3.619211 -2.605111
      ESP Fit Center  829 is at   3.883242 -5.281980 -2.605111
      ESP Fit Center  830 is at   4.586011 -4.579211 -2.605111
      ESP Fit Center  831 is at   3.437066 -5.200598 -3.565111
      ESP Fit Center  832 is at  -0.976227 -3.083157 -1.990210
      ESP Fit Center  833 is at  -0.710971 -4.073106 -1.990210
      ESP Fit Center  834 is at  -0.289759 -0.842868 -2.898595
      ESP Fit Center  835 is at  -1.089144 -1.562637 -2.898595
      ESP Fit Center  836 is at  -1.526662 -2.545318 -2.898595
      ESP Fit Center  837 is at  -1.526662 -3.620996 -2.898595
      ESP Fit Center  838 is at  -1.089144 -4.603677 -2.898595
      ESP Fit Center  839 is at  -0.289759 -5.323446 -2.898595
      ESP Fit Center  840 is at   0.237416 -0.390045 -3.970109
      ESP Fit Center  841 is at  -0.683705 -0.848709 -3.970109
      ESP Fit Center  842 is at  -1.376936 -1.609147 -3.970109
      ESP Fit Center  843 is at  -1.748653 -2.568658 -3.970109
      ESP Fit Center  844 is at  -1.748653 -3.597656 -3.970109
      ESP Fit Center  845 is at  -1.376936 -4.557167 -3.970109
      ESP Fit Center  846 is at  -0.683705 -5.317605 -3.970109
      ESP Fit Center  847 is at   0.237416 -5.776269 -3.970109
      ESP Fit Center  848 is at   1.262023 -5.871213 -3.970109
      ESP Fit Center  849 is at   2.251739 -5.589614 -3.970109
      ESP Fit Center  850 is at  -0.289759 -0.842868 -5.041623
      ESP Fit Center  851 is at  -1.089144 -1.562637 -5.041623
      ESP Fit Center  852 is at  -1.526662 -2.545318 -5.041623
      ESP Fit Center  853 is at  -1.526662 -3.620996 -5.041623
      ESP Fit Center  854 is at  -1.089144 -4.603677 -5.041623
      ESP Fit Center  855 is at  -0.289759 -5.323446 -5.041623
      ESP Fit Center  856 is at   0.733271 -5.655849 -5.041623
      ESP Fit Center  857 is at  -0.710971 -2.093208 -5.950008
      ESP Fit Center  858 is at  -0.976227 -3.083157 -5.950008
      ESP Fit Center  859 is at  -0.710971 -4.073106 -5.950008
      ESP Fit Center  860 is at   0.013723 -4.797800 -5.950008
      ESP Fit Center  861 is at  -0.067842 -3.083157 -6.556972
      ESP Fit Center  862 is at   3.033220 -0.502449 -6.457515
      ESP Fit Center  863 is at   4.654087 -1.462261 -4.343624
      ESP Fit Center  864 is at   4.396856 -0.502261 -4.343624
      ESP Fit Center  865 is at   3.694087  0.200508 -4.343624
      ESP Fit Center  866 is at   2.734087  0.457739 -4.343624
      ESP Fit Center  867 is at   1.774087  0.200508 -4.343624
      ESP Fit Center  868 is at   4.079295 -0.484910 -5.303624
      ESP Fit Center  869 is at   3.247911  0.119126 -5.303624
      ESP Fit Center  870 is at   1.690586  0.244492 -5.716033
      ESP Fit Center  871 is at   0.730586 -0.012739 -5.716033
      ESP Fit Center  872 is at   0.027817 -0.715508 -5.716033
      ESP Fit Center  873 is at   3.035794 -0.698157 -6.676033
      ESP Fit Center  874 is at   2.204410 -0.094121 -6.676033
      ESP Fit Center  875 is at   1.176762 -0.094121 -6.676033
      ESP Fit Center  876 is at   0.345378 -0.698157 -6.676033
      ESP Fit Center  877 is at   0.027817 -1.675508 -6.676033
      ESP Fit Center  878 is at   0.345378 -2.652859 -6.676033
      ESP Fit Center  879 is at   4.893711 -2.084024 -4.116732
      ESP Fit Center  880 is at   5.423298 -4.113693 -6.147158
      ESP Fit Center  881 is at   5.789746 -2.476530 -5.016466
      ESP Fit Center  882 is at   5.472185 -1.499179 -5.016466
      ESP Fit Center  883 is at   4.640801 -0.895143 -5.016466
      ESP Fit Center  884 is at   6.046977 -2.476530 -5.976466
      ESP Fit Center  885 is at   5.789746 -1.516530 -5.976466
      ESP Fit Center  886 is at   5.086977 -0.813761 -5.976466
      ESP Fit Center  887 is at   4.126977 -0.556530 -5.976466
      ESP Fit Center  888 is at   5.789746 -3.436530 -5.976466
      ESP Fit Center  889 is at   5.789746 -2.476530 -6.936466
      ESP Fit Center  890 is at   5.472185 -1.499179 -6.936466
      ESP Fit Center  891 is at   4.640801 -0.895143 -6.936466
      ESP Fit Center  892 is at   3.613153 -0.895143 -6.936466
      ESP Fit Center  893 is at   5.472185 -3.453881 -6.936466
      ESP Fit Center  894 is at   5.406350 -3.774324 -3.924095
      ESP Fit Center  895 is at   5.088789 -2.796973 -3.924095
      ESP Fit Center  896 is at   3.229757 -5.355711 -3.924095
      ESP Fit Center  897 is at   4.257405 -5.355711 -3.924095
      ESP Fit Center  898 is at   5.088789 -4.751675 -3.924095
      ESP Fit Center  899 is at   5.663581 -3.774324 -4.884095
      ESP Fit Center  900 is at   4.703581 -5.437093 -4.884095
      ESP Fit Center  901 is at   5.406350 -4.734324 -4.884095
      ESP Fit Center  902 is at   1.752987 -5.859361 -5.003308
      ESP Fit Center  903 is at   2.742936 -6.124617 -5.003308
      ESP Fit Center  904 is at   3.732885 -5.859361 -5.003308
      ESP Fit Center  905 is at   0.650120 -5.665238 -5.911693
      ESP Fit Center  906 is at   1.449505 -6.385007 -5.911693
      ESP Fit Center  907 is at   2.472535 -6.717410 -5.911693
      ESP Fit Center  908 is at   3.542321 -6.604971 -5.911693
      ESP Fit Center  909 is at   4.473885 -6.067132 -5.911693
      ESP Fit Center  910 is at   5.106153 -5.196890 -5.911693
      ESP Fit Center  911 is at   5.542936 -4.144718 -6.983207
      ESP Fit Center  912 is at   0.362328 -2.670708 -6.983207
      ESP Fit Center  913 is at  -0.009389 -3.630219 -6.983207
      ESP Fit Center  914 is at  -0.009389 -4.659217 -6.983207
      ESP Fit Center  915 is at   0.362328 -5.618728 -6.983207
      ESP Fit Center  916 is at   1.055559 -6.379166 -6.983207
      ESP Fit Center  917 is at   1.976680 -6.837830 -6.983207
      ESP Fit Center  918 is at   3.001287 -6.932774 -6.983207
      ESP Fit Center  919 is at   3.991003 -6.651175 -6.983207
      ESP Fit Center  920 is at   4.812161 -6.031066 -6.983207
      ESP Fit Center  921 is at   5.353858 -5.156195 -6.983207
      ESP Fit Center  922 is at   5.329799 -4.144718 -8.054721
      ESP Fit Center  923 is at   0.212602 -4.682557 -8.054721
      ESP Fit Center  924 is at   0.650120 -5.665238 -8.054721
      ESP Fit Center  925 is at   1.449505 -6.385007 -8.054721
      ESP Fit Center  926 is at   2.472535 -6.717410 -8.054721
      ESP Fit Center  927 is at   3.542321 -6.604971 -8.054721
      ESP Fit Center  928 is at   4.473885 -6.067132 -8.054721
      ESP Fit Center  929 is at   5.106153 -5.196890 -8.054721
      ESP Fit Center  930 is at   4.722835 -4.144718 -8.963106
      ESP Fit Center  931 is at   2.742936 -6.124617 -8.963106
      ESP Fit Center  932 is at   3.226580 -0.661120 -7.813877
      ESP Fit Center  933 is at   3.226580 -0.661120 -8.881977
      ESP Fit Center  934 is at   2.438881 -1.084986 -9.844303
      ESP Fit Center  935 is at   2.530578 -0.559313 -7.150653
      ESP Fit Center  936 is at   0.353985 -2.140700 -7.150653
      ESP Fit Center  937 is at   2.976754 -0.477931 -8.110653
      ESP Fit Center  938 is at   2.016754 -0.220700 -8.110653
      ESP Fit Center  939 is at   1.056754 -0.477931 -8.110653
      ESP Fit Center  940 is at   0.353985 -1.180700 -8.110653
      ESP Fit Center  941 is at   0.096754 -2.140700 -8.110653
      ESP Fit Center  942 is at   2.530578 -0.559313 -9.070653
      ESP Fit Center  943 is at   1.502930 -0.559313 -9.070653
      ESP Fit Center  944 is at   0.671546 -1.163349 -9.070653
      ESP Fit Center  945 is at   0.353985 -2.140700 -9.070653
      ESP Fit Center  946 is at   5.356109 -2.510362 -7.504935
      ESP Fit Center  947 is at   5.038548 -1.533011 -7.504935
      ESP Fit Center  948 is at   4.207164 -0.928975 -7.504935
      ESP Fit Center  949 is at   5.613340 -2.510362 -8.464935
      ESP Fit Center  950 is at   5.356109 -1.550362 -8.464935
      ESP Fit Center  951 is at   4.653340 -0.847593 -8.464935
      ESP Fit Center  952 is at   3.693340 -0.590362 -8.464935
      ESP Fit Center  953 is at   5.356109 -3.470362 -8.464935
      ESP Fit Center  954 is at   5.356109 -2.510362 -9.424935
      ESP Fit Center  955 is at   5.038548 -1.533011 -9.424935
      ESP Fit Center  956 is at   4.207164 -0.928975 -9.424935
      ESP Fit Center  957 is at   5.038548 -3.487713 -9.424935
      ESP Fit Center  958 is at   4.653340 -2.510362-10.127704
      ESP Fit Center  959 is at   4.173340 -1.678978-10.127704
      ESP Fit Center  960 is at   1.754389 -5.912437 -9.105853
      ESP Fit Center  961 is at   0.166938 -2.616061-10.173953
      ESP Fit Center  962 is at   1.754389 -5.912437-10.173953
      ESP Fit Center  963 is at   1.754389 -4.533084-11.802228
      ESP Fit Center  964 is at  -0.062446 -3.080329 -8.583494
      ESP Fit Center  965 is at  -0.380007 -4.057680 -8.583494
      ESP Fit Center  966 is at  -0.062446 -5.035031 -8.583494
      ESP Fit Center  967 is at   0.768938 -5.639067 -8.583494
      ESP Fit Center  968 is at  -0.380007 -3.097680 -9.543494
      ESP Fit Center  969 is at  -0.637238 -4.057680 -9.543494
      ESP Fit Center  970 is at  -0.380007 -5.017680 -9.543494
      ESP Fit Center  971 is at   0.322762 -5.720449 -9.543494
      ESP Fit Center  972 is at   1.282762 -5.977680 -9.543494
      ESP Fit Center  973 is at  -0.062446 -3.080329-10.503494
      ESP Fit Center  974 is at  -0.380007 -4.057680-10.503494
      ESP Fit Center  975 is at  -0.062446 -5.035031-10.503494
      ESP Fit Center  976 is at   0.768938 -5.639067-10.503494
      ESP Fit Center  977 is at   0.322762 -4.057680-11.206263
      ESP Fit Center  978 is at   0.802762 -4.889064-11.206263
      ESP Fit Center  979 is at   3.919341 -1.954492-10.454578
      ESP Fit Center  980 is at   3.216572 -1.251723-10.454578
      ESP Fit Center  981 is at   2.256572 -0.994492-10.454578
      ESP Fit Center  982 is at   1.296572 -1.251723-10.454578
      ESP Fit Center  983 is at   0.593803 -1.954492-10.454578
      ESP Fit Center  984 is at   3.919341 -2.914492-11.414578
      ESP Fit Center  985 is at   3.601780 -1.937141-11.414578
      ESP Fit Center  986 is at   2.770396 -1.333105-11.414578
      ESP Fit Center  987 is at   1.742748 -1.333105-11.414578
      ESP Fit Center  988 is at   0.911364 -1.937141-11.414578
      ESP Fit Center  989 is at   0.593803 -2.914492-11.414578
      ESP Fit Center  990 is at   3.216572 -2.914492-12.117347
      ESP Fit Center  991 is at   2.736572 -2.083108-12.117347
      ESP Fit Center  992 is at   1.776572 -2.083108-12.117347
      ESP Fit Center  993 is at   1.296572 -2.914492-12.117347
      ESP Fit Center  994 is at   1.776572 -3.745876-12.117347
      ESP Fit Center  995 is at   2.736572 -3.745876-12.117347
      ESP Fit Center  996 is at   2.256572 -2.914492-12.374578
      ESP Fit Center  997 is at   3.475160 -6.008835 -8.946286
      ESP Fit Center  998 is at   4.306544 -5.404799 -8.946286
      ESP Fit Center  999 is at   4.881336 -4.427448 -9.906286
      ESP Fit Center 1000 is at   2.001336 -6.090217 -9.906286
      ESP Fit Center 1001 is at   2.961336 -6.347448 -9.906286
      ESP Fit Center 1002 is at   3.921336 -6.090217 -9.906286
      ESP Fit Center 1003 is at   4.624105 -5.387448 -9.906286
      ESP Fit Center 1004 is at   4.624105 -4.427448-10.866286
      ESP Fit Center 1005 is at   2.447512 -6.008835-10.866286
      ESP Fit Center 1006 is at   3.475160 -6.008835-10.866286
      ESP Fit Center 1007 is at   4.306544 -5.404799-10.866286
      ESP Fit Center 1008 is at   3.921336 -4.427448-11.569055
      ESP Fit Center 1009 is at   2.481336 -5.258832-11.569055
      ESP Fit Center 1010 is at   3.441336 -5.258832-11.569055
      ESP Fit Center 1011 is at   2.961336 -4.427448-11.826286
      ESP Fit Center 1012 is at  -1.991686  7.846417  7.521727
      ESP Fit Center 1013 is at  -2.970232  7.399529  7.521727
      ESP Fit Center 1014 is at  -3.551833  6.494542  7.521727
      ESP Fit Center 1015 is at  -2.970232  4.513793  7.521727
      ESP Fit Center 1016 is at   0.527464  7.038973  6.645784
      ESP Fit Center 1017 is at  -0.164700  7.906920  6.645784
      ESP Fit Center 1018 is at  -3.275260  7.906920  6.645784
      ESP Fit Center 1019 is at  -3.629168  7.865849  5.612539
      ESP Fit Center 1020 is at  -3.859262  5.729674  7.525232
      ESP Fit Center 1021 is at  -3.319262  4.794367  7.525232
      ESP Fit Center 1022 is at  -4.004254  7.143390  6.734617
      ESP Fit Center 1023 is at  -4.574104  6.256687  6.734617
      ESP Fit Center 1024 is at  -4.574104  5.202661  6.734617
      ESP Fit Center 1025 is at  -4.004254  4.315958  6.734617
      ESP Fit Center 1026 is at  -3.045478  3.878099  6.734617
      ESP Fit Center 1027 is at  -4.396045  7.162019  5.654617
      ESP Fit Center 1028 is at  -4.876496  6.246596  5.654617
      ESP Fit Center 1029 is at  -4.876496  5.212752  5.654617
      ESP Fit Center 1030 is at  -4.396045  4.297329  5.654617
      ESP Fit Center 1031 is at  -3.545209  3.710039  5.654617
      ESP Fit Center 1032 is at  -4.004254  7.143390  4.574617
      ESP Fit Center 1033 is at  -4.574104  6.256687  4.574617
      ESP Fit Center 1034 is at  -4.574104  5.202661  4.574617
      ESP Fit Center 1035 is at  -4.004254  4.315958  4.574617
      ESP Fit Center 1036 is at  -1.301221  5.839114  8.767169
      ESP Fit Center 1037 is at  -0.221221  5.839114  8.477784
      ESP Fit Center 1038 is at  -0.761221  6.774421  8.477784
      ESP Fit Center 1039 is at  -1.841221  6.774421  8.477784
      ESP Fit Center 1040 is at  -2.381221  5.839114  8.477784
      ESP Fit Center 1041 is at  -1.841221  4.903807  8.477784
      ESP Fit Center 1042 is at  -0.761221  4.903807  8.477784
      ESP Fit Center 1043 is at   0.569394  5.839114  7.687169
      ESP Fit Center 1044 is at   0.272440  6.850445  7.687169
      ESP Fit Center 1045 is at  -0.524139  7.540685  7.687169
      ESP Fit Center 1046 is at  -1.567437  7.690689  7.687169
      ESP Fit Center 1047 is at  -2.526213  4.425398  7.687169
      ESP Fit Center 1048 is at  -1.567437  3.987539  7.687169
[...]
 1294 Fit      -0.006027
 1295 Fit      -0.008370
 1296 Fit      -0.011649
 1297 Fit      -0.015805
 1298 Fit      -0.021460
 1299 Fit       0.006133
 1300 Fit       0.007737
 1301 Fit       0.008105
 1302 Fit       0.001783
 1303 Fit       0.006268
 1304 Fit       0.007751
 1305 Fit       0.001672
 1306 Fit       0.005749
 1307 Fit       0.007903
 1308 Fit       0.007715
 1309 Fit       0.005645
 1310 Fit       0.007554
 1311 Fit       0.003077
 1312 Fit      -0.002651
 1313 Fit       0.001043
 1314 Fit      -0.001810
 1315 Fit       0.000154
 1316 Fit       0.006730
 1317 Fit       0.005378
 1318 Fit      -0.006279
 1319 Fit       0.008086
 1320 Fit       0.008779
 1321 Fit       0.004665
 1322 Fit       0.005343
 1323 Fit       0.005788
 1324 Fit       0.005909
 1325 Fit      -0.000172
 1326 Fit       0.000854
 1327 Fit       0.001656
 1328 Fit       0.002672
 1329 Fit      -0.008209
 1330 Fit      -0.004654
 1331 Fit      -0.000892
 1332 Fit       0.005202
 1333 Fit       0.004445
 1334 Fit       0.003752
 1335 Fit       0.005284
 1336 Fit       0.006525
 1337 Fit       0.000880
 1338 Fit      -0.013177
 1339 Fit      -0.011276
 1340 Fit      -0.008745
 1341 Fit      -0.005694
 1342 Fit      -0.021929
 1343 Fit      -0.020137
 1344 Fit      -0.018906
 1345 Fit      -0.017694
 1346 Fit      -0.016586
 1347 Fit      -0.016000
 1348 Fit      -0.015556
 1349 Fit      -0.014158
 1350 Fit      -0.010993
 1351 Fit      -0.014477
 1352 Fit      -0.017032
 1353 Fit      -0.018989
 1354 Fit      -0.020045
 1355 Fit      -0.020724
 1356 Fit      -0.021842
 1357 Fit      -0.023851
 1358 Fit      -0.026235
 1359 Fit      -0.027411
 1360 Fit      -0.024782
 1361 Fit      -0.012226
 1362 Fit      -0.016718
 1363 Fit      -0.020455
 1364 Fit      -0.024752
 1365 Fit      -0.030239
 1366 Fit      -0.036430
 1367 Fit      -0.009999
 1368 Fit      -0.018544
 1369 Fit      -0.028130
 1370 Fit       0.008150
 1371 Fit       0.004657
 1372 Fit      -0.000101
 1373 Fit      -0.003465
 1374 Fit      -0.007407
 1375 Fit      -0.011507
 1376 Fit       0.003124
 1377 Fit       0.001289
 1378 Fit      -0.000323
 1379 Fit      -0.003090
 1380 Fit       0.008301
 1381 Fit       0.006805
 1382 Fit       0.005032
 1383 Fit       0.001536
 1384 Fit      -0.005076
 1385 Fit       0.000481
 1386 Fit       0.002957
 1387 Fit      -0.002773
 1388 Fit       0.003273
 1389 Fit       0.004202
 1390 Fit       0.004934
 1391 Fit       0.003998
 1392 Fit       0.006472
 1393 Fit       0.007620
 1394 Fit       0.008219
 1395 Fit      -0.000428
 1396 Fit       0.005017
 1397 Fit       0.008814
 1398 Fit       0.010280
 1399 Fit       0.011079
 1400 Fit       0.004344
 1401 Fit       0.003142
 1402 Fit       0.000663
 1403 Fit       0.003698
 1404 Fit       0.004700
 1405 Fit       0.001569
 1406 Fit      -0.003237
 1407 Fit      -0.000540
 1408 Fit      -0.013229
 1409 Fit      -0.034637
 1410 Fit      -0.024877
 1411 Fit      -0.018790
 1412 Fit      -0.015007
 1413 Fit      -0.011507
 1414 Fit      -0.007910
 1415 Fit      -0.035699
 1416 Fit      -0.031845
 1417 Fit      -0.026940
 1418 Fit      -0.023345
 1419 Fit      -0.021612
 1420 Fit      -0.020807
 1421 Fit      -0.019155
 1422 Fit      -0.015072
 1423 Fit      -0.010680
 1424 Fit       0.000730
 1425 Fit      -0.012763
 1426 Fit      -0.021652
 1427 Fit      -0.025205
 1428 Fit      -0.025056
 1429 Fit      -0.023445
 1430 Fit      -0.022345
 1431 Fit      -0.022490
 1432 Fit      -0.023082
 1433 Fit      -0.022331
 1434 Fit      -0.018479
 1435 Fit      -0.008718
 1436 Fit      -0.016242
 1437 Fit      -0.017407
 1438 Fit      -0.018186
 1439 Fit      -0.019207
 1440 Fit      -0.019186
 1441 Fit      -0.016132
 1442 Fit       0.010291
 1443 Fit       0.006977
 1444 Fit       0.008040
 1445 Fit       0.007872
 1446 Fit       0.006187
 1447 Fit       0.002301
 1448 Fit      -0.003726
 1449 Fit       0.007027
 1450 Fit       0.006089
 1451 Fit       0.003676
 1452 Fit       0.011109
 1453 Fit       0.004613
 1454 Fit       0.007696
 1455 Fit       0.008323
 1456 Fit       0.007798
 1457 Fit      -0.002434
 1458 Fit       0.004629
 1459 Fit       0.006775
 1460 Fit       0.007199
 1461 Fit       0.000776
 1462 Fit       0.004697
 1463 Fit       0.006657
 1464 Fit       0.003303
 1465 Fit       0.003958
 1466 Fit       0.000315
 1467 Fit      -0.004918
 1468 Fit       0.000722
 1469 Fit      -0.001137
 1470 Fit      -0.002305
 1471 Fit      -0.002486
 1472 Fit      -0.001180
 1473 Fit      -0.000663
 1474 Fit      -0.007067
 1475 Fit      -0.010692
 1476 Fit      -0.014304
 1477 Fit      -0.000294
 1478 Fit      -0.002102
 1479 Fit      -0.003522
 1480 Fit      -0.005359
 1481 Fit      -0.007710
 1482 Fit      -0.000626
 1483 Fit      -0.001336
 1484 Fit      -0.002756
 1485 Fit      -0.004523
 1486 Fit      -0.000965
 1487 Fit      -0.002092
 1488 Fit       0.007172
 1489 Fit       0.007097
 1490 Fit       0.006081
 1491 Fit       0.003685
 1492 Fit       0.002212
 1493 Fit       0.004812
 1494 Fit       0.006152
 1495 Fit       0.005983
 1496 Fit       0.004349
 1497 Fit       0.001803
 1498 Fit       0.002647
 1499 Fit       0.004795
 1500 Fit       0.004432
 1501 Fit       0.002063
 1502 Fit       0.000262
 1503 Fit       0.000498
 1504 Fit       0.002817
 1505 Fit      -0.002061
 1506 Fit      -0.007913
 1507 Fit      -0.007002
 1508 Fit      -0.005926
 1509 Fit      -0.004530
 1510 Fit       0.000229
 1511 Fit      -0.003093
 1512 Fit      -0.001744
 1513 Fit      -0.000669
 1514 Fit       0.000250
 1515 Fit      -0.001652
 1516 Fit      -0.000403
 1517 Fit       0.002139
 1518 Fit       0.001571
 1519 Fit       0.002093
 1520 Fit       0.003304
 1521 Fit       0.004775
 1522 Fit       0.003572
 1523 Fit       0.002331
 1524 Fit       0.001360
 1525 Fit       0.000434
 1526 Fit       0.000477
 1527 Fit       0.006230
 1528 Fit       0.008907
 1529 Fit       0.006195
 1530 Fit       0.003699
 1531 Fit      -0.001029
 1532 Fit      -0.010099
 1533 Fit       0.002921
 1534 Fit       0.000907
 1535 Fit       0.002265
 1536 Fit       0.003563
 1537 Fit       0.004628
 1538 Fit      -0.000774
 1539 Fit       0.000699
 1540 Fit       0.002239
 1541 Fit       0.003575
 1542 Fit       0.004929
 1543 Fit       0.007015
 1544 Fit      -0.003840
 1545 Fit      -0.002071
 1546 Fit      -0.000245
 1547 Fit       0.001398
 1548 Fit       0.003254
 1549 Fit      -0.007571
 1550 Fit      -0.005553
 1551 Fit       0.006274
 1552 Fit       0.007330
 1553 Fit       0.005711
 1554 Fit       0.004495
 1555 Fit       0.004727
 1556 Fit       0.006342
 1557 Fit       0.007737
 1558 Fit       0.007979
 1559 Fit       0.006162
 1560 Fit       0.004360
 1561 Fit       0.003022
 1562 Fit       0.005590
 1563 Fit       0.007775
 1564 Fit       0.009135
 1565 Fit       0.009138
 1566 Fit       0.008799
 1567 Fit       0.006330
 1568 Fit       0.010705
 1569 Fit       0.002347
 1570 Fit       0.001474
 1571 Fit       0.003619
 1572 Fit       0.002625
 1573 Fit       0.001939
 1574 Fit       0.000903
 1575 Fit      -0.000574
 1576 Fit       0.002481
 1577 Fit       0.001402
 1578 Fit       0.000600
 1579 Fit      -0.000710
 1580 Fit      -0.002752
 1581 Fit      -0.002278
 1582 Fit      -0.002843
 1583 Fit      -0.004421
 1584 Fit      -0.007795
 1585 Fit       0.011244
 1586 Fit       0.005718
 1587 Fit       0.011170
 1588 Fit       0.010566
 1589 Fit       0.009362
 1590 Fit       0.008104
 1591 Fit       0.010386
 1592 Fit       0.008984
 1593 Fit       0.007609
 1594 Fit       0.005867
 1595 Fit       0.010938
 1596 Fit       0.010012
 1597 Fit       0.008854
 1598 Fit       0.006828
 1599 Fit       0.004258
 1600 Fit       0.000936
 1601 Fit       0.010572
 1602 Fit       0.005093
 1603 Fit      -0.000272
 1604 Fit       0.009620
 1605 Fit       0.010665
 1606 Fit       0.009538
 1607 Fit       0.010621
 1608 Fit       0.010822
 1609 Fit       0.011023
 1610 Fit       0.008138
 1611 Fit       0.011053
 1612 Fit       0.012282
 1613 Fit       0.011811
 1614 Fit       0.011217
 1615 Fit       0.011928
 1616 Fit      -0.007545
 1617 Fit      -0.017257
 1618 Fit      -0.016660
 1619 Fit      -0.013384
 1620 Fit      -0.011682
 1621 Fit      -0.015501
 1622 Fit      -0.017232
 1623 Fit      -0.016354
 1624 Fit      -0.012142
 1625 Fit      -0.009859
 1626 Fit       0.001558
 1627 Fit      -0.003525
 1628 Fit       0.002979
 1629 Fit      -0.000883
 1630 Fit       0.011703
 1631 Fit       0.011568
 1632 Fit       0.009806
 1633 Fit       0.008410
 1634 Fit       0.010580
 1635 Fit       0.008207
 1636 Fit       0.006286
 1637 Fit       0.003583
 1638 Fit       0.005275
 1639 Fit       0.003866
 1640 Fit      -0.000203
 1641 Fit      -0.003027
 1642 Fit      -0.005567
 1643 Fit      -0.006536
 1644 Fit      -0.004632
 1645 Fit       0.000593
 1646 Fit       0.001524
 1647 Fit       0.000727
 1648 Fit      -0.000407
 1649 Fit      -0.000785
 1650 Fit       0.000242
 1651 Fit      -0.000918
 1652 Fit       0.001033
 1653 Fit       0.000786
 1654 Fit      -0.000310
 1655 Fit      -0.001182
 1656 Fit       0.009464
 1657 Fit       0.010077
 1658 Fit       0.010251
 1659 Fit       0.001206
 1660 Fit       0.011627
 1661 Fit       0.008958
 1662 Fit       0.010408
 1663 Fit       0.010884
 1664 Fit       0.010610
 1665 Fit       0.011442
 1666 Fit       0.007203
 1667 Fit       0.008173
 1668 Fit       0.000922
 1669 Fit       0.005793
 1670 Fit      -0.008085
 1671 Fit       0.000531
 1672 Fit       0.004989
 1673 Fit       0.007959
 1674 Fit      -0.002058
 1675 Fit       0.002692
 1676 Fit       0.006223
 1677 Fit       0.009615
 1678 Fit       0.001866
 1679 Fit       0.005110
 1680 Fit       0.002055
 1681 Fit      -0.006533
 1682 Fit      -0.003279
 1683 Fit       0.010358
 1684 Fit       0.010731
 1685 Fit       0.010139
 1686 Fit       0.002253
 1687 Fit       0.010134
 1688 Fit       0.009293
 1689 Fit       0.009515
 1690 Fit       0.009999
 1691 Fit       0.007121
 1692 Fit       0.008401
 1693 Fit       0.009241
 1694 Fit       0.010016
 1695 Fit       0.011448
 1696 Fit       0.003118
 1697 Fit       0.006638
 1698 Fit       0.008403
 1699 Fit       0.009631
 1700 Fit       0.007417
 1701 Fit       0.009198
 1702 Fit       0.011241
 1703 Fit       0.009297
 1704 Fit       0.007785
 1705 Fit       0.003728
 1706 Fit       0.009958
 1707 Fit       0.008761
 1708 Fit       0.006673
 1709 Fit       0.003634
 1710 Fit       0.001942
 1711 Fit       0.010069
 1712 Fit       0.008641
 1713 Fit       0.005755
 1714 Fit       0.000110
 1715 Fit       0.006373
 1716 Fit       0.007883
 1717 Fit       0.009157
 1718 Fit       0.005299
 1719 Fit      -0.000098
 1720 Fit      -0.007816
 1721 Fit      -0.002187
 1722 Fit      -0.001434
 1723 Fit       0.002796
 1724 Fit       0.001481
 1725 Fit       0.001998
 1726 Fit       0.003713
 1727 Fit       0.005239
 1728 Fit      -0.006257
 1729 Fit       0.000088
 1730 Fit       0.001905
 1731 Fit       0.001217
 1732 Fit      -0.004576
 1733 Fit      -0.011570
 1734 Fit      -0.002389
 1735 Fit       0.008224
 1736 Fit       0.002144
 1737 Fit       0.009502
 1738 Fit       0.006129
 1739 Fit       0.002430
 1740 Fit       0.009729
 1741 Fit       0.006886
 1742 Fit       0.003724
 1743 Fit       0.000184
 1744 Fit       0.006890
 1745 Fit       0.004329
 1746 Fit       0.000295
 1747 Fit      -0.005934
 1748 Fit       0.000784
 1749 Fit      -0.005607
 1750 Fit      -0.003183
 1751 Fit      -0.005008
 1752 Fit      -0.007389
 1753 Fit      -0.004826
 1754 Fit      -0.007670
 1755 Fit       0.000371
 1756 Fit       0.007592
 1757 Fit       0.006278
 1758 Fit       0.007477
 1759 Fit       0.009232
 1760 Fit       0.009950
 1761 Fit       0.003320
 1762 Fit       0.007035
 1763 Fit       0.010577
 1764 Fit       0.009333
 1765 Fit       0.004863
 1766 Fit       0.002611
 1767 Fit      -0.000678
 1768 Fit       0.000229
 1769 Fit       0.001694
 1770 Fit       0.001285
 1771 Fit      -0.002720
 1772 Fit      -0.001048
 1773 Fit       0.009171
 1774 Fit       0.006474
 1775 Fit       0.010924
 1776 Fit       0.001526
 1777 Fit       0.007138
 1778 Fit       0.007221
 1779 Fit       0.008264
 1780 Fit       0.007217
 1781 Fit       0.004098
 1782 Fit       0.005735
 1783 Fit       0.007088
 1784 Fit       0.005647
 1785 Fit       0.002039
 1786 Fit       0.006717
 1787 Fit       0.006967
 1788 Fit       0.005527
 1789 Fit       0.007754
 1790 Fit       0.009880
 1791 Fit       0.006120
 1792 Fit       0.008558
 1793 Fit       0.010374
 1794 Fit       0.003754
 1795 Fit       0.007013
 1796 Fit       0.009019
 1797 Fit       0.010306
 1798 Fit       0.004970
 1799 Fit       0.007442
 1800 Fit       0.008810
 1801 Fit       0.005407
 1802 Fit       0.004412
 1803 Fit       0.000157
 1804 Fit      -0.004612
 1805 Fit      -0.003227
 1806 Fit      -0.006343
 1807 Fit      -0.008800
 1808 Fit      -0.003731
 1809 Fit      -0.001225
 1810 Fit      -0.007494
 1811 Fit      -0.010245
 1812 Fit      -0.010571
 1813 Fit      -0.007298
 1814 Fit      -0.002617
 1815 Fit       0.001780
 1816 Fit       0.004507
 1817 Fit      -0.007800
 1818 Fit      -0.011027
 1819 Fit      -0.009491
 1820 Fit      -0.007792
 1821 Fit      -0.004911
 1822 Fit      -0.002582
 1823 Fit      -0.001672
 1824 Fit      -0.002244
 1825 Fit      -0.008204
 1826 Fit      -0.005467
 1827 Fit      -0.006055
 1828 Fit      -0.005584
 1829 Fit      -0.005708
 1830 Fit      -0.006969
 1831 Fit      -0.009077
 1832 Fit      -0.012463
 1833 Fit      -0.001885
 1834 Fit      -0.004799
 1835 Fit      -0.007538
 1836 Fit      -0.010665
 1837 Fit      -0.003483
 1838 Fit       0.001913
 1839 Fit       0.005716
 1840 Fit       0.006759
 1841 Fit       0.007387
 1842 Fit       0.002094
 1843 Fit       0.005367
 1844 Fit       0.006622
 1845 Fit       0.003198
 1846 Fit       0.000495
 1847 Fit       0.004665
 1848 Fit       0.006424
 1849 Fit       0.006463
 1850 Fit       0.005159
 1851 Fit       0.007365
 1852 Fit       0.005734
 1853 Fit       0.002276
 1854 Fit      -0.003606
 1855 Fit      -0.000603
 1856 Fit       0.001757
 1857 Fit       0.007478
 1858 Fit       0.004780
 1859 Fit       0.002873
 1860 Fit      -0.000144
 1861 Fit       0.006982
 1862 Fit       0.007937
 1863 Fit       0.004175
 1864 Fit       0.004727
 1865 Fit       0.005150
 1866 Fit       0.005480
 1867 Fit       0.000631
 1868 Fit       0.001357
 1869 Fit       0.002001
 1870 Fit       0.002548
 1871 Fit       0.003347
 1872 Fit      -0.005128
 1873 Fit      -0.003636
 1874 Fit      -0.002118
 1875 Fit       0.003161
 1876 Fit      -0.000074
 1877 Fit       0.003959
 1878 Fit       0.003676
 1879 Fit       0.000727
 1880 Fit       0.004596
 1881 Fit      -0.006345
 1882 Fit      -0.005118
 1883 Fit      -0.002544
 1884 Fit      -0.011901
 1885 Fit      -0.011939
 1886 Fit      -0.011652
 1887 Fit      -0.010951
 1888 Fit      -0.010031
 1889 Fit      -0.008558
 1890 Fit      -0.015943
 1891 Fit      -0.014885
 1892 Fit      -0.014883
 1893 Fit      -0.015188
 1894 Fit      -0.015553
 1895 Fit      -0.015889
 1896 Fit      -0.016375
 1897 Fit      -0.017101
 1898 Fit      -0.017778
 1899 Fit      -0.017771
 1900 Fit      -0.016244
 1901 Fit      -0.012099
 1902 Fit      -0.009666
 1903 Fit      -0.012405
 1904 Fit      -0.014573
 1905 Fit      -0.016349
 1906 Fit      -0.018156
 1907 Fit      -0.020392
 1908 Fit      -0.023119
 1909 Fit      -0.025847
 1910 Fit      -0.027388
 1911 Fit      -0.008056
 1912 Fit      -0.012731
 1913 Fit      -0.016806
 1914 Fit      -0.021268
 1915 Fit      -0.026782
 1916 Fit      -0.007785
 1917 Fit      -0.015585
 1918 Fit      -0.024341
 1919 Fit      -0.010946
 1920 Fit      -0.000067
 1921 Fit       0.006042
 1922 Fit       0.003348
 1923 Fit       0.000357
 1924 Fit      -0.002312
 1925 Fit      -0.004852
 1926 Fit      -0.004313
 1927 Fit      -0.006842
 1928 Fit       0.003574
 1929 Fit       0.002172
 1930 Fit       0.000389
 1931 Fit      -0.002781
 1932 Fit       0.007058
 1933 Fit       0.005324
 1934 Fit       0.002169
 1935 Fit       0.001010
 1936 Fit       0.001876
 1937 Fit       0.002653
 1938 Fit       0.004115
 1939 Fit       0.004818
 1940 Fit       0.005222
 1941 Fit       0.003169
 1942 Fit       0.005766
 1943 Fit       0.007048
 1944 Fit       0.007671
 1945 Fit      -0.001772
 1946 Fit       0.004418
 1947 Fit       0.008137
 1948 Fit       0.003552
 1949 Fit       0.001099
 1950 Fit       0.003981
 1951 Fit       0.004432
 1952 Fit       0.001790
 1953 Fit      -0.003072
 1954 Fit      -0.000705
 1955 Fit       0.000864
 1956 Fit      -0.004371
 1957 Fit      -0.010128
 1958 Fit      -0.020847
 1959 Fit      -0.014858
 1960 Fit      -0.010752
 1961 Fit      -0.006883
 1962 Fit      -0.026752
 1963 Fit      -0.021960
 1964 Fit      -0.018617
 1965 Fit      -0.016523
 1966 Fit      -0.014874
 1967 Fit      -0.012635
 1968 Fit      -0.009082
 1969 Fit      -0.007176
 1970 Fit      -0.020284
 1971 Fit      -0.024841
 1972 Fit      -0.025419
 1973 Fit      -0.023830
 1974 Fit      -0.021650
 1975 Fit      -0.019894
 1976 Fit      -0.018932
 1977 Fit      -0.018501
 1978 Fit      -0.017864
 1979 Fit      -0.016143
 1980 Fit      -0.012671
 1981 Fit      -0.007584
 1982 Fit      -0.015444
 1983 Fit      -0.017700
 1984 Fit      -0.018205
 1985 Fit      -0.017865
 1986 Fit      -0.017652
 1987 Fit      -0.017839
 1988 Fit      -0.017878
 1989 Fit      -0.016744
 1990 Fit      -0.013470
 1991 Fit      -0.005157
 1992 Fit      -0.013223
 1993 Fit      -0.013616
 1994 Fit      -0.013720
 1995 Fit      -0.013078
 1996 Fit      -0.010547
 1997 Fit       0.006498
 1998 Fit       0.006381
 1999 Fit       0.006391
 2000 Fit       0.007745
 2001 Fit       0.007422
 2002 Fit       0.006158
 2003 Fit       0.002771
 2004 Fit      -0.003276
 2005 Fit       0.006604
 2006 Fit       0.006284
 2007 Fit       0.005259
 2008 Fit       0.003029
 2009 Fit      -0.000285
 2010 Fit       0.006172
 2011 Fit       0.005087
 2012 Fit       0.003835
 2013 Fit       0.007132
 2014 Fit       0.008019
 2015 Fit       0.007827
 2016 Fit       0.003426
 2017 Fit       0.005823
 2018 Fit       0.006656
 2019 Fit       0.006637
 2020 Fit      -0.001114
 2021 Fit       0.003665
 2022 Fit       0.005464
 2023 Fit       0.006164
 2024 Fit       0.000986
 2025 Fit       0.000728
 2026 Fit       0.000736
 2027 Fit       0.003547
 2028 Fit       0.000707
 2029 Fit      -0.007028
 2030 Fit       0.000873
 2031 Fit       0.002886
 2032 Fit      -0.000368
 2033 Fit      -0.003659
 2034 Fit       0.000740
 2035 Fit      -0.001054
 2036 Fit      -0.002029
 2037 Fit      -0.002165
 2038 Fit      -0.000904
 2039 Fit      -0.000518
 2040 Fit      -0.003276
 2041 Fit      -0.005590
 2042 Fit      -0.007548
 2043 Fit      -0.009696
 2044 Fit      -0.012048
 2045 Fit      -0.001162
 2046 Fit      -0.002299
 2047 Fit      -0.003474
 2048 Fit      -0.004952
 2049 Fit      -0.006554
 2050 Fit      -0.000810
 2051 Fit      -0.001623
 2052 Fit      -0.002741
 2053 Fit       0.004600
 2054 Fit       0.005686
 2055 Fit       0.005878
 2056 Fit       0.005298
 2057 Fit       0.003825
 2058 Fit       0.001691
 2059 Fit       0.001983
 2060 Fit       0.003894
 2061 Fit       0.004913
 2062 Fit       0.004771
 2063 Fit       0.003533
 2064 Fit       0.001636
 2065 Fit       0.002186
 2066 Fit       0.003707
 2067 Fit       0.003406
 2068 Fit       0.001665
 2069 Fit       0.000326
 2070 Fit       0.000570
 2071 Fit       0.002182
 2072 Fit      -0.005081
 2073 Fit      -0.011374
 2074 Fit      -0.011087
 2075 Fit      -0.010437
 2076 Fit      -0.008787
 2077 Fit      -0.001057
 2078 Fit      -0.005782
 2079 Fit      -0.004940
 2080 Fit      -0.003962
 2081 Fit      -0.002782
 2082 Fit       0.000036
 2083 Fit      -0.002752
 2084 Fit      -0.001777
 2085 Fit      -0.000849
 2086 Fit       0.000028
 2087 Fit      -0.000743
 Job cpu time:       0 days  0 hours  4 minutes 49.7 seconds.
 Normal termination of Gaussian 16 at Sat Jul  8 22:21:47 2023.
