 Copyright (c) 1988-2019, Gaussian, Inc.  All Rights Reserved.
  
 This is part of the Gaussian(R) 16 program.  It is based on
 the Gaussian(R) 09 system (copyright 2009, Gaussian, Inc.),
 the Gaussian(R) 03 system (copyright 2003, Gaussian, Inc.),
 the Gaussian(R) 98 system (copyright 1998, Gaussian, Inc.),
 the Gaussian(R) 94 system (copyright 1995, Gaussian, Inc.),
 the Gaussian 92(TM) system (copyright 1992, Gaussian, Inc.),
 the Gaussian 90(TM) system (copyright 1990, Gaussian, Inc.),
 the Gaussian 88(TM) system (copyright 1988, Gaussian, Inc.),
 the Gaussian 86(TM) system (copyright 1986, Carnegie Mellon
 University), and the Gaussian 82(TM) system (copyright 1983,
 Carnegie Mellon University). Gaussian is a federally registered
 trademark of Gaussian, Inc.
 Cite this work as:
 Gaussian 16, Revision C.01,
 M. J. Frisch, G. W. Trucks, H. B. Schlegel, G. E. Scuseria, 
 M. A. Robb, J. R. Cheeseman, G. Scalmani, V. Barone, 
 G. A. Petersson, H. Nakatsuji, X. Li, M. Caricato, A. V. Marenich, 
 J. Bloino, B. G. Janesko, R. Gomperts, B. Mennucci, H. P. Hratchian, 
 J. V. Ortiz, A. F. Izmaylov, J. L. Sonnenberg, D. Williams-Young, 
 F. Ding, F. Lipparini, F. Egidi, J. Goings, B. Peng, A. Petrone, 
 T. Henderson, D. Ranasinghe, V. G. Zakrzewski, J. Gao, N. Rega, 
 G. Zheng, W. Liang, M. Hada, M. Ehara, K. Toyota, R. Fukuda, 
 J. Hasegawa, M. Ishida, T. Nakajima, Y. Honda, O. Kitao, H. Nakai, 
 T. Vreven, K. Throssell, J. A. Montgomery, Jr., J. E. Peralta, 
 F. Ogliaro, M. J. Bearpark, J. J. Heyd, E. N. Brothers, K. N. Kudin, 
 V. N. Staroverov, T. A. Keith, R. Kobayashi, J. Normand, 
 K. Raghavachari, A. P. Rendell, J. C. Burant, S. S. Iyengar, 
 J. Tomasi, M. Cossi, J. M. Millam, M. Klene, C. Adamo, R. Cammi, 
 J. W. Ochterski, R. L. Martin, K. Morokuma, O. Farkas, 
 J. B. Foresman, and D. J. Fox, Gaussian, Inc., Wallingford CT, 2019.
 
 ******************************************
 Gaussian 16:  EM64L-G16RevC.01  3-Jul-2019
                 8-Jul-2023 
 ******************************************
 ----------------------------------------------------------------------
 #P HF/6-31G(d) SCF(Conver=8,XQC,MaxConventionalCycles=64,MaxCycle=128)
  NoSymm Test Pop=mk IOp(6/33=2) GFInput GFPrint
 ----------------------------------------------------------------------
 1/38=1,172=1/1;
 2/12=2,15=1,17=6,18=5,40=1/2;
 3/5=1,6=6,7=1,11=9,24=110,25=1,30=1/1,2,3;
 4//1;
 5/5=2,6=8,7=128,8=3,13=1,38=5,85=64/2,8;
 6/7=2,8=2,9=2,10=2,15=8,20=1,28=1,33=2/1,2;
 99/5=1,9=1/99;
 -------------------------------------------------
 MEP step - Input generated by PyRED DVE-DMDS-OPLS
 -------------------------------------------------
 Symbolic Z-matrix:
 Charge =  0 Multiplicity = 1
 C                    -7.4936    7.50401  -0.00007 
 H                    -8.56514   7.67791  -0.00009 
 H                    -7.06744   7.97468   0.87869 
 H                    -7.06742   7.97466  -0.87884 
 C                    -7.19688   6.01742  -0.00006 
 H                    -7.63297   5.54144   0.87734 
 H                    -7.63295   5.54142  -0.87745 
 O                    -5.81025   5.83999  -0.00004 
 C                    -5.39231   4.51044  -0.00003 
 H                    -5.76037   3.98506  -0.87896 
 H                    -5.76038   3.98506   0.87889 
 C                    -3.87796   4.50529  -0.00002 
 H                    -3.50885   5.02857  -0.87904 
 H                    -3.50887   5.02858   0.87901 
 O                    -3.45733   3.17411  -0.00001 
 C                    -2.07374   2.99823  -0.00001 
 H                    -1.6236    3.45389   0.87902 
 H                    -1.6236    3.45389  -0.87904 
 C                    -1.80151   1.50859  0. 
 H                    -2.2511    1.05287  -0.87919 
 H                    -2.25111   1.05287   0.87919 
 O                    -0.41614   1.33178   0. 
 C                     0.        0.        0. 
 H                    -0.37954  -0.51654  -0.87904 
 H                    -0.37954  -0.51654   0.87904 
 C                     1.52011   0.        0. 
 H                     1.8775    0.52226   0.87839 
 H                     1.8775    0.52225  -0.8784 
 S                     2.1489   -1.7047    0.00002 
 C                     3.93662  -1.37126  -0.00001 
 H                     4.19101  -0.79106  -0.87812 
 H                     4.19102  -0.79102   0.87808 
 C                     4.70278  -2.69078   0.00001 
 H                     4.4478   -3.27077  -0.87816 
 H                     4.44782  -3.27073   0.87823 
 S                     6.49063  -2.35668  -0.00002 
 C                     7.1253   -4.0614    0.00002 
 H                     6.75914  -4.57844  -0.87812 
 H                     6.75917  -4.5784    0.87821 
 C                     8.65111  -4.03969  -0.00001 
 H                     9.01625  -3.52104  -0.87797 
 H                     9.01628  -3.52099   0.87792 
 S                     9.28666  -5.74303   0.00004 
 C                     11.07528  -5.41648  0. 
 H                     11.32598  -4.83094  -0.87678 
 H                     11.32601  -4.83089   0.87673 
 C                     11.85392  -6.72888   0.00003 
 H                     12.91993  -6.52629   0.00001 
 H                     11.62346  -7.32107   0.87862 
 H                     11.62343  -7.32113  -0.87852 
 
 ITRead=  0  0  0  0  0  0  0  0  0  0  0  0  0  0  0  0  0  0  0  0
 ITRead=  0  0  0  0  0  0  0  0  0  0  0  0  0  0  0  0  0  0  0  0
 ITRead=  0  0  0  0  0  0  0  0  0  0
 MicOpt= -1 -1 -1 -1 -1 -1 -1 -1 -1 -1 -1 -1 -1 -1 -1 -1 -1 -1 -1 -1
 MicOpt= -1 -1 -1 -1 -1 -1 -1 -1 -1 -1 -1 -1 -1 -1 -1 -1 -1 -1 -1 -1
 MicOpt= -1 -1 -1 -1 -1 -1 -1 -1 -1 -1
 NAtoms=     50 NQM=       50 NQMF=       0 NMMI=      0 NMMIF=      0
                NMic=       0 NMicF=      0.
                          Input orientation:                          
 ---------------------------------------------------------------------
 Center     Atomic      Atomic             Coordinates (Angstroms)
 Number     Number       Type             X           Y           Z
 ---------------------------------------------------------------------
      1          6           0       -7.493604    7.504007   -0.000074
      2          1           0       -8.565138    7.677914   -0.000087
      3          1           0       -7.067439    7.974676    0.878693
      4          1           0       -7.067422    7.974660   -0.878841
      5          6           0       -7.196879    6.017418   -0.000057
      6          1           0       -7.632970    5.541437    0.877337
      7          1           0       -7.632949    5.541422   -0.877452
      8          8           0       -5.810254    5.839986   -0.000039
      9          6           0       -5.392306    4.510436   -0.000033
     10          1           0       -5.760367    3.985059   -0.878955
     11          1           0       -5.760383    3.985061    0.878885
     12          6           0       -3.877956    4.505289   -0.000019
     13          1           0       -3.508851    5.028574   -0.879044
     14          1           0       -3.508866    5.028580    0.879008
     15          8           0       -3.457332    3.174108   -0.000010
     16          6           0       -2.073738    2.998230   -0.000007
     17          1           0       -1.623599    3.453890    0.879023
     18          1           0       -1.623595    3.453887   -0.879036
     19          6           0       -1.801514    1.508593   -0.000004
     20          1           0       -2.251104    1.052867   -0.879194
     21          1           0       -2.251109    1.052870    0.879186
     22          8           0       -0.416144    1.331776    0.000000
     23          6           0        0.000000    0.000000    0.000000
     24          1           0       -0.379544   -0.516544   -0.879039
     25          1           0       -0.379544   -0.516543    0.879040
     26          6           0        1.520111    0.000000    0.000000
     27          1           0        1.877498    0.522264    0.878387
     28          1           0        1.877498    0.522247   -0.878397
     29         16           0        2.148899   -1.704702    0.000015
     30          6           0        3.936618   -1.371263   -0.000006
     31          1           0        4.191008   -0.791056   -0.878123
     32          1           0        4.191023   -0.791021    0.878082
     33          6           0        4.702779   -2.690784    0.000014
     34          1           0        4.447798   -3.270775   -0.878161
     35          1           0        4.447821   -3.270733    0.878225
     36         16           0        6.490629   -2.356675   -0.000016
     37          6           0        7.125301   -4.061397    0.000021
     38          1           0        6.759143   -4.578444   -0.878123
     39          1           0        6.759173   -4.578395    0.878206
     40          6           0        8.651112   -4.039687   -0.000006
     41          1           0        9.016248   -3.521043   -0.877973
     42          1           0        9.016278   -3.520989    0.877919
     43         16           0        9.286660   -5.743029    0.000037
     44          6           0       11.075283   -5.416475   -0.000002
     45          1           0       11.325985   -4.830945   -0.876775
     46          1           0       11.326013   -4.830890    0.876726
     47          6           0       11.853920   -6.728881    0.000028
     48          1           0       12.919932   -6.526285    0.000006
     49          1           0       11.623460   -7.321072    0.878622
     50          1           0       11.623434   -7.321128   -0.878522
 ---------------------------------------------------------------------
 Stoichiometry    C14H30O3S3
 Framework group  C1[X(C14H30O3S3)]
 Standard basis: 6-31G(d) (6D, 7F)
   372 basis functions,   752 primitive gaussians,   372 cartesian basis functions
    93 alpha electrons       93 beta electrons
 Requested convergence on RMS density matrix=1.00D-08 within  64 cycles.
 Requested convergence on MAX density matrix=1.00D-06.
 Requested convergence on             energy=1.00D-06.
 SCF Done:  E(RHF) =  -1964.70188583     A.U. after   12 cycles
            NFock= 12  Conv=0.91D-08     -V/T= 2.0006
 Mulliken charges:
     1  C   -0.489632
     2  H    0.157405
     3  H    0.173819
     4  H    0.173819
     5  C    0.024591
     6  H    0.139405
     7  H    0.139405
     8  O   -0.634466
     9  C    0.017139
    10  H    0.150708
    11  H    0.150708
    12  C    0.016341
    13  H    0.154477
    14  H    0.154477
    15  O   -0.651330
    16  C    0.018008
    17  H    0.154500
    18  H    0.154500
    19  C    0.012952
    20  H    0.155168
    21  H    0.155168
    22  O   -0.642951
    23  C    0.021095
    24  H    0.158743
    25  H    0.158743
    26  C   -0.479124
    27  H    0.201856
    28  H    0.201856
    29  S    0.120202
    30  C   -0.480249
    31  H    0.206639
    32  H    0.206639
    33  C   -0.482018
    34  H    0.206676
    35  H    0.206676
    36  S    0.131750
    37  C   -0.480720
    38  H    0.206382
    39  H    0.206383
    40  C   -0.481398
    41  H    0.203527
    42  H    0.203526
    43  S    0.124137
    44  C   -0.459815
    45  H    0.188289
    46  H    0.188289
    47  C   -0.496833
    48  H    0.173667
    49  H    0.180437
    50  H    0.180437
 Sum of Mulliken charges =  -0.00000
 Dipole moment (field-independent basis, Debye):
    X=              0.1064    Y=              0.6132    Z=             -0.0001  Tot=              0.6224
 Quadrupole moment (field-independent basis, Debye-Ang):
   XX=           -112.4374   YY=           -158.4343   ZZ=           -149.7590
   XY=             -7.7088   XZ=             -0.0001   YZ=              0.0001
 Traceless Quadrupole moment (field-independent basis, Debye-Ang):
   XX=             27.7729   YY=            -18.2241   ZZ=             -9.5488
   XY=             -7.7088   XZ=             -0.0001   YZ=              0.0001
 Octapole moment (field-independent basis, Debye-Ang**2):
  XXX=           -701.7096  YYY=            210.2115  ZZZ=              0.0022  XYY=           -366.4582
  XXY=             13.5652  XXZ=             -0.0040  XZZ=           -339.7775  YZZ=             66.8145
  YYZ=             -0.0011  XYZ=              0.0032
 Hexadecapole moment (field-independent basis, Debye-Ang**3):
 XXXX=         -29420.4396 YYYY=         -16563.5467 ZZZZ=           -256.5388 XXXY=           8527.9430
 XXXZ=             -0.0722 YYYX=          11592.9129 YYYZ=              0.0478 ZZZX=             -0.0513
 ZZZY=              0.0425 XXYY=          -8094.9999 XXZZ=          -6185.9135 YYZZ=          -2685.5971
 XXYZ=              0.0275 YYXZ=             -0.0248 ZZXY=           3786.8264
 Merz-Kollman atomic radii used.
 Atom Element Radius
    1     6    1.50
    2     1    1.20
    3     1    1.20
    4     1    1.20
    5     6    1.50
    6     1    1.20
    7     1    1.20
    8     8    1.40
    9     6    1.50
   10     1    1.20
   11     1    1.20
   12     6    1.50
   13     1    1.20
   14     1    1.20
   15     8    1.40
   16     6    1.50
   17     1    1.20
   18     1    1.20
   19     6    1.50
   20     1    1.20
   21     1    1.20
   22     8    1.40
   23     6    1.50
   24     1    1.20
   25     1    1.20
   26     6    1.50
   27     1    1.20
   28     1    1.20
   29    16    1.75
   30     6    1.50
   31     1    1.20
   32     1    1.20
   33     6    1.50
   34     1    1.20
   35     1    1.20
   36    16    1.75
   37     6    1.50
   38     1    1.20
   39     1    1.20
   40     6    1.50
   41     1    1.20
   42     1    1.20
   43    16    1.75
   44     6    1.50
   45     1    1.20
   46     1    1.20
   47     6    1.50
   48     1    1.20
   49     1    1.20
   50     1    1.20
 Generate VDW surfaces: Layer= 4 Dens= 1 Start= 1.400 Inc= 0.200
            Electrostatic Properties Using The SCF Density.


       Atomic Center    1 is at  -7.493604  7.504007 -0.000074
       Atomic Center    2 is at  -8.565138  7.677914 -0.000087
       Atomic Center    3 is at  -7.067439  7.974676  0.878693
       Atomic Center    4 is at  -7.067422  7.974660 -0.878841
       Atomic Center    5 is at  -7.196879  6.017418 -0.000057
       Atomic Center    6 is at  -7.632970  5.541437  0.877337
       Atomic Center    7 is at  -7.632949  5.541422 -0.877452
       Atomic Center    8 is at  -5.810254  5.839986 -0.000039
       Atomic Center    9 is at  -5.392306  4.510436 -0.000033
       Atomic Center   10 is at  -5.760367  3.985059 -0.878955
       Atomic Center   11 is at  -5.760383  3.985061  0.878885
       Atomic Center   12 is at  -3.877956  4.505289 -0.000019
       Atomic Center   13 is at  -3.508851  5.028574 -0.879044
       Atomic Center   14 is at  -3.508866  5.028580  0.879008
       Atomic Center   15 is at  -3.457332  3.174108 -0.000010
       Atomic Center   16 is at  -2.073738  2.998230 -0.000007
       Atomic Center   17 is at  -1.623599  3.453890  0.879023
       Atomic Center   18 is at  -1.623595  3.453887 -0.879036
       Atomic Center   19 is at  -1.801514  1.508593 -0.000004
       Atomic Center   20 is at  -2.251104  1.052867 -0.879194
       Atomic Center   21 is at  -2.251109  1.052870  0.879186
       Atomic Center   22 is at  -0.416144  1.331776  0.000000
       Atomic Center   23 is at   0.000000  0.000000  0.000000
       Atomic Center   24 is at  -0.379544 -0.516544 -0.879039
       Atomic Center   25 is at  -0.379544 -0.516543  0.879040
       Atomic Center   26 is at   1.520111  0.000000  0.000000
       Atomic Center   27 is at   1.877498  0.522264  0.878387
       Atomic Center   28 is at   1.877498  0.522247 -0.878397
       Atomic Center   29 is at   2.148899 -1.704702  0.000015
       Atomic Center   30 is at   3.936618 -1.371263 -0.000006
       Atomic Center   31 is at   4.191008 -0.791056 -0.878123
       Atomic Center   32 is at   4.191023 -0.791021  0.878082
       Atomic Center   33 is at   4.702779 -2.690784  0.000014
       Atomic Center   34 is at   4.447798 -3.270775 -0.878161
       Atomic Center   35 is at   4.447821 -3.270733  0.878225
       Atomic Center   36 is at   6.490629 -2.356675 -0.000016
       Atomic Center   37 is at   7.125301 -4.061397  0.000021
       Atomic Center   38 is at   6.759143 -4.578444 -0.878123
       Atomic Center   39 is at   6.759173 -4.578395  0.878206
       Atomic Center   40 is at   8.651112 -4.039687 -0.000006
       Atomic Center   41 is at   9.016248 -3.521043 -0.877973
       Atomic Center   42 is at   9.016278 -3.520989  0.877919
       Atomic Center   43 is at   9.286660 -5.743029  0.000037
       Atomic Center   44 is at  11.075283 -5.416475 -0.000002
       Atomic Center   45 is at  11.325985 -4.830945 -0.876775
       Atomic Center   46 is at  11.326013 -4.830890  0.876726
       Atomic Center   47 is at  11.853920 -6.728881  0.000028
       Atomic Center   48 is at  12.919932 -6.526285  0.000006
       Atomic Center   49 is at  11.623460 -7.321072  0.878622
       Atomic Center   50 is at  11.623434 -7.321128 -0.878522
      ESP Fit Center   51 is at  -8.543604  7.504007  1.818579
      ESP Fit Center   52 is at  -5.634146  8.479926 -0.000074
      ESP Fit Center   53 is at  -6.300668  9.232273 -0.000074
      ESP Fit Center   54 is at  -7.240477  9.588696 -0.000074
      ESP Fit Center   55 is at  -8.238274  9.467541 -0.000074
      ESP Fit Center   56 is at  -8.543604  7.504007 -1.818727
      ESP Fit Center   57 is at  -9.364025  8.258340  1.359062
      ESP Fit Center   58 is at  -9.364025  7.097488  1.359062
      ESP Fit Center   59 is at  -9.364025  9.061628  0.519062
      ESP Fit Center   60 is at -10.066555  8.224385  0.519062
      ESP Fit Center   61 is at -10.066555  7.131443  0.519062
      ESP Fit Center   62 is at  -9.364025  6.294200  0.519062
      ESP Fit Center   63 is at  -9.364025  9.061628 -0.519236
      ESP Fit Center   64 is at -10.066555  8.224385 -0.519236
      ESP Fit Center   65 is at -10.066555  7.131443 -0.519236
      ESP Fit Center   66 is at  -9.364025  6.294200 -0.519236
      ESP Fit Center   67 is at  -9.364025  8.258340 -1.359236
      ESP Fit Center   68 is at  -9.364025  7.097488 -1.359236
      ESP Fit Center   69 is at  -7.067439  7.974676  2.558693
      ESP Fit Center   70 is at  -6.079960  7.974676  2.237842
      ESP Fit Center   71 is at  -6.762291  8.913825  2.237842
      ESP Fit Center   72 is at  -7.866326  8.555102  2.237842
      ESP Fit Center   73 is at  -7.866326  7.394250  2.237842
      ESP Fit Center   74 is at  -6.762291  7.035527  2.237842
      ESP Fit Center   75 is at  -5.469664  7.974676  1.397842
      ESP Fit Center   76 is at  -5.843472  9.001706  1.397842
      ESP Fit Center   77 is at  -6.789988  9.548177  1.397842
      ESP Fit Center   78 is at  -7.866326  9.358390  1.397842
      ESP Fit Center   79 is at  -5.469664  7.974676  0.359544
      ESP Fit Center   80 is at  -5.843472  9.001706  0.359544
      ESP Fit Center   81 is at  -6.789988  9.548177  0.359544
      ESP Fit Center   82 is at  -5.469647  7.974660 -0.359692
      ESP Fit Center   83 is at  -5.843455  9.001690 -0.359692
      ESP Fit Center   84 is at  -6.789971  9.548161 -0.359692
      ESP Fit Center   85 is at  -5.469647  7.974660 -1.397990
      ESP Fit Center   86 is at  -5.843455  9.001690 -1.397990
      ESP Fit Center   87 is at  -6.789971  9.548161 -1.397990
      ESP Fit Center   88 is at  -7.866309  9.358374 -1.397990
      ESP Fit Center   89 is at  -6.079943  7.974660 -2.237990
      ESP Fit Center   90 is at  -6.762274  8.913809 -2.237990
      ESP Fit Center   91 is at  -7.866309  8.555086 -2.237990
      ESP Fit Center   92 is at  -7.866309  7.394234 -2.237990
      ESP Fit Center   93 is at  -6.762274  7.035511 -2.237990
      ESP Fit Center   94 is at  -7.067422  7.974660 -2.558841
      ESP Fit Center   95 is at  -9.235857  5.514855 -0.000057
      ESP Fit Center   96 is at  -8.768752  4.624860 -0.000057
      ESP Fit Center   97 is at  -7.941549  4.053884 -0.000057
      ESP Fit Center   98 is at  -7.632970  5.541437  2.557337
      ESP Fit Center   99 is at  -6.645491  5.541437  2.236486
      ESP Fit Center  100 is at  -7.327822  6.480586  2.236486
      ESP Fit Center  101 is at  -8.431857  6.121863  2.236486
      ESP Fit Center  102 is at  -8.431857  4.961011  2.236486
      ESP Fit Center  103 is at  -7.327822  4.602288  2.236486
      ESP Fit Center  104 is at  -9.134387  6.087908  1.396486
      ESP Fit Center  105 is at  -9.134387  4.994966  1.396486
      ESP Fit Center  106 is at  -8.431857  4.157723  1.396486
      ESP Fit Center  107 is at  -9.134387  4.994966  0.358188
      ESP Fit Center  108 is at  -8.431857  4.157723  0.358188
      ESP Fit Center  109 is at  -9.134366  4.994951 -0.358303
      ESP Fit Center  110 is at  -8.431836  4.157708 -0.358303
      ESP Fit Center  111 is at  -9.134366  6.087893 -1.396601
      ESP Fit Center  112 is at  -9.134366  4.994951 -1.396601
      ESP Fit Center  113 is at  -8.431836  4.157708 -1.396601
      ESP Fit Center  114 is at  -6.645470  5.541422 -2.236601
      ESP Fit Center  115 is at  -7.327801  6.480571 -2.236601
      ESP Fit Center  116 is at  -8.431836  6.121848 -2.236601
      ESP Fit Center  117 is at  -8.431836  4.960996 -2.236601
      ESP Fit Center  118 is at  -7.327801  4.602273 -2.236601
      ESP Fit Center  119 is at  -7.632949  5.541422 -2.557452
      ESP Fit Center  120 is at  -5.810254  5.839986  1.959961
      ESP Fit Center  121 is at  -4.830254  5.839986  1.697371
      ESP Fit Center  122 is at  -5.320254  6.688691  1.697371
      ESP Fit Center  123 is at  -4.437021  6.837698  0.979961
      ESP Fit Center  124 is at  -5.285726  7.454319  0.979961
      ESP Fit Center  125 is at  -4.112844  6.819986 -0.000039
      ESP Fit Center  126 is at  -4.830254  7.537396 -0.000039
      ESP Fit Center  127 is at  -4.437021  6.837698 -0.980039
      ESP Fit Center  128 is at  -5.285726  7.454319 -0.980039
      ESP Fit Center  129 is at  -4.830254  5.839986 -1.697449
      ESP Fit Center  130 is at  -5.320254  6.688691 -1.697449
      ESP Fit Center  131 is at  -5.810254  5.839986 -1.960039
      ESP Fit Center  132 is at  -4.867306  5.419763  1.818620
      ESP Fit Center  133 is at  -6.964179  3.117878 -0.000033
      ESP Fit Center  134 is at  -6.136976  2.546902 -0.000033
      ESP Fit Center  135 is at  -4.867306  5.419763 -1.818686
      ESP Fit Center  136 is at  -7.261784  3.438588 -0.359806
      ESP Fit Center  137 is at  -6.559254  2.601345 -0.359806
      ESP Fit Center  138 is at  -5.482916  2.411558 -0.359806
      ESP Fit Center  139 is at  -7.261784  3.438588 -1.398104
      ESP Fit Center  140 is at  -6.559254  2.601345 -1.398104
      ESP Fit Center  141 is at  -5.482916  2.411558 -1.398104
      ESP Fit Center  142 is at  -4.772888  3.985059 -2.238104
      ESP Fit Center  143 is at  -5.455219  4.924208 -2.238104
      ESP Fit Center  144 is at  -6.559254  4.565485 -2.238104
      ESP Fit Center  145 is at  -6.559254  3.404633 -2.238104
      ESP Fit Center  146 is at  -5.455219  3.045910 -2.238104
      ESP Fit Center  147 is at  -5.760367  3.985059 -2.558955
      ESP Fit Center  148 is at  -5.760383  3.985061  2.558885
      ESP Fit Center  149 is at  -4.772904  3.985061  2.238034
      ESP Fit Center  150 is at  -5.455235  4.924210  2.238034
      ESP Fit Center  151 is at  -6.559270  4.565487  2.238034
      ESP Fit Center  152 is at  -6.559270  3.404635  2.238034
      ESP Fit Center  153 is at  -5.455235  3.045912  2.238034
      ESP Fit Center  154 is at  -7.261800  3.438590  1.398034
      ESP Fit Center  155 is at  -6.559270  2.601347  1.398034
      ESP Fit Center  156 is at  -5.482932  2.411560  1.398034
      ESP Fit Center  157 is at  -7.261800  3.438590  0.359736
      ESP Fit Center  158 is at  -6.559270  2.601347  0.359736
      ESP Fit Center  159 is at  -5.482932  2.411560  0.359736
      ESP Fit Center  160 is at  -4.402956  3.595962  1.818634
      ESP Fit Center  161 is at  -2.018498  5.481208 -0.000019
      ESP Fit Center  162 is at  -2.685020  6.233555 -0.000019
      ESP Fit Center  163 is at  -3.624829  6.589978 -0.000019
      ESP Fit Center  164 is at  -4.402956  3.595962 -1.818672
      ESP Fit Center  165 is at  -2.284884  6.055604 -0.359895
      ESP Fit Center  166 is at  -3.231400  6.602075 -0.359895
      ESP Fit Center  167 is at  -1.911076  5.028574 -1.398193
      ESP Fit Center  168 is at  -2.284884  6.055604 -1.398193
      ESP Fit Center  169 is at  -3.231400  6.602075 -1.398193
      ESP Fit Center  170 is at  -4.307738  6.412288 -1.398193
      ESP Fit Center  171 is at  -2.521372  5.028574 -2.238193
      ESP Fit Center  172 is at  -3.203703  5.967723 -2.238193
      ESP Fit Center  173 is at  -4.307738  5.609000 -2.238193
      ESP Fit Center  174 is at  -4.307738  4.448148 -2.238193
      ESP Fit Center  175 is at  -3.203703  4.089425 -2.238193
      ESP Fit Center  176 is at  -3.508851  5.028574 -2.559044
      ESP Fit Center  177 is at  -3.508866  5.028580  2.559008
      ESP Fit Center  178 is at  -2.521387  5.028580  2.238157
      ESP Fit Center  179 is at  -3.203718  5.967729  2.238157
      ESP Fit Center  180 is at  -4.307753  5.609006  2.238157
      ESP Fit Center  181 is at  -4.307753  4.448154  2.238157
      ESP Fit Center  182 is at  -3.203718  4.089431  2.238157
      ESP Fit Center  183 is at  -1.911091  5.028580  1.398157
      ESP Fit Center  184 is at  -2.284899  6.055610  1.398157
      ESP Fit Center  185 is at  -3.231415  6.602081  1.398157
      ESP Fit Center  186 is at  -4.307753  6.412294  1.398157
      ESP Fit Center  187 is at  -2.284899  6.055610  0.359859
      ESP Fit Center  188 is at  -3.231415  6.602081  0.359859
      ESP Fit Center  189 is at  -3.457332  3.174108  1.959990
      ESP Fit Center  190 is at  -4.437332  3.174108  1.697400
      ESP Fit Center  191 is at  -3.947332  2.325403  1.697400
      ESP Fit Center  192 is at  -4.830565  2.176396  0.979990
      ESP Fit Center  193 is at  -3.981860  1.559775  0.979990
      ESP Fit Center  194 is at  -5.154742  2.194108 -0.000010
      ESP Fit Center  195 is at  -4.437332  1.476698 -0.000010
      ESP Fit Center  196 is at  -4.830565  2.176396 -0.980010
      ESP Fit Center  197 is at  -3.981860  1.559775 -0.980010
      ESP Fit Center  198 is at  -4.437332  3.174108 -1.697420
      ESP Fit Center  199 is at  -3.947332  2.325403 -1.697420
      ESP Fit Center  200 is at  -3.457332  3.174108 -1.960010
      ESP Fit Center  201 is at  -0.214280  3.974149 -0.000007
      ESP Fit Center  202 is at  -0.880802  4.726496 -0.000007
      ESP Fit Center  203 is at  -1.820611  5.082919 -0.000007
      ESP Fit Center  204 is at  -1.623599  3.453890  2.559023
      ESP Fit Center  205 is at  -0.636120  3.453890  2.238172
      ESP Fit Center  206 is at  -1.318451  4.393039  2.238172
      ESP Fit Center  207 is at  -2.422486  4.034316  2.238172
      ESP Fit Center  208 is at  -2.422486  2.873464  2.238172
      ESP Fit Center  209 is at  -1.318451  2.514741  2.238172
      ESP Fit Center  210 is at  -0.025824  3.453890  1.398172
      ESP Fit Center  211 is at  -0.399632  4.480920  1.398172
      ESP Fit Center  212 is at  -1.346148  5.027391  1.398172
      ESP Fit Center  213 is at  -0.025824  3.453890  0.359874
      ESP Fit Center  214 is at  -0.399632  4.480920  0.359874
      ESP Fit Center  215 is at  -1.346148  5.027391  0.359874
      ESP Fit Center  216 is at  -0.025820  3.453887 -0.359887
      ESP Fit Center  217 is at  -0.399628  4.480917 -0.359887
      ESP Fit Center  218 is at  -1.346144  5.027388 -0.359887
      ESP Fit Center  219 is at  -0.025820  3.453887 -1.398185
      ESP Fit Center  220 is at  -0.399628  4.480917 -1.398185
      ESP Fit Center  221 is at  -1.346144  5.027388 -1.398185
      ESP Fit Center  222 is at  -0.636116  3.453887 -2.238185
      ESP Fit Center  223 is at  -1.318447  4.393036 -2.238185
      ESP Fit Center  224 is at  -2.422482  4.034313 -2.238185
      ESP Fit Center  225 is at  -2.422482  2.873461 -2.238185
      ESP Fit Center  226 is at  -1.318447  2.514738 -2.238185
      ESP Fit Center  227 is at  -1.623595  3.453887 -2.559036
      ESP Fit Center  228 is at  -3.840492  1.006030 -0.000004
      ESP Fit Center  229 is at  -3.373387  0.116035 -0.000004
      ESP Fit Center  230 is at  -2.546184 -0.454941 -0.000004
      ESP Fit Center  231 is at  -3.752521  0.506396 -0.360045
      ESP Fit Center  232 is at  -3.049991 -0.330847 -0.360045
      ESP Fit Center  233 is at  -3.752521  1.599338 -1.398343
      ESP Fit Center  234 is at  -3.752521  0.506396 -1.398343
      ESP Fit Center  235 is at  -3.049991 -0.330847 -1.398343
      ESP Fit Center  236 is at  -1.263625  1.052867 -2.238343
      ESP Fit Center  237 is at  -1.945956  1.992016 -2.238343
      ESP Fit Center  238 is at  -3.049991  1.633293 -2.238343
      ESP Fit Center  239 is at  -3.049991  0.472441 -2.238343
      ESP Fit Center  240 is at  -1.945956  0.113718 -2.238343
      ESP Fit Center  241 is at  -2.251104  1.052867 -2.559194
      ESP Fit Center  242 is at  -2.251109  1.052870  2.559186
      ESP Fit Center  243 is at  -1.263630  1.052870  2.238335
      ESP Fit Center  244 is at  -1.945961  1.992019  2.238335
      ESP Fit Center  245 is at  -3.049996  1.633296  2.238335
      ESP Fit Center  246 is at  -3.049996  0.472444  2.238335
      ESP Fit Center  247 is at  -1.945961  0.113721  2.238335
      ESP Fit Center  248 is at  -3.752526  1.599341  1.398335
      ESP Fit Center  249 is at  -3.752526  0.506399  1.398335
      ESP Fit Center  250 is at  -3.049996 -0.330844  1.398335
      ESP Fit Center  251 is at  -3.752526  0.506399  0.360037
      ESP Fit Center  252 is at  -3.049996 -0.330844  0.360037
      ESP Fit Center  253 is at  -0.416144  1.331776  1.960000
      ESP Fit Center  254 is at   0.563856  1.331776  1.697410
      ESP Fit Center  255 is at   0.073856  2.180481  1.697410
      ESP Fit Center  256 is at   0.957089  2.329488  0.980000
      ESP Fit Center  257 is at   0.108384  2.946109  0.980000
      ESP Fit Center  258 is at   1.281266  2.311776  0.000000
      ESP Fit Center  259 is at   0.563856  3.029186  0.000000
      ESP Fit Center  260 is at   0.957089  2.329488 -0.980000
      ESP Fit Center  261 is at   0.108384  2.946109 -0.980000
      ESP Fit Center  262 is at   0.563856  1.331776 -1.697410
      ESP Fit Center  263 is at   0.073856  2.180481 -1.697410
      ESP Fit Center  264 is at  -0.416144  1.331776 -1.960000
      ESP Fit Center  265 is at   0.525000  0.909327  1.818653
      ESP Fit Center  266 is at  -1.571873 -1.392558  0.000000
      ESP Fit Center  267 is at  -0.744670 -1.963534  0.000000
      ESP Fit Center  268 is at   0.525000  0.909327 -1.818653
      ESP Fit Center  269 is at  -1.880961 -1.063015 -0.359890
      ESP Fit Center  270 is at  -1.178431 -1.900258 -0.359890
      ESP Fit Center  271 is at  -1.880961 -1.063015 -1.398188
      ESP Fit Center  272 is at  -1.178431 -1.900258 -1.398188
      ESP Fit Center  273 is at  -0.102093 -2.090045 -1.398188
      ESP Fit Center  274 is at   0.607935 -0.516544 -2.238188
      ESP Fit Center  275 is at  -0.074396  0.422605 -2.238188
      ESP Fit Center  276 is at  -1.178431  0.063882 -2.238188
      ESP Fit Center  277 is at  -1.178431 -1.096970 -2.238188
      ESP Fit Center  278 is at  -0.074396 -1.455693 -2.238188
      ESP Fit Center  279 is at  -0.379544 -0.516544 -2.559039
      ESP Fit Center  280 is at  -0.379544 -0.516543  2.559040
      ESP Fit Center  281 is at   0.607935 -0.516543  2.238189
      ESP Fit Center  282 is at  -0.074396  0.422606  2.238189
      ESP Fit Center  283 is at  -1.178431  0.063883  2.238189
      ESP Fit Center  284 is at  -1.178431 -1.096969  2.238189
      ESP Fit Center  285 is at  -0.074396 -1.455692  2.238189
      ESP Fit Center  286 is at  -1.880961 -1.063014  1.398189
      ESP Fit Center  287 is at  -1.178431 -1.900257  1.398189
      ESP Fit Center  288 is at  -0.102093 -2.090044  1.398189
      ESP Fit Center  289 is at  -1.880961 -1.063014  0.359891
      ESP Fit Center  290 is at  -1.178431 -1.900257  0.359891
      ESP Fit Center  291 is at   3.379569  0.975919  0.000000
      ESP Fit Center  292 is at   2.713047  1.728266  0.000000
      ESP Fit Center  293 is at   1.773238  2.084689  0.000000
      ESP Fit Center  294 is at   1.877498  0.522264  2.558387
      ESP Fit Center  295 is at   2.864977  0.522264  2.237536
      ESP Fit Center  296 is at   2.182646  1.461413  2.237536
      ESP Fit Center  297 is at   1.078611  1.102690  2.237536
      ESP Fit Center  298 is at   1.078611 -0.058162  2.237536
      ESP Fit Center  299 is at   2.182646 -0.416885  2.237536
      ESP Fit Center  300 is at   3.101465  1.549294  1.397536
      ESP Fit Center  301 is at   2.154949  2.095765  1.397536
      ESP Fit Center  302 is at   1.078611  1.905978  1.397536
      ESP Fit Center  303 is at   3.101465  1.549294  0.359238
      ESP Fit Center  304 is at   2.154949  2.095765  0.359238
      ESP Fit Center  305 is at   3.101465  1.549277 -0.359248
      ESP Fit Center  306 is at   2.154949  2.095748 -0.359248
      ESP Fit Center  307 is at   3.101465  1.549277 -1.397546
      ESP Fit Center  308 is at   2.154949  2.095748 -1.397546
      ESP Fit Center  309 is at   1.078611  1.905961 -1.397546
      ESP Fit Center  310 is at   2.864977  0.522247 -2.237546
      ESP Fit Center  311 is at   2.182646  1.461396 -2.237546
      ESP Fit Center  312 is at   1.078611  1.102673 -2.237546
      ESP Fit Center  313 is at   1.078611 -0.058179 -2.237546
      ESP Fit Center  314 is at   2.182646 -0.416902 -2.237546
      ESP Fit Center  315 is at   1.877498  0.522247 -2.558397
      ESP Fit Center  316 is at   2.148899 -1.704702  2.450015
      ESP Fit Center  317 is at   3.211914 -1.704702  2.207389
      ESP Fit Center  318 is at   2.680407 -0.784104  2.207389
      ESP Fit Center  319 is at   1.617391 -0.784104  2.207389
      ESP Fit Center  320 is at   1.085884 -1.704702  2.207389
      ESP Fit Center  321 is at   1.617391 -2.625300  2.207389
      ESP Fit Center  322 is at   2.680407 -2.625300  2.207389
      ESP Fit Center  323 is at   0.311003 -2.244357  1.527565
      ESP Fit Center  324 is at   0.894522 -3.152331  1.527565
      ESP Fit Center  325 is at   1.876297 -3.600692  1.527565
      ESP Fit Center  326 is at  -0.003131 -2.741065  0.545191
      ESP Fit Center  327 is at   0.659648 -3.572164  0.545191
      ESP Fit Center  328 is at   1.617391 -4.033389  0.545191
      ESP Fit Center  329 is at   2.680407 -4.033389  0.545191
      ESP Fit Center  330 is at  -0.003131 -2.741065 -0.545161
      ESP Fit Center  331 is at   0.659648 -3.572164 -0.545161
      ESP Fit Center  332 is at   1.617391 -4.033389 -0.545161
      ESP Fit Center  333 is at   2.680407 -4.033389 -0.545161
      ESP Fit Center  334 is at   0.311003 -2.244357 -1.527535
      ESP Fit Center  335 is at   0.894522 -3.152331 -1.527535
      ESP Fit Center  336 is at   1.876297 -3.600692 -1.527535
      ESP Fit Center  337 is at   3.211914 -1.704702 -2.207359
      ESP Fit Center  338 is at   2.680407 -0.784104 -2.207359
      ESP Fit Center  339 is at   1.617391 -0.784104 -2.207359
      ESP Fit Center  340 is at   1.085884 -1.704702 -2.207359
      ESP Fit Center  341 is at   1.617391 -2.625300 -2.207359
      ESP Fit Center  342 is at   2.680407 -2.625300 -2.207359
      ESP Fit Center  343 is at   2.148899 -1.704702 -2.449985
      ESP Fit Center  344 is at   5.129554  0.357003 -0.000006
      ESP Fit Center  345 is at   4.189745  0.713426 -0.000006
      ESP Fit Center  346 is at   5.414975  0.235974 -0.358974
      ESP Fit Center  347 is at   4.468459  0.782445 -0.358974
      ESP Fit Center  348 is at   5.414975  0.235974 -1.397272
      ESP Fit Center  349 is at   4.468459  0.782445 -1.397272
      ESP Fit Center  350 is at   5.178487 -0.791056 -2.237272
      ESP Fit Center  351 is at   4.496156  0.148093 -2.237272
      ESP Fit Center  352 is at   3.392121 -0.210630 -2.237272
      ESP Fit Center  353 is at   3.392121 -1.371482 -2.237272
      ESP Fit Center  354 is at   4.496156 -1.730205 -2.237272
      ESP Fit Center  355 is at   4.191008 -0.791056 -2.558123
      ESP Fit Center  356 is at   4.191023 -0.791021  2.558082
      ESP Fit Center  357 is at   5.178502 -0.791021  2.237231
      ESP Fit Center  358 is at   4.496171  0.148128  2.237231
      ESP Fit Center  359 is at   3.392136 -0.210595  2.237231
      ESP Fit Center  360 is at   3.392136 -1.371447  2.237231
      ESP Fit Center  361 is at   4.496171 -1.730170  2.237231
      ESP Fit Center  362 is at   5.414990  0.236009  1.397231
      ESP Fit Center  363 is at   4.468474  0.782480  1.397231
      ESP Fit Center  364 is at   5.414990  0.236009  0.358933
      ESP Fit Center  365 is at   4.468474  0.782480  0.358933
      ESP Fit Center  366 is at   3.130906 -4.083342  0.000014
      ESP Fit Center  367 is at   3.958109 -4.654318  0.000014
      ESP Fit Center  368 is at   4.955906 -4.775473  0.000014
      ESP Fit Center  369 is at   3.648911 -4.654489 -0.359012
      ESP Fit Center  370 is at   4.725249 -4.844276 -0.359012
      ESP Fit Center  371 is at   2.946381 -3.817246 -1.397310
      ESP Fit Center  372 is at   3.648911 -4.654489 -1.397310
      ESP Fit Center  373 is at   4.725249 -4.844276 -1.397310
      ESP Fit Center  374 is at   5.435277 -3.270775 -2.237310
      ESP Fit Center  375 is at   4.752946 -2.331626 -2.237310
      ESP Fit Center  376 is at   3.648911 -2.690349 -2.237310
      ESP Fit Center  377 is at   3.648911 -3.851201 -2.237310
      ESP Fit Center  378 is at   4.752946 -4.209924 -2.237310
      ESP Fit Center  379 is at   4.447798 -3.270775 -2.558161
      ESP Fit Center  380 is at   4.447821 -3.270733  2.558225
      ESP Fit Center  381 is at   5.435300 -3.270733  2.237374
      ESP Fit Center  382 is at   4.752969 -2.331584  2.237374
      ESP Fit Center  383 is at   3.648934 -2.690307  2.237374
      ESP Fit Center  384 is at   3.648934 -3.851159  2.237374
      ESP Fit Center  385 is at   4.752969 -4.209882  2.237374
      ESP Fit Center  386 is at   2.946404 -3.817204  1.397374
      ESP Fit Center  387 is at   3.648934 -4.654447  1.397374
      ESP Fit Center  388 is at   4.725272 -4.844234  1.397374
      ESP Fit Center  389 is at   3.648934 -4.654447  0.359076
      ESP Fit Center  390 is at   4.725272 -4.844234  0.359076
      ESP Fit Center  391 is at   6.490629 -2.356675  2.449984
      ESP Fit Center  392 is at   7.553644 -2.356675  2.207358
      ESP Fit Center  393 is at   7.022137 -1.436077  2.207358
      ESP Fit Center  394 is at   5.959121 -1.436077  2.207358
      ESP Fit Center  395 is at   5.427614 -2.356675  2.207358
      ESP Fit Center  396 is at   5.959121 -3.277273  2.207358
      ESP Fit Center  397 is at   7.022137 -3.277273  2.207358
      ESP Fit Center  398 is at   8.102039 -1.321084  1.527534
      ESP Fit Center  399 is at   7.286351 -0.614287  1.527534
      ESP Fit Center  400 is at   6.218027 -0.460685  1.527534
      ESP Fit Center  401 is at   8.642659 -1.320312  0.545160
      ESP Fit Center  402 is at   7.979880 -0.489213  0.545160
      ESP Fit Center  403 is at   7.022137 -0.027988  0.545160
      ESP Fit Center  404 is at   5.959121 -0.027988  0.545160
      ESP Fit Center  405 is at   8.642659 -1.320312 -0.545192
      ESP Fit Center  406 is at   7.979880 -0.489213 -0.545192
      ESP Fit Center  407 is at   7.022137 -0.027988 -0.545192
      ESP Fit Center  408 is at   5.959121 -0.027988 -0.545192
      ESP Fit Center  409 is at   8.102039 -1.321084 -1.527566
      ESP Fit Center  410 is at   7.286351 -0.614287 -1.527566
      ESP Fit Center  411 is at   6.218027 -0.460685 -1.527566
      ESP Fit Center  412 is at   7.553644 -2.356675 -2.207390
      ESP Fit Center  413 is at   7.022137 -1.436077 -2.207390
      ESP Fit Center  414 is at   5.959121 -1.436077 -2.207390
      ESP Fit Center  415 is at   5.427614 -2.356675 -2.207390
      ESP Fit Center  416 is at   5.959121 -3.277273 -2.207390
      ESP Fit Center  417 is at   7.022137 -3.277273 -2.207390
      ESP Fit Center  418 is at   6.490629 -2.356675 -2.450016
      ESP Fit Center  419 is at   5.553428 -5.453955  0.000021
      ESP Fit Center  420 is at   6.380631 -6.024931  0.000021
      ESP Fit Center  421 is at   5.257726 -5.124915 -0.358974
      ESP Fit Center  422 is at   5.960256 -5.962158 -0.358974
      ESP Fit Center  423 is at   5.257726 -5.124915 -1.397272
      ESP Fit Center  424 is at   5.960256 -5.962158 -1.397272
      ESP Fit Center  425 is at   7.036594 -6.151945 -1.397272
      ESP Fit Center  426 is at   7.746622 -4.578444 -2.237272
      ESP Fit Center  427 is at   7.064291 -3.639295 -2.237272
      ESP Fit Center  428 is at   5.960256 -3.998018 -2.237272
      ESP Fit Center  429 is at   5.960256 -5.158870 -2.237272
      ESP Fit Center  430 is at   7.064291 -5.517593 -2.237272
      ESP Fit Center  431 is at   6.759143 -4.578444 -2.558123
      ESP Fit Center  432 is at   6.759173 -4.578395  2.558206
      ESP Fit Center  433 is at   7.746652 -4.578395  2.237355
      ESP Fit Center  434 is at   7.064321 -3.639246  2.237355
      ESP Fit Center  435 is at   5.960286 -3.997969  2.237355
      ESP Fit Center  436 is at   5.960286 -5.158821  2.237355
      ESP Fit Center  437 is at   7.064321 -5.517544  2.237355
      ESP Fit Center  438 is at   5.257756 -5.124866  1.397355
      ESP Fit Center  439 is at   5.960286 -5.962109  1.397355
      ESP Fit Center  440 is at   7.036624 -6.151896  1.397355
      ESP Fit Center  441 is at   5.257756 -5.124866  0.359057
      ESP Fit Center  442 is at   5.960286 -5.962109  0.359057
      ESP Fit Center  443 is at  10.510570 -3.063768 -0.000006
      ESP Fit Center  444 is at   9.844048 -2.311421 -0.000006
      ESP Fit Center  445 is at  10.240215 -2.494013 -0.358824
      ESP Fit Center  446 is at   9.293699 -1.947542 -0.358824
      ESP Fit Center  447 is at  10.240215 -2.494013 -1.397122
      ESP Fit Center  448 is at   9.293699 -1.947542 -1.397122
      ESP Fit Center  449 is at  10.003727 -3.521043 -2.237122
      ESP Fit Center  450 is at   9.321396 -2.581894 -2.237122
      ESP Fit Center  451 is at   8.217361 -2.940617 -2.237122
      ESP Fit Center  452 is at   8.217361 -4.101469 -2.237122
      ESP Fit Center  453 is at   9.321396 -4.460192 -2.237122
      ESP Fit Center  454 is at   9.016248 -3.521043 -2.557973
      ESP Fit Center  455 is at   9.016278 -3.520989  2.557919
      ESP Fit Center  456 is at  10.003757 -3.520989  2.237068
      ESP Fit Center  457 is at   9.321426 -2.581840  2.237068
      ESP Fit Center  458 is at   8.217391 -2.940563  2.237068
      ESP Fit Center  459 is at   8.217391 -4.101415  2.237068
      ESP Fit Center  460 is at   9.321426 -4.460138  2.237068
      ESP Fit Center  461 is at  10.240245 -2.493959  1.397068
      ESP Fit Center  462 is at   9.293729 -1.947488  1.397068
      ESP Fit Center  463 is at  10.240245 -2.493959  0.358770
      ESP Fit Center  464 is at   9.293729 -1.947488  0.358770
      ESP Fit Center  465 is at   9.286660 -5.743029  2.450037
      ESP Fit Center  466 is at  10.349675 -5.743029  2.207411
      ESP Fit Center  467 is at   9.818168 -4.822431  2.207411
      ESP Fit Center  468 is at   8.755152 -4.822431  2.207411
      ESP Fit Center  469 is at   8.223645 -5.743029  2.207411
      ESP Fit Center  470 is at   8.755152 -6.663627  2.207411
      ESP Fit Center  471 is at   9.818168 -6.663627  2.207411
      ESP Fit Center  472 is at   7.448764 -6.282684  1.527587
      ESP Fit Center  473 is at   8.032283 -7.190658  1.527587
      ESP Fit Center  474 is at   9.014058 -7.639019  1.527587
      ESP Fit Center  475 is at  10.082382 -7.485417  1.527587
      ESP Fit Center  476 is at   7.134630 -6.779392  0.545213
      ESP Fit Center  477 is at   7.797409 -7.610491  0.545213
      ESP Fit Center  478 is at   8.755152 -8.071716  0.545213
      ESP Fit Center  479 is at   9.818168 -8.071716  0.545213
      ESP Fit Center  480 is at   7.134630 -6.779392 -0.545139
      ESP Fit Center  481 is at   7.797409 -7.610491 -0.545139
      ESP Fit Center  482 is at   8.755152 -8.071716 -0.545139
      ESP Fit Center  483 is at   9.818168 -8.071716 -0.545139
      ESP Fit Center  484 is at   7.448764 -6.282684 -1.527513
      ESP Fit Center  485 is at   8.032283 -7.190658 -1.527513
      ESP Fit Center  486 is at   9.014058 -7.639019 -1.527513
      ESP Fit Center  487 is at  10.082382 -7.485417 -1.527513
      ESP Fit Center  488 is at  10.349675 -5.743029 -2.207337
      ESP Fit Center  489 is at   9.818168 -4.822431 -2.207337
      ESP Fit Center  490 is at   8.755152 -4.822431 -2.207337
      ESP Fit Center  491 is at   8.223645 -5.743029 -2.207337
      ESP Fit Center  492 is at   8.755152 -6.663627 -2.207337
      ESP Fit Center  493 is at   9.818168 -6.663627 -2.207337
      ESP Fit Center  494 is at   9.286660 -5.743029 -2.449963
      ESP Fit Center  495 is at  12.934741 -4.440556 -0.000002
      ESP Fit Center  496 is at  12.268219 -3.688209 -0.000002
      ESP Fit Center  497 is at  11.328410 -3.331786 -0.000002
      ESP Fit Center  498 is at  12.549952 -3.803915 -0.357626
      ESP Fit Center  499 is at  11.603436 -3.257444 -0.357626
      ESP Fit Center  500 is at  12.923760 -4.830945 -1.395924
      ESP Fit Center  501 is at  12.549952 -3.803915 -1.395924
      ESP Fit Center  502 is at  11.603436 -3.257444 -1.395924
      ESP Fit Center  503 is at  12.313464 -4.830945 -2.235924
      ESP Fit Center  504 is at  11.631133 -3.891796 -2.235924
      ESP Fit Center  505 is at  10.527098 -4.250519 -2.235924
      ESP Fit Center  506 is at  10.527098 -5.411371 -2.235924
      ESP Fit Center  507 is at  11.631133 -5.770094 -2.235924
      ESP Fit Center  508 is at  11.325985 -4.830945 -2.556775
      ESP Fit Center  509 is at  11.326013 -4.830890  2.556726
      ESP Fit Center  510 is at  12.313492 -4.830890  2.235875
      ESP Fit Center  511 is at  11.631161 -3.891741  2.235875
      ESP Fit Center  512 is at  10.527126 -4.250464  2.235875
      ESP Fit Center  513 is at  10.527126 -5.411316  2.235875
      ESP Fit Center  514 is at  11.631161 -5.770039  2.235875
      ESP Fit Center  515 is at  12.923788 -4.830890  1.395875
      ESP Fit Center  516 is at  12.549980 -3.803860  1.395875
      ESP Fit Center  517 is at  11.603464 -3.257389  1.395875
      ESP Fit Center  518 is at  12.549980 -3.803860  0.357577
      ESP Fit Center  519 is at  11.603464 -3.257389  0.357577
      ESP Fit Center  520 is at  12.903920 -6.728881  1.818681
      ESP Fit Center  521 is at  12.378920 -5.819554  1.818681
      ESP Fit Center  522 is at  10.282047 -8.121439  0.000028
      ESP Fit Center  523 is at  11.109250 -8.692415  0.000028
      ESP Fit Center  524 is at  12.107047 -8.813570  0.000028
      ESP Fit Center  525 is at  13.046856 -8.457147  0.000028
      ESP Fit Center  526 is at  12.903920 -6.728881 -1.818625
      ESP Fit Center  527 is at  12.378920 -5.819554 -1.818625
      ESP Fit Center  528 is at  13.907411 -6.526285  1.359155
      ESP Fit Center  529 is at  13.225080 -5.587136  1.359155
      ESP Fit Center  530 is at  14.517707 -6.526285  0.519155
      ESP Fit Center  531 is at  14.143899 -5.499255  0.519155
      ESP Fit Center  532 is at  13.197383 -4.952784  0.519155
      ESP Fit Center  533 is at  14.143899 -7.553315  0.519155
      ESP Fit Center  534 is at  14.517707 -6.526285 -0.519143
      ESP Fit Center  535 is at  14.143899 -5.499255 -0.519143
      ESP Fit Center  536 is at  13.197383 -4.952784 -0.519143
      ESP Fit Center  537 is at  14.143899 -7.553315 -0.519143
      ESP Fit Center  538 is at  13.907411 -6.526285 -1.359143
      ESP Fit Center  539 is at  13.225080 -5.587136 -1.359143
      ESP Fit Center  540 is at  11.623460 -7.321072  2.558622
      ESP Fit Center  541 is at  12.610939 -7.321072  2.237771
      ESP Fit Center  542 is at  11.928608 -6.381923  2.237771
      ESP Fit Center  543 is at  10.824573 -6.740646  2.237771
      ESP Fit Center  544 is at  10.824573 -7.901498  2.237771
      ESP Fit Center  545 is at  11.928608 -8.260221  2.237771
      ESP Fit Center  546 is at  10.122043 -7.867543  1.397771
      ESP Fit Center  547 is at  10.824573 -8.704786  1.397771
      ESP Fit Center  548 is at  11.900911 -8.894573  1.397771
      ESP Fit Center  549 is at  12.847427 -8.348102  1.397771
      ESP Fit Center  550 is at  10.824573 -8.704786  0.359473
      ESP Fit Center  551 is at  11.900911 -8.894573  0.359473
      ESP Fit Center  552 is at  10.824547 -8.704842 -0.359373
      ESP Fit Center  553 is at  11.900885 -8.894629 -0.359373
      ESP Fit Center  554 is at  10.122017 -7.867599 -1.397671
      ESP Fit Center  555 is at  10.824547 -8.704842 -1.397671
      ESP Fit Center  556 is at  11.900885 -8.894629 -1.397671
      ESP Fit Center  557 is at  12.847401 -8.348158 -1.397671
      ESP Fit Center  558 is at  12.610913 -7.321128 -2.237671
      ESP Fit Center  559 is at  11.928582 -6.381979 -2.237671
      ESP Fit Center  560 is at  10.824547 -6.740702 -2.237671
      ESP Fit Center  561 is at  10.824547 -7.901554 -2.237671
      ESP Fit Center  562 is at  11.928582 -8.260277 -2.237671
      ESP Fit Center  563 is at  11.623434 -7.321128 -2.558522
      ESP Fit Center  564 is at  -8.534925  7.504007  2.162251
      ESP Fit Center  565 is at  -8.722382  8.922092  1.496302
      ESP Fit Center  566 is at  -8.014264  9.785170  0.533976
      ESP Fit Center  567 is at  -8.014264  9.785170 -0.534124
      ESP Fit Center  568 is at  -8.722382  8.922092 -1.496450
      ESP Fit Center  569 is at  -8.534925  7.504007 -2.162399
      ESP Fit Center  570 is at  -9.045138  8.509298  1.662682
      ESP Fit Center  571 is at  -9.525138  7.677914  1.662682
      ESP Fit Center  572 is at  -9.078962  9.259301  0.959913
      ESP Fit Center  573 is at  -9.910346  8.655265  0.959913
      ESP Fit Center  574 is at -10.227907  7.677914  0.959913
      ESP Fit Center  575 is at  -9.910346  6.700563  0.959913
      ESP Fit Center  576 is at  -9.525138  9.340683 -0.000087
      ESP Fit Center  577 is at -10.227907  8.637914 -0.000087
      ESP Fit Center  578 is at -10.485138  7.677914 -0.000087
      ESP Fit Center  579 is at -10.227907  6.717914 -0.000087
      ESP Fit Center  580 is at  -9.078962  9.259301 -0.960087
      ESP Fit Center  581 is at  -9.910346  8.655265 -0.960087
      ESP Fit Center  582 is at -10.227907  7.677914 -0.960087
      ESP Fit Center  583 is at  -9.910346  6.700563 -0.960087
      ESP Fit Center  584 is at  -9.045138  8.509298 -1.662856
      ESP Fit Center  585 is at  -9.525138  7.677914 -1.662856
      ESP Fit Center  586 is at  -7.067439  7.974676  2.798693
      ESP Fit Center  587 is at  -6.107439  7.974676  2.541462
      ESP Fit Center  588 is at  -6.587439  8.806060  2.541462
      ESP Fit Center  589 is at  -7.547439  8.806060  2.541462
      ESP Fit Center  590 is at  -8.027439  7.974676  2.541462
      ESP Fit Center  591 is at  -7.547439  7.143292  2.541462
      ESP Fit Center  592 is at  -6.587439  7.143292  2.541462
      ESP Fit Center  593 is at  -5.404670  7.974676  1.838693
      ESP Fit Center  594 is at  -5.722231  8.952027  1.838693
      ESP Fit Center  595 is at  -6.553615  9.556063  1.838693
      ESP Fit Center  596 is at  -7.581263  9.556063  1.838693
      ESP Fit Center  597 is at  -8.412647  8.952027  1.838693
      ESP Fit Center  598 is at  -5.147439  7.974676  0.878693
      ESP Fit Center  599 is at  -5.404670  8.934676  0.878693
      ESP Fit Center  600 is at  -6.107439  9.637445  0.878693
      ESP Fit Center  601 is at  -7.067439  9.894676  0.878693
      ESP Fit Center  602 is at  -5.147422  7.974660 -0.878841
      ESP Fit Center  603 is at  -5.404653  8.934660 -0.878841
      ESP Fit Center  604 is at  -6.107422  9.637429 -0.878841
      ESP Fit Center  605 is at  -7.067422  9.894660 -0.878841
      ESP Fit Center  606 is at  -5.404653  7.974660 -1.838841
      ESP Fit Center  607 is at  -5.722214  8.952011 -1.838841
      ESP Fit Center  608 is at  -6.553598  9.556047 -1.838841
      ESP Fit Center  609 is at  -7.581246  9.556047 -1.838841
      ESP Fit Center  610 is at  -8.412630  8.952011 -1.838841
      ESP Fit Center  611 is at  -6.107422  7.974660 -2.541610
      ESP Fit Center  612 is at  -6.587422  8.806044 -2.541610
      ESP Fit Center  613 is at  -7.547422  8.806044 -2.541610
      ESP Fit Center  614 is at  -8.027422  7.974660 -2.541610
      ESP Fit Center  615 is at  -7.547422  7.143276 -2.541610
      ESP Fit Center  616 is at  -6.587422  7.143276 -2.541610
      ESP Fit Center  617 is at  -7.067422  7.974660 -2.798841
      ESP Fit Center  618 is at  -9.536706  6.017418  0.533993
      ESP Fit Center  619 is at  -9.536706  6.017418 -0.534107
      ESP Fit Center  620 is at  -7.632970  5.541437  2.797337
      ESP Fit Center  621 is at  -6.672970  5.541437  2.540106
      ESP Fit Center  622 is at  -7.152970  6.372821  2.540106
      ESP Fit Center  623 is at  -8.112970  6.372821  2.540106
      ESP Fit Center  624 is at  -8.592970  5.541437  2.540106
      ESP Fit Center  625 is at  -8.112970  4.710053  2.540106
      ESP Fit Center  626 is at  -7.152970  4.710053  2.540106
      ESP Fit Center  627 is at  -8.978178  6.518788  1.837337
      ESP Fit Center  628 is at  -9.295739  5.541437  1.837337
      ESP Fit Center  629 is at  -8.978178  4.564086  1.837337
      ESP Fit Center  630 is at  -8.146794  3.960050  1.837337
      ESP Fit Center  631 is at  -9.552970  5.541437  0.877337
      ESP Fit Center  632 is at  -9.295739  4.581437  0.877337
      ESP Fit Center  633 is at  -8.592970  3.878668  0.877337
      ESP Fit Center  634 is at  -9.552949  5.541422 -0.877452
      ESP Fit Center  635 is at  -9.295718  4.581422 -0.877452
      ESP Fit Center  636 is at  -8.592949  3.878653 -0.877452
      ESP Fit Center  637 is at  -8.978157  6.518773 -1.837452
      ESP Fit Center  638 is at  -9.295718  5.541422 -1.837452
      ESP Fit Center  639 is at  -8.978157  4.564071 -1.837452
      ESP Fit Center  640 is at  -8.146773  3.960035 -1.837452
      ESP Fit Center  641 is at  -6.672949  5.541422 -2.540221
      ESP Fit Center  642 is at  -7.152949  6.372806 -2.540221
      ESP Fit Center  643 is at  -8.112949  6.372806 -2.540221
      ESP Fit Center  644 is at  -8.592949  5.541422 -2.540221
      ESP Fit Center  645 is at  -8.112949  4.710038 -2.540221
      ESP Fit Center  646 is at  -7.152949  4.710038 -2.540221
      ESP Fit Center  647 is at  -7.632949  5.541422 -2.797452
      ESP Fit Center  648 is at  -5.810254  5.839986  2.239961
      ESP Fit Center  649 is at  -4.838354  5.839986  2.018131
      ESP Fit Center  650 is at  -5.324304  6.681676  2.018131
      ESP Fit Center  651 is at  -4.393420  6.869376  1.396578
      ESP Fit Center  652 is at  -5.269072  7.505574  1.396578
      ESP Fit Center  653 is at  -4.569692  7.637250  0.498408
      ESP Fit Center  654 is at  -4.569692  7.637250 -0.498486
      ESP Fit Center  655 is at  -4.393420  6.869376 -1.396656
      ESP Fit Center  656 is at  -5.269072  7.505574 -1.396656
      ESP Fit Center  657 is at  -4.838354  5.839986 -2.018209
      ESP Fit Center  658 is at  -5.324304  6.681676 -2.018209
      ESP Fit Center  659 is at  -5.810254  5.839986 -2.240039
      ESP Fit Center  660 is at  -7.423136  3.025059 -0.878955
      ESP Fit Center  661 is at  -6.720367  2.322290 -0.878955
      ESP Fit Center  662 is at  -5.760367  2.065059 -0.878955
      ESP Fit Center  663 is at  -7.105575  3.007708 -1.838955
      ESP Fit Center  664 is at  -6.274191  2.403672 -1.838955
      ESP Fit Center  665 is at  -5.246543  2.403672 -1.838955
      ESP Fit Center  666 is at  -4.800367  3.985059 -2.541724
      ESP Fit Center  667 is at  -5.280367  4.816443 -2.541724
      ESP Fit Center  668 is at  -6.240367  4.816443 -2.541724
      ESP Fit Center  669 is at  -6.720367  3.985059 -2.541724
      ESP Fit Center  670 is at  -6.240367  3.153675 -2.541724
      ESP Fit Center  671 is at  -5.280367  3.153675 -2.541724
      ESP Fit Center  672 is at  -5.760367  3.985059 -2.798955
      ESP Fit Center  673 is at  -5.760383  3.985061  2.798885
      ESP Fit Center  674 is at  -4.800383  3.985061  2.541654
      ESP Fit Center  675 is at  -5.280383  4.816445  2.541654
      ESP Fit Center  676 is at  -6.240383  4.816445  2.541654
      ESP Fit Center  677 is at  -6.720383  3.985061  2.541654
      ESP Fit Center  678 is at  -6.240383  3.153677  2.541654
      ESP Fit Center  679 is at  -5.280383  3.153677  2.541654
      ESP Fit Center  680 is at  -7.105591  3.007710  1.838885
      ESP Fit Center  681 is at  -6.274207  2.403674  1.838885
      ESP Fit Center  682 is at  -5.246559  2.403674  1.838885
      ESP Fit Center  683 is at  -7.423152  3.025061  0.878885
      ESP Fit Center  684 is at  -6.720383  2.322292  0.878885
      ESP Fit Center  685 is at  -5.760383  2.065061  0.878885
      ESP Fit Center  686 is at  -1.846082  5.988574 -0.879044
      ESP Fit Center  687 is at  -2.548851  6.691343 -0.879044
      ESP Fit Center  688 is at  -3.508851  6.948574 -0.879044
      ESP Fit Center  689 is at  -2.163643  6.005925 -1.839044
      ESP Fit Center  690 is at  -2.995027  6.609961 -1.839044
      ESP Fit Center  691 is at  -4.022675  6.609961 -1.839044
      ESP Fit Center  692 is at  -2.548851  5.028574 -2.541813
      ESP Fit Center  693 is at  -3.028851  5.859958 -2.541813
      ESP Fit Center  694 is at  -3.988851  5.859958 -2.541813
      ESP Fit Center  695 is at  -4.468851  5.028574 -2.541813
      ESP Fit Center  696 is at  -3.988851  4.197190 -2.541813
      ESP Fit Center  697 is at  -3.028851  4.197190 -2.541813
      ESP Fit Center  698 is at  -3.508851  5.028574 -2.799044
      ESP Fit Center  699 is at  -3.508866  5.028580  2.799008
      ESP Fit Center  700 is at  -2.548866  5.028580  2.541777
      ESP Fit Center  701 is at  -3.028866  5.859964  2.541777
      ESP Fit Center  702 is at  -3.988866  5.859964  2.541777
      ESP Fit Center  703 is at  -4.468866  5.028580  2.541777
      ESP Fit Center  704 is at  -3.988866  4.197196  2.541777
      ESP Fit Center  705 is at  -3.028866  4.197196  2.541777
      ESP Fit Center  706 is at  -2.163658  6.005931  1.839008
      ESP Fit Center  707 is at  -2.995042  6.609967  1.839008
      ESP Fit Center  708 is at  -4.022690  6.609967  1.839008
      ESP Fit Center  709 is at  -1.846097  5.988580  0.879008
      ESP Fit Center  710 is at  -2.548866  6.691349  0.879008
      ESP Fit Center  711 is at  -3.508866  6.948580  0.879008
      ESP Fit Center  712 is at  -3.457332  3.174108  2.239990
      ESP Fit Center  713 is at  -4.429232  3.174108  2.018160
      ESP Fit Center  714 is at  -3.943282  2.332418  2.018160
      ESP Fit Center  715 is at  -4.874166  2.144718  1.396607
      ESP Fit Center  716 is at  -5.091959  1.725955  0.498437
      ESP Fit Center  717 is at  -4.231732  1.132184  0.498437
      ESP Fit Center  718 is at  -5.091959  1.725955 -0.498457
      ESP Fit Center  719 is at  -4.231732  1.132184 -0.498457
      ESP Fit Center  720 is at  -4.874166  2.144718 -1.396627
      ESP Fit Center  721 is at  -4.429232  3.174108 -2.018180
      ESP Fit Center  722 is at  -3.943282  2.332418 -2.018180
      ESP Fit Center  723 is at  -3.457332  3.174108 -2.240010
      ESP Fit Center  724 is at  -1.623599  3.453890  2.799023
      ESP Fit Center  725 is at  -0.663599  3.453890  2.541792
      ESP Fit Center  726 is at  -1.143599  4.285274  2.541792
      ESP Fit Center  727 is at  -2.103599  4.285274  2.541792
      ESP Fit Center  728 is at  -2.583599  3.453890  2.541792
      ESP Fit Center  729 is at  -2.103599  2.622506  2.541792
      ESP Fit Center  730 is at  -1.143599  2.622506  2.541792
      ESP Fit Center  731 is at   0.039170  3.453890  1.839023
      ESP Fit Center  732 is at  -0.278391  4.431241  1.839023
      ESP Fit Center  733 is at  -1.109775  5.035277  1.839023
      ESP Fit Center  734 is at   0.296401  3.453890  0.879023
      ESP Fit Center  735 is at   0.039170  4.413890  0.879023
      ESP Fit Center  736 is at  -0.663599  5.116659  0.879023
      ESP Fit Center  737 is at   0.296405  3.453887 -0.879036
      ESP Fit Center  738 is at   0.039174  4.413887 -0.879036
      ESP Fit Center  739 is at  -0.663595  5.116656 -0.879036
      ESP Fit Center  740 is at   0.039174  3.453887 -1.839036
      ESP Fit Center  741 is at  -0.278387  4.431238 -1.839036
      ESP Fit Center  742 is at  -1.109771  5.035274 -1.839036
      ESP Fit Center  743 is at  -0.663595  3.453887 -2.541805
      ESP Fit Center  744 is at  -1.143595  4.285271 -2.541805
      ESP Fit Center  745 is at  -2.103595  4.285271 -2.541805
      ESP Fit Center  746 is at  -2.583595  3.453887 -2.541805
      ESP Fit Center  747 is at  -2.103595  2.622503 -2.541805
      ESP Fit Center  748 is at  -1.143595  2.622503 -2.541805
      ESP Fit Center  749 is at  -1.623595  3.453887 -2.799036
      ESP Fit Center  750 is at  -4.171104  1.052867 -0.879194
      ESP Fit Center  751 is at  -3.913873  0.092867 -0.879194
      ESP Fit Center  752 is at  -3.211104 -0.609902 -0.879194
      ESP Fit Center  753 is at  -3.913873  1.052867 -1.839194
      ESP Fit Center  754 is at  -3.596312  0.075516 -1.839194
      ESP Fit Center  755 is at  -2.764928 -0.528520 -1.839194
      ESP Fit Center  756 is at  -1.291104  1.052867 -2.541963
      ESP Fit Center  757 is at  -1.771104  1.884251 -2.541963
      ESP Fit Center  758 is at  -2.731104  1.884251 -2.541963
      ESP Fit Center  759 is at  -3.211104  1.052867 -2.541963
      ESP Fit Center  760 is at  -2.731104  0.221483 -2.541963
      ESP Fit Center  761 is at  -1.771104  0.221483 -2.541963
      ESP Fit Center  762 is at  -2.251104  1.052867 -2.799194
      ESP Fit Center  763 is at  -2.251109  1.052870  2.799186
      ESP Fit Center  764 is at  -1.291109  1.052870  2.541955
      ESP Fit Center  765 is at  -1.771109  1.884254  2.541955
      ESP Fit Center  766 is at  -2.731109  1.884254  2.541955
      ESP Fit Center  767 is at  -3.211109  1.052870  2.541955
      ESP Fit Center  768 is at  -2.731109  0.221486  2.541955
      ESP Fit Center  769 is at  -1.771109  0.221486  2.541955
      ESP Fit Center  770 is at  -3.913878  1.052870  1.839186
      ESP Fit Center  771 is at  -3.596317  0.075519  1.839186
      ESP Fit Center  772 is at  -2.764933 -0.528517  1.839186
      ESP Fit Center  773 is at  -4.171109  1.052870  0.879186
      ESP Fit Center  774 is at  -3.913878  0.092870  0.879186
      ESP Fit Center  775 is at  -3.211109 -0.609899  0.879186
      ESP Fit Center  776 is at  -0.416144  1.331776  2.240000
      ESP Fit Center  777 is at   0.555756  1.331776  2.018170
      ESP Fit Center  778 is at   0.069806  2.173466  2.018170
      ESP Fit Center  779 is at   1.000690  2.361166  1.396617
      ESP Fit Center  780 is at   0.824418  3.129040  0.498447
      ESP Fit Center  781 is at   0.824418  3.129040 -0.498447
      ESP Fit Center  782 is at   1.000690  2.361166 -1.396617
      ESP Fit Center  783 is at   0.555756  1.331776 -2.018170
      ESP Fit Center  784 is at   0.069806  2.173466 -2.018170
      ESP Fit Center  785 is at  -0.416144  1.331776 -2.240000
      ESP Fit Center  786 is at  -2.042313 -1.476544 -0.879039
      ESP Fit Center  787 is at  -1.339544 -2.179313 -0.879039
      ESP Fit Center  788 is at  -1.724752 -1.493895 -1.839039
      ESP Fit Center  789 is at  -0.893368 -2.097931 -1.839039
      ESP Fit Center  790 is at   0.580456 -0.516544 -2.541808
      ESP Fit Center  791 is at   0.100456  0.314840 -2.541808
      ESP Fit Center  792 is at  -0.859544  0.314840 -2.541808
      ESP Fit Center  793 is at  -1.339544 -0.516544 -2.541808
      ESP Fit Center  794 is at  -0.859544 -1.347928 -2.541808
      ESP Fit Center  795 is at   0.100456 -1.347928 -2.541808
      ESP Fit Center  796 is at  -0.379544 -0.516544 -2.799039
      ESP Fit Center  797 is at  -0.379544 -0.516543  2.799040
      ESP Fit Center  798 is at   0.580456 -0.516543  2.541809
      ESP Fit Center  799 is at   0.100456  0.314841  2.541809
      ESP Fit Center  800 is at  -0.859544  0.314841  2.541809
      ESP Fit Center  801 is at  -1.339544 -0.516543  2.541809
      ESP Fit Center  802 is at  -0.859544 -1.347927  2.541809
      ESP Fit Center  803 is at   0.100456 -1.347927  2.541809
      ESP Fit Center  804 is at  -1.724752 -1.493894  1.839040
      ESP Fit Center  805 is at  -0.893368 -2.097930  1.839040
      ESP Fit Center  806 is at  -2.042313 -1.476543  0.879040
      ESP Fit Center  807 is at  -1.339544 -2.179312  0.879040
      ESP Fit Center  808 is at   1.877498  0.522264  2.798387
      ESP Fit Center  809 is at   2.837498  0.522264  2.541156
      ESP Fit Center  810 is at   2.357498  1.353648  2.541156
      ESP Fit Center  811 is at   1.397498  1.353648  2.541156
      ESP Fit Center  812 is at   0.917498  0.522264  2.541156
      ESP Fit Center  813 is at   1.397498 -0.309120  2.541156
      ESP Fit Center  814 is at   2.357498 -0.309120  2.541156
      ESP Fit Center  815 is at   3.222706  1.499615  1.838387
      ESP Fit Center  816 is at   2.391322  2.103651  1.838387
      ESP Fit Center  817 is at   1.363674  2.103651  1.838387
      ESP Fit Center  818 is at   3.540267  1.482264  0.878387
      ESP Fit Center  819 is at   2.837498  2.185033  0.878387
      ESP Fit Center  820 is at   1.877498  2.442264  0.878387
      ESP Fit Center  821 is at   3.540267  1.482247 -0.878397
      ESP Fit Center  822 is at   2.837498  2.185016 -0.878397
      ESP Fit Center  823 is at   1.877498  2.442247 -0.878397
      ESP Fit Center  824 is at   3.222706  1.499598 -1.838397
      ESP Fit Center  825 is at   2.391322  2.103634 -1.838397
      ESP Fit Center  826 is at   1.363674  2.103634 -1.838397
      ESP Fit Center  827 is at   2.837498  0.522247 -2.541166
      ESP Fit Center  828 is at   2.357498  1.353631 -2.541166
      ESP Fit Center  829 is at   1.397498  1.353631 -2.541166
      ESP Fit Center  830 is at   0.917498  0.522247 -2.541166
      ESP Fit Center  831 is at   1.397498 -0.309137 -2.541166
      ESP Fit Center  832 is at   2.357498 -0.309137 -2.541166
      ESP Fit Center  833 is at   1.877498  0.522247 -2.798397
      ESP Fit Center  834 is at   2.148899 -1.704702  2.800015
      ESP Fit Center  835 is at   3.220413 -1.704702  2.586878
      ESP Fit Center  836 is at   2.684656 -0.776744  2.586878
      ESP Fit Center  837 is at   1.613142 -0.776744  2.586878
      ESP Fit Center  838 is at   1.077385 -1.704702  2.586878
      ESP Fit Center  839 is at   1.613142 -2.632660  2.586878
      ESP Fit Center  840 is at   2.684656 -2.632660  2.586878
      ESP Fit Center  841 is at   0.434256 -2.694651  1.979914
      ESP Fit Center  842 is at   1.158950 -3.419345  1.979914
      ESP Fit Center  843 is at   2.148899 -3.684601  1.979914
      ESP Fit Center  844 is at   0.056083 -3.225222  1.071529
      ESP Fit Center  845 is at   0.855468 -3.944991  1.071529
      ESP Fit Center  846 is at   1.878498 -4.277394  1.071529
      ESP Fit Center  847 is at  -0.231709 -3.178712  0.000015
      ESP Fit Center  848 is at   0.461522 -3.939150  0.000015
      ESP Fit Center  849 is at   1.382643 -4.397814  0.000015
      ESP Fit Center  850 is at   2.407250 -4.492758  0.000015
      ESP Fit Center  851 is at   0.056083 -3.225222 -1.071499
      ESP Fit Center  852 is at   0.855468 -3.944991 -1.071499
      ESP Fit Center  853 is at   1.878498 -4.277394 -1.071499
      ESP Fit Center  854 is at   0.434256 -2.694651 -1.979884
      ESP Fit Center  855 is at   1.158950 -3.419345 -1.979884
      ESP Fit Center  856 is at   2.148899 -3.684601 -1.979884
      ESP Fit Center  857 is at   3.220413 -1.704702 -2.586848
      ESP Fit Center  858 is at   2.684656 -0.776744 -2.586848
      ESP Fit Center  859 is at   1.613142 -0.776744 -2.586848
      ESP Fit Center  860 is at   1.077385 -1.704702 -2.586848
      ESP Fit Center  861 is at   1.613142 -2.632660 -2.586848
      ESP Fit Center  862 is at   2.684656 -2.632660 -2.586848
      ESP Fit Center  863 is at   2.148899 -1.704702 -2.799985
      ESP Fit Center  864 is at   5.151008  0.871713 -0.878123
      ESP Fit Center  865 is at   4.191008  1.128944 -0.878123
      ESP Fit Center  866 is at   5.536216  0.186295 -1.838123
      ESP Fit Center  867 is at   4.704832  0.790331 -1.838123
      ESP Fit Center  868 is at   3.677184  0.790331 -1.838123
      ESP Fit Center  869 is at   5.151008 -0.791056 -2.540892
      ESP Fit Center  870 is at   4.671008  0.040328 -2.540892
      ESP Fit Center  871 is at   3.711008  0.040328 -2.540892
      ESP Fit Center  872 is at   3.231008 -0.791056 -2.540892
      ESP Fit Center  873 is at   3.711008 -1.622440 -2.540892
      ESP Fit Center  874 is at   4.671008 -1.622440 -2.540892
      ESP Fit Center  875 is at   4.191008 -0.791056 -2.798123
      ESP Fit Center  876 is at   4.191023 -0.791021  2.798082
      ESP Fit Center  877 is at   5.151023 -0.791021  2.540851
      ESP Fit Center  878 is at   4.671023  0.040363  2.540851
      ESP Fit Center  879 is at   3.711023  0.040363  2.540851
      ESP Fit Center  880 is at   3.231023 -0.791021  2.540851
      ESP Fit Center  881 is at   3.711023 -1.622405  2.540851
      ESP Fit Center  882 is at   4.671023 -1.622405  2.540851
      ESP Fit Center  883 is at   5.536231  0.186330  1.838082
      ESP Fit Center  884 is at   4.704847  0.790366  1.838082
      ESP Fit Center  885 is at   3.677199  0.790366  1.838082
      ESP Fit Center  886 is at   5.151023  0.871748  0.878082
      ESP Fit Center  887 is at   4.191023  1.128979  0.878082
      ESP Fit Center  888 is at   3.487798 -4.933544 -0.878161
      ESP Fit Center  889 is at   4.447798 -5.190775 -0.878161
      ESP Fit Center  890 is at   3.102590 -4.248126 -1.838161
      ESP Fit Center  891 is at   3.933974 -4.852162 -1.838161
      ESP Fit Center  892 is at   4.961622 -4.852162 -1.838161
      ESP Fit Center  893 is at   5.407798 -3.270775 -2.540930
      ESP Fit Center  894 is at   4.927798 -2.439391 -2.540930
      ESP Fit Center  895 is at   3.967798 -2.439391 -2.540930
      ESP Fit Center  896 is at   3.487798 -3.270775 -2.540930
      ESP Fit Center  897 is at   3.967798 -4.102159 -2.540930
      ESP Fit Center  898 is at   4.927798 -4.102159 -2.540930
      ESP Fit Center  899 is at   4.447798 -3.270775 -2.798161
      ESP Fit Center  900 is at   4.447821 -3.270733  2.798225
      ESP Fit Center  901 is at   5.407821 -3.270733  2.540994
      ESP Fit Center  902 is at   4.927821 -2.439349  2.540994
      ESP Fit Center  903 is at   3.967821 -2.439349  2.540994
      ESP Fit Center  904 is at   3.487821 -3.270733  2.540994
      ESP Fit Center  905 is at   3.967821 -4.102117  2.540994
      ESP Fit Center  906 is at   4.927821 -4.102117  2.540994
      ESP Fit Center  907 is at   3.102613 -4.248084  1.838225
      ESP Fit Center  908 is at   3.933997 -4.852120  1.838225
      ESP Fit Center  909 is at   4.961645 -4.852120  1.838225
      ESP Fit Center  910 is at   3.487821 -4.933502  0.878225
      ESP Fit Center  911 is at   4.447821 -5.190733  0.878225
      ESP Fit Center  912 is at   6.490629 -2.356675  2.799984
      ESP Fit Center  913 is at   7.562143 -2.356675  2.586847
      ESP Fit Center  914 is at   7.026386 -1.428717  2.586847
      ESP Fit Center  915 is at   5.954872 -1.428717  2.586847
      ESP Fit Center  916 is at   5.419115 -2.356675  2.586847
      ESP Fit Center  917 is at   5.954872 -3.284633  2.586847
      ESP Fit Center  918 is at   7.026386 -3.284633  2.586847
      ESP Fit Center  919 is at   8.205272 -1.366726  1.979883
      ESP Fit Center  920 is at   7.480578 -0.642032  1.979883
      ESP Fit Center  921 is at   6.490629 -0.376776  1.979883
      ESP Fit Center  922 is at   8.853846 -1.304503  1.071498
      ESP Fit Center  923 is at   8.221578 -0.434261  1.071498
      ESP Fit Center  924 is at   7.290014  0.103578  1.071498
      ESP Fit Center  925 is at   6.220228  0.216017  1.071498
      ESP Fit Center  926 is at   9.101551 -1.345198 -0.000016
      ESP Fit Center  927 is at   8.559854 -0.470327 -0.000016
      ESP Fit Center  928 is at   7.738696  0.149782 -0.000016
      ESP Fit Center  929 is at   6.748980  0.431381 -0.000016
      ESP Fit Center  930 is at   5.724373  0.336437 -0.000016
      ESP Fit Center  931 is at   8.853846 -1.304503 -1.071530
      ESP Fit Center  932 is at   8.221578 -0.434261 -1.071530
      ESP Fit Center  933 is at   7.290014  0.103578 -1.071530
      ESP Fit Center  934 is at   6.220228  0.216017 -1.071530
      ESP Fit Center  935 is at   8.205272 -1.366726 -1.979915
      ESP Fit Center  936 is at   7.480578 -0.642032 -1.979915
      ESP Fit Center  937 is at   6.490629 -0.376776 -1.979915
      ESP Fit Center  938 is at   7.562143 -2.356675 -2.586879
      ESP Fit Center  939 is at   7.026386 -1.428717 -2.586879
      ESP Fit Center  940 is at   5.954872 -1.428717 -2.586879
      ESP Fit Center  941 is at   5.419115 -2.356675 -2.586879
      ESP Fit Center  942 is at   5.954872 -3.284633 -2.586879
      ESP Fit Center  943 is at   7.026386 -3.284633 -2.586879
      ESP Fit Center  944 is at   6.490629 -2.356675 -2.800016
      ESP Fit Center  945 is at   5.096374 -5.538444 -0.878123
      ESP Fit Center  946 is at   5.799143 -6.241213 -0.878123
      ESP Fit Center  947 is at   5.413935 -5.555795 -1.838123
      ESP Fit Center  948 is at   6.245319 -6.159831 -1.838123
      ESP Fit Center  949 is at   7.719143 -4.578444 -2.540892
      ESP Fit Center  950 is at   7.239143 -3.747060 -2.540892
      ESP Fit Center  951 is at   6.279143 -3.747060 -2.540892
      ESP Fit Center  952 is at   5.799143 -4.578444 -2.540892
      ESP Fit Center  953 is at   6.279143 -5.409828 -2.540892
      ESP Fit Center  954 is at   7.239143 -5.409828 -2.540892
      ESP Fit Center  955 is at   6.759143 -4.578444 -2.798123
      ESP Fit Center  956 is at   6.759173 -4.578395  2.798206
      ESP Fit Center  957 is at   7.719173 -4.578395  2.540975
      ESP Fit Center  958 is at   7.239173 -3.747011  2.540975
      ESP Fit Center  959 is at   6.279173 -3.747011  2.540975
      ESP Fit Center  960 is at   5.799173 -4.578395  2.540975
      ESP Fit Center  961 is at   6.279173 -5.409779  2.540975
      ESP Fit Center  962 is at   7.239173 -5.409779  2.540975
      ESP Fit Center  963 is at   5.413965 -5.555746  1.838206
      ESP Fit Center  964 is at   6.245349 -6.159782  1.838206
      ESP Fit Center  965 is at   5.096404 -5.538395  0.878206
      ESP Fit Center  966 is at   5.799173 -6.241164  0.878206
      ESP Fit Center  967 is at  10.679017 -2.561043 -0.877973
      ESP Fit Center  968 is at   9.976248 -1.858274 -0.877973
      ESP Fit Center  969 is at  10.361456 -2.543692 -1.837973
      ESP Fit Center  970 is at   9.530072 -1.939656 -1.837973
      ESP Fit Center  971 is at   9.976248 -3.521043 -2.540742
      ESP Fit Center  972 is at   9.496248 -2.689659 -2.540742
      ESP Fit Center  973 is at   8.536248 -2.689659 -2.540742
      ESP Fit Center  974 is at   8.056248 -3.521043 -2.540742
      ESP Fit Center  975 is at   8.536248 -4.352427 -2.540742
      ESP Fit Center  976 is at   9.496248 -4.352427 -2.540742
      ESP Fit Center  977 is at   9.016248 -3.521043 -2.797973
      ESP Fit Center  978 is at   9.016278 -3.520989  2.797919
      ESP Fit Center  979 is at   9.976278 -3.520989  2.540688
      ESP Fit Center  980 is at   9.496278 -2.689605  2.540688
      ESP Fit Center  981 is at   8.536278 -2.689605  2.540688
      ESP Fit Center  982 is at   8.056278 -3.520989  2.540688
      ESP Fit Center  983 is at   8.536278 -4.352373  2.540688
      ESP Fit Center  984 is at   9.496278 -4.352373  2.540688
      ESP Fit Center  985 is at  10.361486 -2.543638  1.837919
      ESP Fit Center  986 is at   9.530102 -1.939602  1.837919
      ESP Fit Center  987 is at  10.679047 -2.560989  0.877919
      ESP Fit Center  988 is at   9.976278 -1.858220  0.877919
      ESP Fit Center  989 is at   9.286660 -5.743029  2.800037
      ESP Fit Center  990 is at  10.358174 -5.743029  2.586900
      ESP Fit Center  991 is at   9.822417 -4.815071  2.586900
      ESP Fit Center  992 is at   8.750903 -4.815071  2.586900
      ESP Fit Center  993 is at   8.215146 -5.743029  2.586900
      ESP Fit Center  994 is at   8.750903 -6.670987  2.586900
      ESP Fit Center  995 is at   9.822417 -6.670987  2.586900
      ESP Fit Center  996 is at   7.572017 -6.732978  1.979936
      ESP Fit Center  997 is at   8.296711 -7.457672  1.979936
      ESP Fit Center  998 is at   9.286660 -7.722928  1.979936
      ESP Fit Center  999 is at   7.193844 -7.263549  1.071551
      ESP Fit Center 1000 is at   7.993229 -7.983318  1.071551
      ESP Fit Center 1001 is at   9.016259 -8.315721  1.071551
      ESP Fit Center 1002 is at   6.906052 -7.217039  0.000037
      ESP Fit Center 1003 is at   7.599283 -7.977477  0.000037
      ESP Fit Center 1004 is at   8.520404 -8.436141  0.000037
      ESP Fit Center 1005 is at   9.545011 -8.531085  0.000037
      ESP Fit Center 1006 is at   7.193844 -7.263549 -1.071477
      ESP Fit Center 1007 is at   7.993229 -7.983318 -1.071477
      ESP Fit Center 1008 is at   9.016259 -8.315721 -1.071477
      ESP Fit Center 1009 is at   7.572017 -6.732978 -1.979862
      ESP Fit Center 1010 is at   8.296711 -7.457672 -1.979862
      ESP Fit Center 1011 is at   9.286660 -7.722928 -1.979862
      ESP Fit Center 1012 is at  10.358174 -5.743029 -2.586826
      ESP Fit Center 1013 is at   9.822417 -4.815071 -2.586826
      ESP Fit Center 1014 is at   8.750903 -4.815071 -2.586826
      ESP Fit Center 1015 is at   8.215146 -5.743029 -2.586826
      ESP Fit Center 1016 is at   8.750903 -6.670987 -2.586826
      ESP Fit Center 1017 is at   9.822417 -6.670987 -2.586826
      ESP Fit Center 1018 is at   9.286660 -5.743029 -2.799963
      ESP Fit Center 1019 is at  13.183394 -4.401262  0.534048
      ESP Fit Center 1020 is at  13.183394 -4.401262 -0.534052
      ESP Fit Center 1021 is at  13.245985 -4.830945 -0.876775
      ESP Fit Center 1022 is at  12.988754 -3.870945 -0.876775
      ESP Fit Center 1023 is at  12.285985 -3.168176 -0.876775
      ESP Fit Center 1024 is at  11.325985 -2.910945 -0.876775
      ESP Fit Center 1025 is at  12.988754 -4.830945 -1.836775
      ESP Fit Center 1026 is at  12.671193 -3.853594 -1.836775
      ESP Fit Center 1027 is at  11.839809 -3.249558 -1.836775
      ESP Fit Center 1028 is at  10.812161 -3.249558 -1.836775
      ESP Fit Center 1029 is at  12.285985 -4.830945 -2.539544
      ESP Fit Center 1030 is at  11.805985 -3.999561 -2.539544
      ESP Fit Center 1031 is at  10.845985 -3.999561 -2.539544
      ESP Fit Center 1032 is at  10.365985 -4.830945 -2.539544
      ESP Fit Center 1033 is at  10.845985 -5.662329 -2.539544
      ESP Fit Center 1034 is at  11.805985 -5.662329 -2.539544
      ESP Fit Center 1035 is at  11.325985 -4.830945 -2.796775
      ESP Fit Center 1036 is at  11.326013 -4.830890  2.796726
      ESP Fit Center 1037 is at  12.286013 -4.830890  2.539495
      ESP Fit Center 1038 is at  11.806013 -3.999506  2.539495
      ESP Fit Center 1039 is at  10.846013 -3.999506  2.539495
      ESP Fit Center 1040 is at  10.366013 -4.830890  2.539495
      ESP Fit Center 1041 is at  10.846013 -5.662274  2.539495
      ESP Fit Center 1042 is at  11.806013 -5.662274  2.539495
      ESP Fit Center 1043 is at  12.988782 -4.830890  1.836726
      ESP Fit Center 1044 is at  12.671221 -3.853539  1.836726
      ESP Fit Center 1045 is at  11.839837 -3.249503  1.836726
      ESP Fit Center 1046 is at  10.812189 -3.249503  1.836726
      ESP Fit Center 1047 is at  13.246013 -4.830890  0.876726
      ESP Fit Center 1048 is at  12.988782 -3.870890  0.876726
[...]
 1478 Fit      -0.009779
 1479 Fit      -0.004256
 1480 Fit      -0.001949
 1481 Fit      -0.004407
 1482 Fit      -0.010865
 1483 Fit      -0.014342
 1484 Fit      -0.011173
 1485 Fit      -0.004384
 1486 Fit      -0.011360
 1487 Fit      -0.012573
 1488 Fit      -0.007970
 1489 Fit      -0.000874
 1490 Fit      -0.008480
 1491 Fit      -0.011371
 1492 Fit      -0.009024
 1493 Fit      -0.001740
 1494 Fit      -0.000874
 1495 Fit      -0.008480
 1496 Fit      -0.011370
 1497 Fit      -0.009024
 1498 Fit      -0.001740
 1499 Fit      -0.004384
 1500 Fit      -0.011360
 1501 Fit      -0.012573
 1502 Fit      -0.007970
 1503 Fit      -0.010865
 1504 Fit      -0.014342
 1505 Fit      -0.011173
 1506 Fit      -0.009744
 1507 Fit      -0.013987
 1508 Fit      -0.009779
 1509 Fit      -0.004257
 1510 Fit      -0.001951
 1511 Fit      -0.004408
 1512 Fit      -0.010084
 1513 Fit       0.006338
 1514 Fit       0.000329
 1515 Fit       0.006189
 1516 Fit       0.000609
 1517 Fit       0.010023
 1518 Fit       0.005018
 1519 Fit      -0.001482
 1520 Fit      -0.000162
 1521 Fit       0.006532
 1522 Fit       0.003565
 1523 Fit      -0.002425
 1524 Fit       0.002579
 1525 Fit       0.002579
 1526 Fit      -0.000163
 1527 Fit       0.006533
 1528 Fit       0.003565
 1529 Fit      -0.002425
 1530 Fit       0.010023
 1531 Fit       0.005018
 1532 Fit      -0.001482
 1533 Fit       0.006189
 1534 Fit       0.000609
 1535 Fit       0.008105
 1536 Fit       0.002393
 1537 Fit       0.010543
 1538 Fit       0.005637
 1539 Fit       0.009160
 1540 Fit       0.004068
 1541 Fit       0.007344
 1542 Fit       0.004816
 1543 Fit      -0.001279
 1544 Fit       0.000292
 1545 Fit       0.003021
 1546 Fit       0.003021
 1547 Fit       0.007344
 1548 Fit       0.004816
 1549 Fit      -0.001279
 1550 Fit       0.000292
 1551 Fit       0.009160
 1552 Fit       0.004068
 1553 Fit       0.010543
 1554 Fit       0.005637
 1555 Fit      -0.011287
 1556 Fit      -0.005030
 1557 Fit      -0.002312
 1558 Fit      -0.005109
 1559 Fit      -0.011148
 1560 Fit      -0.016028
 1561 Fit      -0.011898
 1562 Fit      -0.013044
 1563 Fit      -0.017023
 1564 Fit      -0.014516
 1565 Fit      -0.006657
 1566 Fit      -0.014156
 1567 Fit      -0.015852
 1568 Fit      -0.012269
 1569 Fit      -0.003196
 1570 Fit      -0.011371
 1571 Fit      -0.014654
 1572 Fit      -0.013080
 1573 Fit      -0.007728
 1574 Fit      -0.003196
 1575 Fit      -0.011371
 1576 Fit      -0.014654
 1577 Fit      -0.013081
 1578 Fit      -0.007728
 1579 Fit      -0.006656
 1580 Fit      -0.014157
 1581 Fit      -0.015852
 1582 Fit      -0.012269
 1583 Fit      -0.013044
 1584 Fit      -0.017024
 1585 Fit      -0.014516
 1586 Fit      -0.005028
 1587 Fit      -0.002310
 1588 Fit      -0.005107
 1589 Fit      -0.011147
 1590 Fit      -0.016028
 1591 Fit      -0.011897
 1592 Fit      -0.011286
 1593 Fit       0.010520
 1594 Fit       0.009376
 1595 Fit       0.009583
 1596 Fit       0.011021
 1597 Fit       0.009696
 1598 Fit       0.009423
 1599 Fit       0.010163
 1600 Fit       0.009227
 1601 Fit       0.009486
 1602 Fit       0.009786
 1603 Fit       0.011031
 1604 Fit       0.008023
 1605 Fit       0.008838
 1606 Fit       0.008114
 1607 Fit       0.005529
 1608 Fit       0.005701
 1609 Fit       0.005700
 1610 Fit       0.008023
 1611 Fit       0.008838
 1612 Fit       0.008114
 1613 Fit       0.005529
 1614 Fit       0.009227
 1615 Fit       0.009486
 1616 Fit       0.009786
 1617 Fit       0.011031
 1618 Fit       0.009696
 1619 Fit       0.009423
 1620 Fit       0.010163
 1621 Fit       0.006727
 1622 Fit       0.002670
 1623 Fit      -0.002205
 1624 Fit       0.000373
 1625 Fit       0.001617
 1626 Fit       0.002875
 1627 Fit       0.002670
 1628 Fit       0.006728
 1629 Fit       0.005831
 1630 Fit       0.007891
 1631 Fit       0.007258
 1632 Fit       0.008563
 1633 Fit       0.010052
 1634 Fit       0.005313
 1635 Fit       0.007866
 1636 Fit       0.009010
 1637 Fit       0.009934
 1638 Fit       0.003908
 1639 Fit       0.006075
 1640 Fit       0.007258
 1641 Fit       0.008563
 1642 Fit       0.010052
 1643 Fit       0.005313
 1644 Fit       0.005831
 1645 Fit       0.007891
 1646 Fit       0.002311
 1647 Fit       0.003910
 1648 Fit       0.004567
 1649 Fit       0.000123
 1650 Fit      -0.003978
 1651 Fit       0.000840
 1652 Fit       0.003331
 1653 Fit      -0.002478
 1654 Fit       0.001474
 1655 Fit       0.002956
 1656 Fit       0.003360
 1657 Fit      -0.006285
 1658 Fit      -0.001193
 1659 Fit       0.001151
 1660 Fit       0.002176
 1661 Fit      -0.006285
 1662 Fit      -0.001192
 1663 Fit       0.001151
 1664 Fit       0.002176
 1665 Fit      -0.002478
 1666 Fit       0.001474
 1667 Fit       0.002956
 1668 Fit       0.003360
 1669 Fit       0.003910
 1670 Fit       0.004567
 1671 Fit       0.000123
 1672 Fit      -0.003978
 1673 Fit       0.000840
 1674 Fit       0.003331
 1675 Fit       0.002311
 1676 Fit       0.002529
 1677 Fit       0.001359
 1678 Fit       0.002716
 1679 Fit       0.004569
 1680 Fit       0.000754
 1681 Fit      -0.013451
 1682 Fit      -0.001284
 1683 Fit      -0.000230
 1684 Fit      -0.013451
 1685 Fit      -0.001284
 1686 Fit      -0.000230
 1687 Fit       0.000754
 1688 Fit       0.001359
 1689 Fit       0.002716
 1690 Fit       0.004569
 1691 Fit       0.002529
 1692 Fit       0.003667
 1693 Fit       0.002681
 1694 Fit       0.004335
 1695 Fit       0.005622
 1696 Fit       0.002957
 1697 Fit       0.004583
 1698 Fit       0.005780
 1699 Fit       0.006844
 1700 Fit       0.002957
 1701 Fit       0.004583
 1702 Fit       0.005781
 1703 Fit       0.006844
 1704 Fit       0.002681
 1705 Fit       0.004335
 1706 Fit       0.005622
 1707 Fit       0.003668
 1708 Fit       0.000812
 1709 Fit      -0.001769
 1710 Fit       0.000340
 1711 Fit       0.001345
 1712 Fit       0.001843
 1713 Fit       0.001784
 1714 Fit      -0.001390
 1715 Fit      -0.006752
 1716 Fit      -0.002571
 1717 Fit      -0.000261
 1718 Fit       0.000711
 1719 Fit       0.001096
 1720 Fit      -0.006625
 1721 Fit      -0.002787
 1722 Fit      -0.000962
 1723 Fit      -0.000155
 1724 Fit      -0.006625
 1725 Fit      -0.002787
 1726 Fit      -0.000962
 1727 Fit      -0.000155
 1728 Fit      -0.006752
 1729 Fit      -0.002571
 1730 Fit      -0.000261
 1731 Fit       0.000711
 1732 Fit       0.001096
 1733 Fit      -0.001769
 1734 Fit       0.000340
 1735 Fit       0.001345
 1736 Fit       0.001843
 1737 Fit       0.001784
 1738 Fit      -0.001389
 1739 Fit       0.000812
 1740 Fit      -0.003829
 1741 Fit       0.007858
 1742 Fit       0.007858
 1743 Fit      -0.003829
 1744 Fit       0.003017
 1745 Fit       0.000005
 1746 Fit       0.000747
 1747 Fit       0.003400
 1748 Fit       0.004725
 1749 Fit       0.004603
 1750 Fit       0.003275
 1751 Fit       0.005733
 1752 Fit       0.005896
 1753 Fit       0.005538
 1754 Fit       0.005166
 1755 Fit       0.007089
 1756 Fit       0.006415
 1757 Fit       0.005763
 1758 Fit       0.005369
 1759 Fit       0.006050
 1760 Fit       0.006050
 1761 Fit       0.007089
 1762 Fit       0.006415
 1763 Fit       0.005763
 1764 Fit       0.005369
 1765 Fit       0.005733
 1766 Fit       0.005896
 1767 Fit       0.005538
 1768 Fit       0.005166
 1769 Fit       0.000005
 1770 Fit       0.000747
 1771 Fit       0.003400
 1772 Fit       0.004726
 1773 Fit       0.004603
 1774 Fit       0.003275
 1775 Fit       0.003017
 1776 Fit      -0.004908
 1777 Fit      -0.009553
 1778 Fit      -0.012936
 1779 Fit      -0.015253
 1780 Fit      -0.015224
 1781 Fit      -0.016597
 1782 Fit      -0.015253
 1783 Fit      -0.012936
 1784 Fit      -0.009553
 1785 Fit      -0.004907
 1786 Fit      -0.002868
 1787 Fit      -0.002526
 1788 Fit       0.004632
 1789 Fit       0.004632
 1790 Fit      -0.002868
 1791 Fit      -0.002526
 1792 Fit       0.001205
 1793 Fit       0.004612
 1794 Fit       0.001756
 1795 Fit      -0.002434
 1796 Fit       0.004737
 1797 Fit       0.002426
 1798 Fit      -0.000879
 1799 Fit      -0.005847
 1800 Fit      -0.000372
 1801 Fit      -0.000835
 1802 Fit       0.000827
 1803 Fit       0.003120
 1804 Fit       0.001751
 1805 Fit      -0.000707
 1806 Fit       0.001110
 1807 Fit       0.001110
 1808 Fit      -0.000372
 1809 Fit      -0.000836
 1810 Fit       0.000826
 1811 Fit       0.003120
 1812 Fit       0.001751
 1813 Fit      -0.000707
 1814 Fit       0.004737
 1815 Fit       0.002425
 1816 Fit      -0.000879
 1817 Fit      -0.005848
 1818 Fit       0.004612
 1819 Fit       0.001756
 1820 Fit      -0.002435
 1821 Fit       0.001205
 1822 Fit      -0.001979
 1823 Fit      -0.001650
 1824 Fit      -0.001978
 1825 Fit      -0.001649
 1826 Fit       0.002519
 1827 Fit      -0.000182
 1828 Fit      -0.004810
 1829 Fit       0.002061
 1830 Fit      -0.000699
 1831 Fit      -0.005277
 1832 Fit       0.002299
 1833 Fit       0.000660
 1834 Fit      -0.001801
 1835 Fit      -0.000794
 1836 Fit      -0.000478
 1837 Fit       0.000908
 1838 Fit       0.000669
 1839 Fit       0.000669
 1840 Fit       0.002299
 1841 Fit       0.000660
 1842 Fit      -0.001801
 1843 Fit      -0.000795
 1844 Fit      -0.000478
 1845 Fit       0.000908
 1846 Fit       0.002061
 1847 Fit      -0.000699
 1848 Fit      -0.005277
 1849 Fit       0.002519
 1850 Fit      -0.000183
 1851 Fit      -0.004810
 1852 Fit      -0.003535
 1853 Fit      -0.006851
 1854 Fit      -0.008690
 1855 Fit      -0.009965
 1856 Fit      -0.011399
 1857 Fit      -0.009965
 1858 Fit      -0.008690
 1859 Fit      -0.006851
 1860 Fit      -0.003534
 1861 Fit      -0.002474
 1862 Fit      -0.006811
 1863 Fit      -0.006810
 1864 Fit      -0.002474
 1865 Fit       0.001515
 1866 Fit       0.000413
 1867 Fit       0.002183
 1868 Fit       0.002467
 1869 Fit       0.000313
 1870 Fit       0.000837
 1871 Fit       0.000143
 1872 Fit      -0.002997
 1873 Fit       0.000599
 1874 Fit       0.002526
 1875 Fit      -0.001933
 1876 Fit       0.001233
 1877 Fit       0.002928
 1878 Fit      -0.001933
 1879 Fit       0.001233
 1880 Fit       0.002928
 1881 Fit      -0.002996
 1882 Fit       0.000599
 1883 Fit       0.002526
 1884 Fit       0.000413
 1885 Fit       0.002184
 1886 Fit       0.002467
 1887 Fit       0.000313
 1888 Fit       0.000838
 1889 Fit       0.000143
 1890 Fit       0.001515
 1891 Fit      -0.001417
 1892 Fit      -0.001417
 1893 Fit      -0.001443
 1894 Fit       0.002360
 1895 Fit       0.005034
 1896 Fit      -0.005788
 1897 Fit      -0.000696
 1898 Fit       0.002562
 1899 Fit       0.004754
 1900 Fit       0.001335
 1901 Fit       0.001109
 1902 Fit       0.000015
 1903 Fit       0.000608
 1904 Fit       0.002935
 1905 Fit       0.003673
 1906 Fit       0.002025
 1907 Fit       0.002024
 1908 Fit       0.001335
 1909 Fit       0.001109
 1910 Fit       0.000015
 1911 Fit       0.000607
 1912 Fit       0.002935
 1913 Fit       0.003673
 1914 Fit      -0.005788
 1915 Fit      -0.000696
 1916 Fit       0.002562
 1917 Fit       0.004754
 1918 Fit      -0.001443
 1919 Fit       0.002360
 1920 Fit       0.005034
 1921 Fit      -0.002189
 1922 Fit      -0.005938
 1923 Fit      -0.008218
 1924 Fit      -0.010523
 1925 Fit      -0.010893
 1926 Fit      -0.009961
 1927 Fit      -0.010523
 1928 Fit      -0.008218
 1929 Fit      -0.005937
 1930 Fit      -0.002189
 1931 Fit       0.000049
 1932 Fit       0.000049
 1933 Fit       0.003250
 1934 Fit       0.004963
 1935 Fit       0.002628
 1936 Fit      -0.001778
 1937 Fit       0.004951
 1938 Fit       0.002650
 1939 Fit      -0.001763
 1940 Fit      -0.000347
 1941 Fit       0.001115
 1942 Fit       0.002355
 1943 Fit       0.003710
 1944 Fit       0.001667
 1945 Fit      -0.002196
 1946 Fit       0.001656
 1947 Fit       0.001656
 1948 Fit      -0.000348
 1949 Fit       0.001114
 1950 Fit       0.002354
 1951 Fit       0.003710
 1952 Fit       0.001667
 1953 Fit      -0.002196
 1954 Fit       0.004951
 1955 Fit       0.002650
 1956 Fit      -0.001763
 1957 Fit       0.004963
 1958 Fit       0.002628
 1959 Fit      -0.001778
 1960 Fit       0.003250
 1961 Fit       0.002374
 1962 Fit       0.004702
 1963 Fit       0.003534
 1964 Fit       0.001031
 1965 Fit       0.001359
 1966 Fit       0.005824
 1967 Fit       0.002656
 1968 Fit      -0.001748
 1969 Fit       0.003396
 1970 Fit      -0.001324
 1971 Fit       0.003396
 1972 Fit      -0.001324
 1973 Fit       0.005824
 1974 Fit       0.002656
 1975 Fit      -0.001748
 1976 Fit       0.004702
 1977 Fit       0.003534
 1978 Fit       0.001031
 1979 Fit       0.001359
 1980 Fit       0.002374
 1981 Fit      -0.007203
 1982 Fit      -0.003495
 1983 Fit      -0.001749
 1984 Fit      -0.003431
 1985 Fit      -0.007374
 1986 Fit      -0.010252
 1987 Fit      -0.007315
 1988 Fit      -0.008872
 1989 Fit      -0.011157
 1990 Fit      -0.008826
 1991 Fit      -0.004714
 1992 Fit      -0.009670
 1993 Fit      -0.010471
 1994 Fit      -0.006904
 1995 Fit      -0.004494
 1996 Fit      -0.008879
 1997 Fit      -0.009658
 1998 Fit      -0.006690
 1999 Fit      -0.002877
 2000 Fit      -0.007639
 2001 Fit      -0.009409
 2002 Fit      -0.007981
 2003 Fit      -0.003411
 2004 Fit      -0.004494
 2005 Fit      -0.008879
 2006 Fit      -0.009658
 2007 Fit      -0.006690
 2008 Fit      -0.004714
 2009 Fit      -0.009670
 2010 Fit      -0.010471
 2011 Fit      -0.006904
 2012 Fit      -0.008872
 2013 Fit      -0.011157
 2014 Fit      -0.008826
 2015 Fit      -0.003495
 2016 Fit      -0.001748
 2017 Fit      -0.003430
 2018 Fit      -0.007374
 2019 Fit      -0.010252
 2020 Fit      -0.007314
 2021 Fit      -0.007203
 2022 Fit       0.000824
 2023 Fit       0.004974
 2024 Fit      -0.002056
 2025 Fit       0.003530
 2026 Fit       0.006849
 2027 Fit      -0.001445
 2028 Fit       0.002808
 2029 Fit       0.004667
 2030 Fit      -0.000152
 2031 Fit       0.001799
 2032 Fit       0.001799
 2033 Fit      -0.001445
 2034 Fit       0.002808
 2035 Fit       0.004667
 2036 Fit      -0.000152
 2037 Fit      -0.002056
 2038 Fit       0.003530
 2039 Fit       0.006849
 2040 Fit       0.000824
 2041 Fit       0.004974
 2042 Fit       0.000280
 2043 Fit       0.004627
 2044 Fit       0.000694
 2045 Fit       0.004858
 2046 Fit      -0.000259
 2047 Fit      -0.001757
 2048 Fit       0.002420
 2049 Fit       0.004401
 2050 Fit       0.001620
 2051 Fit       0.001620
 2052 Fit      -0.000259
 2053 Fit      -0.001757
 2054 Fit       0.002421
 2055 Fit       0.004401
 2056 Fit       0.000694
 2057 Fit       0.004858
 2058 Fit       0.000279
 2059 Fit       0.004627
 2060 Fit      -0.007023
 2061 Fit      -0.006961
 2062 Fit      -0.009773
 2063 Fit      -0.007002
 2064 Fit      -0.003406
 2065 Fit      -0.001821
 2066 Fit      -0.003525
 2067 Fit      -0.007982
 2068 Fit      -0.010448
 2069 Fit      -0.008259
 2070 Fit      -0.003395
 2071 Fit      -0.008716
 2072 Fit      -0.009671
 2073 Fit      -0.006243
 2074 Fit      -0.006069
 2075 Fit      -0.008812
 2076 Fit      -0.007832
 2077 Fit      -0.003101
 2078 Fit      -0.004553
 2079 Fit      -0.007956
 2080 Fit      -0.008222
 2081 Fit      -0.005318
 2082 Fit       0.000477
 2083 Fit      -0.006069
 2084 Fit      -0.008811
 2085 Fit      -0.007832
 2086 Fit      -0.003101
 2087 Fit      -0.003395
 2088 Fit      -0.008716
 2089 Fit      -0.009671
 2090 Fit      -0.006243
 2091 Fit      -0.007982
 2092 Fit      -0.010448
 2093 Fit      -0.008259
 2094 Fit      -0.006962
 2095 Fit      -0.009773
 2096 Fit      -0.007003
 2097 Fit      -0.003407
 2098 Fit      -0.001822
 2099 Fit      -0.003526
 2100 Fit      -0.007023
 2101 Fit       0.003035
 2102 Fit      -0.002696
 2103 Fit       0.007230
 2104 Fit       0.003376
 2105 Fit      -0.002080
 2106 Fit      -0.000968
 2107 Fit       0.004243
 2108 Fit       0.002003
 2109 Fit      -0.002504
 2110 Fit       0.001233
 2111 Fit       0.001233
 2112 Fit      -0.000968
 2113 Fit       0.004244
 2114 Fit       0.002003
 2115 Fit      -0.002504
 2116 Fit       0.007230
 2117 Fit       0.003376
 2118 Fit      -0.002080
 2119 Fit       0.003035
 2120 Fit      -0.002696
 2121 Fit       0.005246
 2122 Fit      -0.000496
 2123 Fit       0.007267
 2124 Fit       0.002868
 2125 Fit       0.005237
 2126 Fit       0.003283
 2127 Fit      -0.001423
 2128 Fit      -0.000551
 2129 Fit       0.001760
 2130 Fit       0.001759
 2131 Fit       0.005237
 2132 Fit       0.003283
 2133 Fit      -0.001423
 2134 Fit      -0.000551
 2135 Fit       0.007267
 2136 Fit       0.002868
 2137 Fit       0.005246
 2138 Fit      -0.000496
 2139 Fit      -0.007876
 2140 Fit      -0.003598
 2141 Fit      -0.001788
 2142 Fit      -0.003992
 2143 Fit      -0.008135
 2144 Fit      -0.011453
 2145 Fit      -0.008529
 2146 Fit      -0.009916
 2147 Fit      -0.012767
 2148 Fit      -0.011004
 2149 Fit      -0.005514
 2150 Fit      -0.011235
 2151 Fit      -0.012570
 2152 Fit      -0.009902
 2153 Fit      -0.005818
 2154 Fit      -0.010687
 2155 Fit      -0.011927
 2156 Fit      -0.009867
 2157 Fit      -0.004300
 2158 Fit      -0.009439
 2159 Fit      -0.011561
 2160 Fit      -0.010770
 2161 Fit      -0.007610
 2162 Fit      -0.005818
 2163 Fit      -0.010687
 2164 Fit      -0.011927
 2165 Fit      -0.009867
 2166 Fit      -0.005514
 2167 Fit      -0.011235
 2168 Fit      -0.012570
 2169 Fit      -0.009902
 2170 Fit      -0.009916
 2171 Fit      -0.012767
 2172 Fit      -0.011004
 2173 Fit      -0.003596
 2174 Fit      -0.001786
 2175 Fit      -0.003991
 2176 Fit      -0.008134
 2177 Fit      -0.011452
 2178 Fit      -0.008528
 2179 Fit      -0.007875
 2180 Fit       0.009436
 2181 Fit       0.008644
 2182 Fit       0.009436
 2183 Fit       0.008644
 2184 Fit       0.008573
 2185 Fit       0.008363
 2186 Fit       0.008656
 2187 Fit       0.007743
 2188 Fit       0.008062
 2189 Fit       0.008231
 2190 Fit       0.008882
 2191 Fit       0.006535
 2192 Fit       0.007105
 2193 Fit       0.006132
 2194 Fit       0.004355
 2195 Fit       0.004433
 2196 Fit       0.004433
 2197 Fit       0.006535
 2198 Fit       0.007104
 2199 Fit       0.006132
 2200 Fit       0.004355
 2201 Fit       0.007743
 2202 Fit       0.008062
 2203 Fit       0.008231
 2204 Fit       0.008882
 2205 Fit       0.008573
 2206 Fit       0.008363
 2207 Fit       0.008656
 2208 Fit       0.005487
 2209 Fit       0.004608
 2210 Fit       0.006443
 2211 Fit       0.002758
 2212 Fit       0.000764
 2213 Fit       0.001755
 2214 Fit       0.002892
 2215 Fit       0.000764
 2216 Fit       0.001755
 2217 Fit       0.002892
 2218 Fit       0.002758
 2219 Fit       0.004608
 2220 Fit       0.006443
 2221 Fit       0.005487
 2222 Fit       0.005142
 2223 Fit       0.006026
 2224 Fit       0.007253
 2225 Fit       0.008918
 2226 Fit       0.004523
 2227 Fit       0.006657
 2228 Fit       0.007671
 2229 Fit       0.008625
 2230 Fit       0.003691
 2231 Fit       0.005283
 2232 Fit       0.006657
 2233 Fit       0.007671
 2234 Fit       0.008625
 2235 Fit       0.003691
 2236 Fit       0.005283
 2237 Fit       0.006026
 2238 Fit       0.007253
 2239 Fit       0.008918
 2240 Fit       0.004524
 2241 Fit       0.005142
 2242 Fit       0.001527
 2243 Fit       0.003286
 2244 Fit       0.003656
 2245 Fit      -0.000181
 2246 Fit      -0.003481
 2247 Fit       0.000108
 2248 Fit       0.002435
 2249 Fit      -0.002673
 2250 Fit       0.000853
 2251 Fit       0.002388
 2252 Fit       0.003055
 2253 Fit      -0.004010
 2254 Fit      -0.000342
 2255 Fit       0.001423
 2256 Fit       0.002300
 2257 Fit      -0.004010
 2258 Fit      -0.000342
 2259 Fit       0.001424
 2260 Fit       0.002300
 2261 Fit      -0.002672
 2262 Fit       0.000853
 2263 Fit       0.002389
 2264 Fit       0.003055
 2265 Fit       0.003286
 2266 Fit       0.003656
 2267 Fit      -0.000181
 2268 Fit      -0.003481
 2269 Fit       0.000108
 2270 Fit       0.002435
 2271 Fit       0.001527
 Job cpu time:       0 days  0 hours  3 minutes 42.9 seconds.
 Normal termination of Gaussian 16 at Sat Jul  8 22:01:22 2023.
