 Copyright (c) 1988-2019, Gaussian, Inc.  All Rights Reserved.
  
 This is part of the Gaussian(R) 16 program.  It is based on
 the Gaussian(R) 09 system (copyright 2009, Gaussian, Inc.),
 the Gaussian(R) 03 system (copyright 2003, Gaussian, Inc.),
 the Gaussian(R) 98 system (copyright 1998, Gaussian, Inc.),
 the Gaussian(R) 94 system (copyright 1995, Gaussian, Inc.),
 the Gaussian 92(TM) system (copyright 1992, Gaussian, Inc.),
 the Gaussian 90(TM) system (copyright 1990, Gaussian, Inc.),
 the Gaussian 88(TM) system (copyright 1988, Gaussian, Inc.),
 the Gaussian 86(TM) system (copyright 1986, Carnegie Mellon
 University), and the Gaussian 82(TM) system (copyright 1983,
 Carnegie Mellon University). Gaussian is a federally registered
 trademark of Gaussian, Inc.
 Cite this work as:
 Gaussian 16, Revision C.01,
 M. J. Frisch, G. W. Trucks, H. B. Schlegel, G. E. Scuseria, 
 M. A. Robb, J. R. Cheeseman, G. Scalmani, V. Barone, 
 G. A. Petersson, H. Nakatsuji, X. Li, M. Caricato, A. V. Marenich, 
 J. Bloino, B. G. Janesko, R. Gomperts, B. Mennucci, H. P. Hratchian, 
 J. V. Ortiz, A. F. Izmaylov, J. L. Sonnenberg, D. Williams-Young, 
 F. Ding, F. Lipparini, F. Egidi, J. Goings, B. Peng, A. Petrone, 
 T. Henderson, D. Ranasinghe, V. G. Zakrzewski, J. Gao, N. Rega, 
 G. Zheng, W. Liang, M. Hada, M. Ehara, K. Toyota, R. Fukuda, 
 J. Hasegawa, M. Ishida, T. Nakajima, Y. Honda, O. Kitao, H. Nakai, 
 T. Vreven, K. Throssell, J. A. Montgomery, Jr., J. E. Peralta, 
 F. Ogliaro, M. J. Bearpark, J. J. Heyd, E. N. Brothers, K. N. Kudin, 
 V. N. Staroverov, T. A. Keith, R. Kobayashi, J. Normand, 
 K. Raghavachari, A. P. Rendell, J. C. Burant, S. S. Iyengar, 
 J. Tomasi, M. Cossi, J. M. Millam, M. Klene, C. Adamo, R. Cammi, 
 J. W. Ochterski, R. L. Martin, K. Morokuma, O. Farkas, 
 J. B. Foresman, and D. J. Fox, Gaussian, Inc., Wallingford CT, 2019.
 
 ******************************************
 Gaussian 16:  EM64L-G16RevC.01  3-Jul-2019
                 8-Jul-2023 
 ******************************************
 ----------------------------------------------------------------------
 #P HF/6-31G(d) SCF(Conver=8,XQC,MaxConventionalCycles=64,MaxCycle=128)
  NoSymm Test Pop=mk IOp(6/33=2) GFInput GFPrint
 ----------------------------------------------------------------------
 1/38=1,172=1/1;
 2/12=2,15=1,17=6,18=5,40=1/2;
 3/5=1,6=6,7=1,11=9,24=110,25=1,30=1/1,2,3;
 4//1;
 5/5=2,6=8,7=128,8=3,13=1,38=5,85=64/2,8;
 6/7=2,8=2,9=2,10=2,15=8,20=1,28=1,33=2/1,2;
 99/5=1,9=1/99;
 -------------------------------------------------
 MEP step - Input generated by PyRED DVE-DMDS-OPLS
 -------------------------------------------------
 Symbolic Z-matrix:
 Charge =  0 Multiplicity = 1
 C                    -2.35249   3.59689   7.45159 
 H                    -2.17438   2.60208   7.84393 
 H                    -1.80046   4.31049   8.05524 
 H                    -3.41095   3.81346   7.54073 
 C                    -1.91795   3.68021   6.00185 
 H                    -2.08449   4.68278   5.61173 
 H                    -0.85378   3.47121   5.91579 
 O                    -2.66862   2.75465   5.26412 
 C                    -2.37838   2.67723   3.89915 
 H                    -2.0567    3.63876   3.507 
 H                    -3.29857   2.40926   3.39411 
 C                    -1.30511   1.62907   3.62607 
 H                    -0.38512   1.89704   4.13018 
 H                    -1.62677   0.66769   4.01656 
 O                    -1.00981   1.54561   2.25866 
 C                    -1.77833   0.64436   1.51383 
 H                    -2.82559   0.94266   1.49821 
 H                    -1.71823  -0.35002   1.94902 
 C                    -1.26103   0.59637   0.09073 
 H                    -1.2497    1.59835  -0.32958 
 H                    -1.94138  -0.00678  -0.5008 
 O                     0.        0.        0. 
 C                     1.10058   0.86834   0. 
 H                     1.07535   1.51455   0.86719 
 H                     1.0864    1.49494  -0.88862 
 C                     2.34803   0.        0. 
 H                     2.36713  -0.60714  -0.89596 
 H                     2.32629  -0.67708   0.84374 
 S                     3.89498   0.9538   -0.0083 
 C                     4.05615   1.4656    1.73233 
 H                     4.75179   2.29475   1.71525 
 H                     3.11291   1.85118   2.09428 
 C                     4.56608   0.35596   2.64968 
 H                     5.50716  -0.03488   2.28539 
 H                     3.86734  -0.47035   2.66727 
 S                     4.7348    0.86784   4.38955 
 C                     6.2999    1.79477   4.36984 
 H                     6.27806   2.40938   5.26016 
 H                     6.29791   2.46835   3.52005 
 C                     7.58536   0.96488   4.35038 
 H                     7.58687   0.25363   3.53339 
 H                     8.41437   1.64149   4.17443 
 S                     7.98982   0.09412   5.89559 
 C                     7.33427  -1.58226   5.61265 
 H                     6.26274  -1.53231   5.48743 
 H                     7.76877  -1.9745    4.70044 
 C                     7.69453  -2.47786   6.79454 
 H                     8.76892  -2.54565   6.92508 
 H                     7.26364  -2.1021    7.71608 
 H                     7.30996  -3.47905   6.62843 
 
 ITRead=  0  0  0  0  0  0  0  0  0  0  0  0  0  0  0  0  0  0  0  0
 ITRead=  0  0  0  0  0  0  0  0  0  0  0  0  0  0  0  0  0  0  0  0
 ITRead=  0  0  0  0  0  0  0  0  0  0
 MicOpt= -1 -1 -1 -1 -1 -1 -1 -1 -1 -1 -1 -1 -1 -1 -1 -1 -1 -1 -1 -1
 MicOpt= -1 -1 -1 -1 -1 -1 -1 -1 -1 -1 -1 -1 -1 -1 -1 -1 -1 -1 -1 -1
 MicOpt= -1 -1 -1 -1 -1 -1 -1 -1 -1 -1
 NAtoms=     50 NQM=       50 NQMF=       0 NMMI=      0 NMMIF=      0
                NMic=       0 NMicF=      0.
                          Input orientation:                          
 ---------------------------------------------------------------------
 Center     Atomic      Atomic             Coordinates (Angstroms)
 Number     Number       Type             X           Y           Z
 ---------------------------------------------------------------------
      1          6           0       -2.352487    3.596887    7.451587
      2          1           0       -2.174381    2.602084    7.843929
      3          1           0       -1.800460    4.310492    8.055237
      4          1           0       -3.410948    3.813459    7.540731
      5          6           0       -1.917950    3.680205    6.001851
      6          1           0       -2.084488    4.682777    5.611734
      7          1           0       -0.853779    3.471206    5.915792
      8          8           0       -2.668622    2.754649    5.264118
      9          6           0       -2.378375    2.677233    3.899148
     10          1           0       -2.056696    3.638756    3.507003
     11          1           0       -3.298573    2.409265    3.394108
     12          6           0       -1.305106    1.629067    3.626071
     13          1           0       -0.385116    1.897038    4.130176
     14          1           0       -1.626770    0.667692    4.016559
     15          8           0       -1.009812    1.545610    2.258661
     16          6           0       -1.778326    0.644362    1.513833
     17          1           0       -2.825593    0.942656    1.498209
     18          1           0       -1.718234   -0.350020    1.949023
     19          6           0       -1.261029    0.596367    0.090725
     20          1           0       -1.249702    1.598351   -0.329576
     21          1           0       -1.941383   -0.006784   -0.500799
     22          8           0        0.000000    0.000000    0.000000
     23          6           0        1.100581    0.868340    0.000000
     24          1           0        1.075354    1.514549    0.867187
     25          1           0        1.086404    1.494938   -0.888619
     26          6           0        2.348033    0.000000    0.000000
     27          1           0        2.367131   -0.607135   -0.895955
     28          1           0        2.326289   -0.677084    0.843742
     29         16           0        3.894978    0.953798   -0.008296
     30          6           0        4.056150    1.465598    1.732330
     31          1           0        4.751794    2.294751    1.715245
     32          1           0        3.112914    1.851178    2.094277
     33          6           0        4.566084    0.355962    2.649679
     34          1           0        5.507162   -0.034881    2.285393
     35          1           0        3.867341   -0.470345    2.667268
     36         16           0        4.734798    0.867840    4.389548
     37          6           0        6.299896    1.794770    4.369844
     38          1           0        6.278061    2.409382    5.260164
     39          1           0        6.297908    2.468354    3.520054
     40          6           0        7.585361    0.964881    4.350378
     41          1           0        7.586867    0.253628    3.533392
     42          1           0        8.414368    1.641493    4.174435
     43         16           0        7.989819    0.094122    5.895585
     44          6           0        7.334270   -1.582256    5.612654
     45          1           0        6.262744   -1.532306    5.487431
     46          1           0        7.768768   -1.974499    4.700441
     47          6           0        7.694526   -2.477859    6.794536
     48          1           0        8.768921   -2.545654    6.925082
     49          1           0        7.263639   -2.102101    7.716081
     50          1           0        7.309960   -3.479052    6.628432
 ---------------------------------------------------------------------
 Stoichiometry    C14H30O3S3
 Framework group  C1[X(C14H30O3S3)]
 Standard basis: 6-31G(d) (6D, 7F)
   372 basis functions,   752 primitive gaussians,   372 cartesian basis functions
    93 alpha electrons       93 beta electrons
 Requested convergence on RMS density matrix=1.00D-08 within  64 cycles.
 Requested convergence on MAX density matrix=1.00D-06.
 Requested convergence on             energy=1.00D-06.
 SCF Done:  E(RHF) =  -1964.69168231     A.U. after   13 cycles
            NFock= 13  Conv=0.39D-08     -V/T= 2.0006
 Mulliken charges:
     1  C   -0.488615
     2  H    0.173862
     3  H    0.158226
     4  H    0.174987
     5  C    0.015753
     6  H    0.142805
     7  H    0.140100
     8  O   -0.631125
     9  C   -0.002194
    10  H    0.152514
    11  H    0.168231
    12  C   -0.005392
    13  H    0.174134
    14  H    0.158105
    15  O   -0.642703
    16  C    0.009450
    17  H    0.136746
    18  H    0.157835
    19  C    0.000071
    20  H    0.156203
    21  H    0.170081
    22  O   -0.638012
    23  C    0.025498
    24  H    0.179595
    25  H    0.153424
    26  C   -0.495247
    27  H    0.211524
    28  H    0.200983
    29  S    0.107186
    30  C   -0.475367
    31  H    0.200478
    32  H    0.214407
    33  C   -0.476549
    34  H    0.204554
    35  H    0.205407
    36  S    0.118413
    37  C   -0.470221
    38  H    0.217875
    39  H    0.191318
    40  C   -0.478261
    41  H    0.194640
    42  H    0.204545
    43  S    0.114722
    44  C   -0.460339
    45  H    0.218673
    46  H    0.179813
    47  C   -0.497538
    48  H    0.177976
    49  H    0.179769
    50  H    0.171661
 Sum of Mulliken charges =  -0.00000
 Dipole moment (field-independent basis, Debye):
    X=             -1.3836    Y=              0.6086    Z=             -0.8754  Tot=              1.7468
 Quadrupole moment (field-independent basis, Debye-Ang):
   XX=           -158.3044   YY=           -139.3183   ZZ=           -166.2504
   XY=             -1.5292   XZ=             -6.5533   YZ=              1.8002
 Traceless Quadrupole moment (field-independent basis, Debye-Ang):
   XX=             -3.6800   YY=             15.3060   ZZ=            -11.6260
   XY=             -1.5292   XZ=             -6.5533   YZ=              1.8002
 Octapole moment (field-independent basis, Debye-Ang**2):
  XXX=          -1305.6398  YYY=           -400.6903  ZZZ=          -1637.5841  XYY=           -365.4688
  XXY=           -151.3085  XXZ=           -636.9561  XZZ=           -518.6127  YZZ=           -142.3247
  YYZ=           -441.0382  XYZ=            -10.1433
 Hexadecapole moment (field-independent basis, Debye-Ang**3):
 XXXX=         -21149.5707 YYYY=          -2801.8083 ZZZZ=         -16620.3019 XXXY=            507.7124
 XXXZ=          -6126.0743 YYYX=            439.8748 YYYZ=          -1413.5386 ZZZX=          -5973.4597
 ZZZY=          -1591.8051 XXYY=          -3479.8199 XXZZ=          -7294.3305 YYZZ=          -2775.8942
 XXYZ=           -689.9813 YYXZ=          -1480.1262 ZZXY=            -38.8457
 Merz-Kollman atomic radii used.
 Atom Element Radius
    1     6    1.50
    2     1    1.20
    3     1    1.20
    4     1    1.20
    5     6    1.50
    6     1    1.20
    7     1    1.20
    8     8    1.40
    9     6    1.50
   10     1    1.20
   11     1    1.20
   12     6    1.50
   13     1    1.20
   14     1    1.20
   15     8    1.40
   16     6    1.50
   17     1    1.20
   18     1    1.20
   19     6    1.50
   20     1    1.20
   21     1    1.20
   22     8    1.40
   23     6    1.50
   24     1    1.20
   25     1    1.20
   26     6    1.50
   27     1    1.20
   28     1    1.20
   29    16    1.75
   30     6    1.50
   31     1    1.20
   32     1    1.20
   33     6    1.50
   34     1    1.20
   35     1    1.20
   36    16    1.75
   37     6    1.50
   38     1    1.20
   39     1    1.20
   40     6    1.50
   41     1    1.20
   42     1    1.20
   43    16    1.75
   44     6    1.50
   45     1    1.20
   46     1    1.20
   47     6    1.50
   48     1    1.20
   49     1    1.20
   50     1    1.20
 Generate VDW surfaces: Layer= 4 Dens= 1 Start= 1.400 Inc= 0.200
            Electrostatic Properties Using The SCF Density.


       Atomic Center    1 is at  -2.352487  3.596887  7.451587
       Atomic Center    2 is at  -2.174381  2.602084  7.843929
       Atomic Center    3 is at  -1.800460  4.310492  8.055237
       Atomic Center    4 is at  -3.410948  3.813459  7.540731
       Atomic Center    5 is at  -1.917950  3.680205  6.001851
       Atomic Center    6 is at  -2.084488  4.682777  5.611734
       Atomic Center    7 is at  -0.853779  3.471206  5.915792
       Atomic Center    8 is at  -2.668622  2.754649  5.264118
       Atomic Center    9 is at  -2.378375  2.677233  3.899148
       Atomic Center   10 is at  -2.056696  3.638756  3.507003
       Atomic Center   11 is at  -3.298573  2.409265  3.394108
       Atomic Center   12 is at  -1.305106  1.629067  3.626071
       Atomic Center   13 is at  -0.385116  1.897038  4.130176
       Atomic Center   14 is at  -1.626770  0.667692  4.016559
       Atomic Center   15 is at  -1.009812  1.545610  2.258661
       Atomic Center   16 is at  -1.778326  0.644362  1.513833
       Atomic Center   17 is at  -2.825593  0.942656  1.498209
       Atomic Center   18 is at  -1.718234 -0.350020  1.949023
       Atomic Center   19 is at  -1.261029  0.596367  0.090725
       Atomic Center   20 is at  -1.249702  1.598351 -0.329576
       Atomic Center   21 is at  -1.941383 -0.006784 -0.500799
       Atomic Center   22 is at   0.000000  0.000000  0.000000
       Atomic Center   23 is at   1.100581  0.868340  0.000000
       Atomic Center   24 is at   1.075354  1.514549  0.867187
       Atomic Center   25 is at   1.086404  1.494938 -0.888619
       Atomic Center   26 is at   2.348033  0.000000  0.000000
       Atomic Center   27 is at   2.367131 -0.607135 -0.895955
       Atomic Center   28 is at   2.326289 -0.677084  0.843742
       Atomic Center   29 is at   3.894978  0.953798 -0.008296
       Atomic Center   30 is at   4.056150  1.465598  1.732330
       Atomic Center   31 is at   4.751794  2.294751  1.715245
       Atomic Center   32 is at   3.112914  1.851178  2.094277
       Atomic Center   33 is at   4.566084  0.355962  2.649679
       Atomic Center   34 is at   5.507162 -0.034881  2.285393
       Atomic Center   35 is at   3.867341 -0.470345  2.667268
       Atomic Center   36 is at   4.734798  0.867840  4.389548
       Atomic Center   37 is at   6.299896  1.794770  4.369844
       Atomic Center   38 is at   6.278061  2.409382  5.260164
       Atomic Center   39 is at   6.297908  2.468354  3.520054
       Atomic Center   40 is at   7.585361  0.964881  4.350378
       Atomic Center   41 is at   7.586867  0.253628  3.533392
       Atomic Center   42 is at   8.414368  1.641493  4.174435
       Atomic Center   43 is at   7.989819  0.094122  5.895585
       Atomic Center   44 is at   7.334270 -1.582256  5.612654
       Atomic Center   45 is at   6.262744 -1.532306  5.487431
       Atomic Center   46 is at   7.768768 -1.974499  4.700441
       Atomic Center   47 is at   7.694526 -2.477859  6.794536
       Atomic Center   48 is at   8.768921 -2.545654  6.925082
       Atomic Center   49 is at   7.263639 -2.102101  7.716081
       Atomic Center   50 is at   7.309960 -3.479052  6.628432
      ESP Fit Center   51 is at  -2.352487  3.596887  9.551587
      ESP Fit Center   52 is at  -3.402487  3.596887  9.270240
      ESP Fit Center   53 is at  -3.097157  5.560421  7.451587
      ESP Fit Center   54 is at  -3.924360  2.204329  7.451587
      ESP Fit Center   55 is at  -0.493029  2.620968  7.451587
      ESP Fit Center   56 is at  -2.174381  2.602084  9.523929
      ESP Fit Center   57 is at  -1.186902  2.602084  9.203078
      ESP Fit Center   58 is at  -2.973268  2.021658  9.203078
      ESP Fit Center   59 is at  -1.869233  1.662935  9.203078
      ESP Fit Center   60 is at  -0.576606  2.602084  8.363078
      ESP Fit Center   61 is at  -3.675798  2.055613  8.363078
      ESP Fit Center   62 is at  -2.973268  1.218370  8.363078
      ESP Fit Center   63 is at  -1.896930  1.028583  8.363078
      ESP Fit Center   64 is at  -0.950414  1.575054  8.363078
      ESP Fit Center   65 is at  -2.973268  1.218370  7.324780
      ESP Fit Center   66 is at  -1.896930  1.028583  7.324780
      ESP Fit Center   67 is at  -0.950414  1.575054  7.324780
      ESP Fit Center   68 is at  -1.800460  4.310492  9.735237
      ESP Fit Center   69 is at  -0.812981  4.310492  9.414386
      ESP Fit Center   70 is at  -1.495312  5.249641  9.414386
      ESP Fit Center   71 is at  -2.599347  4.890918  9.414386
      ESP Fit Center   72 is at  -1.495312  3.371343  9.414386
      ESP Fit Center   73 is at  -0.202685  4.310492  8.574386
      ESP Fit Center   74 is at  -0.576493  5.337522  8.574386
      ESP Fit Center   75 is at  -1.523009  5.883993  8.574386
      ESP Fit Center   76 is at  -2.599347  5.694206  8.574386
      ESP Fit Center   77 is at  -0.576493  3.283462  8.574386
      ESP Fit Center   78 is at  -0.202685  4.310492  7.536088
      ESP Fit Center   79 is at  -0.576493  5.337522  7.536088
      ESP Fit Center   80 is at  -1.523009  5.883993  7.536088
      ESP Fit Center   81 is at  -2.599347  5.694206  7.536088
      ESP Fit Center   82 is at  -4.209835  4.393885  8.899880
      ESP Fit Center   83 is at  -4.209835  3.233033  8.899880
      ESP Fit Center   84 is at  -4.209835  5.197173  8.059880
      ESP Fit Center   85 is at  -4.912365  4.359930  8.059880
      ESP Fit Center   86 is at  -4.912365  3.266988  8.059880
      ESP Fit Center   87 is at  -4.209835  2.429745  8.059880
      ESP Fit Center   88 is at  -4.209835  5.197173  7.021582
      ESP Fit Center   89 is at  -4.912365  4.359930  7.021582
      ESP Fit Center   90 is at  -4.912365  3.266988  7.021582
      ESP Fit Center   91 is at  -4.209835  2.429745  7.021582
      ESP Fit Center   92 is at  -4.209835  4.393885  6.181582
      ESP Fit Center   93 is at  -0.388001  4.663443  7.051851
      ESP Fit Center   94 is at  -1.779340  5.621926  6.970883
      ESP Fit Center   95 is at  -0.860521  5.709807  6.130883
      ESP Fit Center   96 is at  -1.807037  6.256278  6.130883
      ESP Fit Center   97 is at  -2.883375  6.066491  6.130883
      ESP Fit Center   98 is at  -3.585905  5.229248  6.130883
      ESP Fit Center   99 is at  -0.860521  5.709807  5.092585
      ESP Fit Center  100 is at  -1.807037  6.256278  5.092585
      ESP Fit Center  101 is at  -2.883375  6.066491  5.092585
      ESP Fit Center  102 is at  -3.585905  5.229248  5.092585
      ESP Fit Center  103 is at  -1.779340  5.621926  4.252585
      ESP Fit Center  104 is at  -2.883375  5.263203  4.252585
      ESP Fit Center  105 is at   0.133700  3.471206  7.274941
      ESP Fit Center  106 is at  -0.548631  2.532057  7.274941
      ESP Fit Center  107 is at   0.743996  3.471206  6.434941
      ESP Fit Center  108 is at   0.370188  4.498236  6.434941
      ESP Fit Center  109 is at  -0.576328  1.897705  6.434941
      ESP Fit Center  110 is at   0.370188  2.444176  6.434941
      ESP Fit Center  111 is at   0.743996  3.471206  5.396643
      ESP Fit Center  112 is at   0.370188  4.498236  5.396643
      ESP Fit Center  113 is at   0.133700  3.471206  4.556643
      ESP Fit Center  114 is at  -0.548631  4.410355  4.556643
      ESP Fit Center  115 is at  -4.366032  2.754649  6.244118
      ESP Fit Center  116 is at  -4.041855  1.756937  6.244118
      ESP Fit Center  117 is at  -3.193150  1.140316  6.244118
      ESP Fit Center  118 is at  -2.144094  1.140316  6.244118
      ESP Fit Center  119 is at  -4.366032  3.734649  5.264118
      ESP Fit Center  120 is at  -4.628622  2.754649  5.264118
      ESP Fit Center  121 is at  -4.366032  1.774649  5.264118
      ESP Fit Center  122 is at  -3.648622  1.057239  5.264118
      ESP Fit Center  123 is at  -3.950248  4.069791  3.899148
      ESP Fit Center  124 is at  -3.569340  4.051679  2.849148
      ESP Fit Center  125 is at  -0.458921  3.638756  4.026152
      ESP Fit Center  126 is at  -0.832729  4.665786  4.026152
      ESP Fit Center  127 is at  -1.779245  5.212257  4.026152
      ESP Fit Center  128 is at  -2.855583  5.022470  4.026152
      ESP Fit Center  129 is at  -0.458921  3.638756  2.987854
      ESP Fit Center  130 is at  -0.832729  4.665786  2.987854
      ESP Fit Center  131 is at  -1.779245  5.212257  2.987854
      ESP Fit Center  132 is at  -2.855583  5.022470  2.987854
      ESP Fit Center  133 is at  -3.558113  4.185227  2.987854
      ESP Fit Center  134 is at  -1.069217  3.638756  2.147854
      ESP Fit Center  135 is at  -1.751548  4.577905  2.147854
      ESP Fit Center  136 is at  -2.855583  4.219182  2.147854
      ESP Fit Center  137 is at  -2.056696  3.638756  1.827003
      ESP Fit Center  138 is at  -4.799990  2.955736  3.913257
      ESP Fit Center  139 is at  -4.799990  1.862794  3.913257
      ESP Fit Center  140 is at  -4.097460  1.025551  3.913257
      ESP Fit Center  141 is at  -4.097460  3.792979  2.874959
      ESP Fit Center  142 is at  -4.799990  2.955736  2.874959
      ESP Fit Center  143 is at  -4.799990  1.862794  2.874959
      ESP Fit Center  144 is at  -4.097460  1.025551  2.874959
      ESP Fit Center  145 is at  -4.097460  2.989691  2.034959
      ESP Fit Center  146 is at  -0.112170 -0.099199  3.626071
      ESP Fit Center  147 is at   0.602363  1.897038  5.489325
      ESP Fit Center  148 is at  -0.079968  0.957889  5.489325
      ESP Fit Center  149 is at   1.212659  1.897038  4.649325
      ESP Fit Center  150 is at   0.838851  2.924068  4.649325
      ESP Fit Center  151 is at   0.838851  0.870008  4.649325
      ESP Fit Center  152 is at   1.212659  1.897038  3.611027
      ESP Fit Center  153 is at   0.838851  2.924068  3.611027
      ESP Fit Center  154 is at  -0.107665  3.470539  3.611027
      ESP Fit Center  155 is at   0.838851  0.870008  3.611027
      ESP Fit Center  156 is at  -1.626770  0.667692  5.696559
      ESP Fit Center  157 is at  -0.639291  0.667692  5.375708
      ESP Fit Center  158 is at  -2.425657  0.087266  5.375708
      ESP Fit Center  159 is at  -1.321622 -0.271457  5.375708
      ESP Fit Center  160 is at  -3.128187  0.121221  4.535708
      ESP Fit Center  161 is at  -2.425657 -0.716022  4.535708
      ESP Fit Center  162 is at  -1.349319 -0.905809  4.535708
      ESP Fit Center  163 is at  -0.402803 -0.359338  4.535708
      ESP Fit Center  164 is at  -3.128187  0.121221  3.497410
      ESP Fit Center  165 is at  -2.425657 -0.716022  3.497410
      ESP Fit Center  166 is at  -1.349319 -0.905809  3.497410
      ESP Fit Center  167 is at  -0.402803 -0.359338  3.497410
      ESP Fit Center  168 is at   0.687598  2.525610  2.258661
      ESP Fit Center  169 is at  -0.029812  3.243020  2.258661
      ESP Fit Center  170 is at   0.687598  0.565610  2.258661
      ESP Fit Center  171 is at  -0.485284  3.159943  1.278661
      ESP Fit Center  172 is at  -1.534340  3.159943  1.278661
      ESP Fit Center  173 is at  -2.522996  2.607896  1.513833
      ESP Fit Center  174 is at  -3.350199 -0.748196  1.513833
      ESP Fit Center  175 is at  -3.624480  0.362230  2.857358
      ESP Fit Center  176 is at  -4.327010  1.489127  2.017358
      ESP Fit Center  177 is at  -4.327010  0.396185  2.017358
      ESP Fit Center  178 is at  -3.624480 -0.441058  2.017358
      ESP Fit Center  179 is at  -3.624480  2.326370  0.979060
      ESP Fit Center  180 is at  -4.327010  1.489127  0.979060
      ESP Fit Center  181 is at  -4.327010  0.396185  0.979060
      ESP Fit Center  182 is at  -3.624480 -0.441058  0.979060
      ESP Fit Center  183 is at  -3.624480  1.523082  0.139060
      ESP Fit Center  184 is at  -3.624480  0.362230  0.139060
      ESP Fit Center  185 is at  -2.517121 -0.930446  3.308172
      ESP Fit Center  186 is at  -1.413086 -1.289169  3.308172
      ESP Fit Center  187 is at  -0.120459 -0.350020  2.468172
      ESP Fit Center  188 is at  -3.219651 -0.896491  2.468172
      ESP Fit Center  189 is at  -2.517121 -1.733734  2.468172
      ESP Fit Center  190 is at  -1.440783 -1.923521  2.468172
      ESP Fit Center  191 is at  -0.494267 -1.377050  2.468172
      ESP Fit Center  192 is at  -3.219651 -0.896491  1.429874
      ESP Fit Center  193 is at  -2.517121 -1.733734  1.429874
      ESP Fit Center  194 is at  -1.440783 -1.923521  1.429874
      ESP Fit Center  195 is at  -0.494267 -1.377050  1.429874
      ESP Fit Center  196 is at  -2.832902  1.988925  0.090725
      ESP Fit Center  197 is at  -1.261029  0.596367 -2.009275
      ESP Fit Center  198 is at  -0.972251  3.171852  0.189573
      ESP Fit Center  199 is at  -2.048589  2.982065  0.189573
      ESP Fit Center  200 is at  -2.751119  2.144822  0.189573
      ESP Fit Center  201 is at  -0.972251  3.171852 -0.848725
      ESP Fit Center  202 is at  -2.048589  2.982065 -0.848725
      ESP Fit Center  203 is at  -2.751119  2.144822 -0.848725
      ESP Fit Center  204 is at  -0.944554  2.537500 -1.688725
      ESP Fit Center  205 is at  -2.048589  2.178777 -1.688725
      ESP Fit Center  206 is at  -1.249702  1.598351 -2.009576
      ESP Fit Center  207 is at  -3.442800 -0.553255  0.018350
      ESP Fit Center  208 is at  -2.740270 -1.390498  0.018350
      ESP Fit Center  209 is at  -1.663932 -1.580285  0.018350
      ESP Fit Center  210 is at  -3.442800  0.539687 -1.019948
      ESP Fit Center  211 is at  -3.442800 -0.553255 -1.019948
      ESP Fit Center  212 is at  -2.740270 -1.390498 -1.019948
      ESP Fit Center  213 is at  -1.663932 -1.580285 -1.019948
      ESP Fit Center  214 is at  -2.740270  0.573642 -1.859948
      ESP Fit Center  215 is at  -2.740270 -0.587210 -1.859948
      ESP Fit Center  216 is at  -1.636235 -0.945933 -1.859948
      ESP Fit Center  217 is at  -1.941383 -0.006784 -2.180799
      ESP Fit Center  218 is at   0.490000 -0.848705  1.697410
      ESP Fit Center  219 is at  -0.524528 -1.614333  0.980000
      ESP Fit Center  220 is at   0.524528 -1.614333  0.980000
      ESP Fit Center  221 is at  -0.980000 -1.697410  0.000000
      ESP Fit Center  222 is at  -0.000000 -1.960000  0.000000
      ESP Fit Center  223 is at   0.980000 -1.697410  0.000000
      ESP Fit Center  224 is at  -0.524528 -1.614333 -0.980000
      ESP Fit Center  225 is at   0.524528 -1.614333 -0.980000
      ESP Fit Center  226 is at  -0.490000 -0.848705 -1.697410
      ESP Fit Center  227 is at   0.490000 -0.848705 -1.697410
      ESP Fit Center  228 is at   0.000000  0.000000 -1.960000
      ESP Fit Center  229 is at   1.353708  2.953029  0.000000
      ESP Fit Center  230 is at   0.355911  2.831874  0.000000
      ESP Fit Center  231 is at   1.075354  1.514549  2.547187
      ESP Fit Center  232 is at   1.380502  2.453698  2.226336
      ESP Fit Center  233 is at   1.380502  0.575400  2.226336
      ESP Fit Center  234 is at   1.352805  3.088050  1.386336
      ESP Fit Center  235 is at   0.276467  2.898263  1.386336
      ESP Fit Center  236 is at   1.352805  3.088050  0.348038
      ESP Fit Center  237 is at   0.276467  2.898263  0.348038
      ESP Fit Center  238 is at   1.363855  3.068439 -0.369470
      ESP Fit Center  239 is at   0.287517  2.878652 -0.369470
      ESP Fit Center  240 is at   2.310371  2.521968 -1.407768
      ESP Fit Center  241 is at   1.363855  3.068439 -1.407768
      ESP Fit Center  242 is at   0.287517  2.878652 -1.407768
      ESP Fit Center  243 is at   2.073883  1.494938 -2.247768
      ESP Fit Center  244 is at   1.391552  2.434087 -2.247768
      ESP Fit Center  245 is at   0.287517  2.075364 -2.247768
      ESP Fit Center  246 is at   0.287517  0.914512 -2.247768
      ESP Fit Center  247 is at   1.391552  0.555789 -2.247768
      ESP Fit Center  248 is at   1.086404  1.494938 -2.568619
      ESP Fit Center  249 is at   1.603363 -1.963534  0.000000
      ESP Fit Center  250 is at   3.540969 -1.728266  0.000000
      ESP Fit Center  251 is at   1.568244 -1.990849 -0.376806
      ESP Fit Center  252 is at   2.644582 -2.180636 -0.376806
      ESP Fit Center  253 is at   0.865714 -1.153606 -1.415104
      ESP Fit Center  254 is at   1.568244 -1.990849 -1.415104
      ESP Fit Center  255 is at   2.644582 -2.180636 -1.415104
      ESP Fit Center  256 is at   3.591098 -1.634165 -1.415104
      ESP Fit Center  257 is at   3.354610 -0.607135 -2.255104
      ESP Fit Center  258 is at   2.672279  0.332014 -2.255104
      ESP Fit Center  259 is at   1.568244 -0.026709 -2.255104
      ESP Fit Center  260 is at   1.568244 -1.187561 -2.255104
      ESP Fit Center  261 is at   2.672279 -1.546284 -2.255104
      ESP Fit Center  262 is at   2.367131 -0.607135 -2.575955
      ESP Fit Center  263 is at   1.527402 -0.096658  2.202891
      ESP Fit Center  264 is at   1.527402 -1.257510  2.202891
      ESP Fit Center  265 is at   2.631437 -1.616233  2.202891
      ESP Fit Center  266 is at   0.824872 -1.223555  1.362891
      ESP Fit Center  267 is at   1.527402 -2.060798  1.362891
      ESP Fit Center  268 is at   2.603740 -2.250585  1.362891
      ESP Fit Center  269 is at   3.550256 -1.704114  1.362891
      ESP Fit Center  270 is at   1.527402 -2.060798  0.324593
      ESP Fit Center  271 is at   2.603740 -2.250585  0.324593
      ESP Fit Center  272 is at   3.550256 -1.704114  0.324593
      ESP Fit Center  273 is at   6.283551  0.953798  0.536880
      ESP Fit Center  274 is at   6.047008  1.990161  0.536880
      ESP Fit Center  275 is at   3.363470  3.282485  0.536880
      ESP Fit Center  276 is at   2.405727  2.821260  0.536880
      ESP Fit Center  277 is at   4.426486 -1.374889  0.536880
      ESP Fit Center  278 is at   5.384229 -0.913664  0.536880
      ESP Fit Center  279 is at   6.047008 -0.082565  0.536880
      ESP Fit Center  280 is at   6.283551  0.953798 -0.553472
      ESP Fit Center  281 is at   6.047008  1.990161 -0.553472
      ESP Fit Center  282 is at   5.384229  2.821260 -0.553472
      ESP Fit Center  283 is at   4.426486  3.282485 -0.553472
      ESP Fit Center  284 is at   3.363470  3.282485 -0.553472
      ESP Fit Center  285 is at   2.405727  2.821260 -0.553472
      ESP Fit Center  286 is at   4.426486 -1.374889 -0.553472
      ESP Fit Center  287 is at   5.384229 -0.913664 -0.553472
      ESP Fit Center  288 is at   6.047008 -0.082565 -0.553472
      ESP Fit Center  289 is at   5.810465  0.953798 -1.535846
      ESP Fit Center  290 is at   5.506388  1.989389 -1.535846
      ESP Fit Center  291 is at   4.690700  2.696186 -1.535846
      ESP Fit Center  292 is at   3.622376  2.849788 -1.535846
      ESP Fit Center  293 is at   2.640601  2.401427 -1.535846
      ESP Fit Center  294 is at   4.690700 -0.788590 -1.535846
      ESP Fit Center  295 is at   5.506388 -0.081793 -1.535846
      ESP Fit Center  296 is at   4.957993  0.953798 -2.215670
      ESP Fit Center  297 is at   4.426486  1.874396 -2.215670
      ESP Fit Center  298 is at   3.363470  1.874396 -2.215670
      ESP Fit Center  299 is at   2.831963  0.953798 -2.215670
      ESP Fit Center  300 is at   3.363470  0.033200 -2.215670
      ESP Fit Center  301 is at   4.426486  0.033200 -2.215670
      ESP Fit Center  302 is at   3.894978  0.953798 -2.458296
      ESP Fit Center  303 is at   3.797329  3.265740  2.782330
      ESP Fit Center  304 is at   5.029245  3.868252  2.234394
      ESP Fit Center  305 is at   3.952907  3.678465  2.234394
      ESP Fit Center  306 is at   6.349569  2.294751  1.196096
      ESP Fit Center  307 is at   5.975761  3.321781  1.196096
      ESP Fit Center  308 is at   5.029245  3.868252  1.196096
      ESP Fit Center  309 is at   3.952907  3.678465  1.196096
      ESP Fit Center  310 is at   5.056942  3.233900  0.356096
      ESP Fit Center  311 is at   3.418062  2.790327  3.453426
      ESP Fit Center  312 is at   2.314027  2.431604  3.453426
      ESP Fit Center  313 is at   2.314027  1.270752  3.453426
      ESP Fit Center  314 is at   3.390365  3.424679  2.613426
      ESP Fit Center  315 is at   2.314027  3.234892  2.613426
      ESP Fit Center  316 is at   1.611497  2.397649  2.613426
      ESP Fit Center  317 is at   1.611497  1.304707  2.613426
      ESP Fit Center  318 is at   2.314027  0.467464  2.613426
      ESP Fit Center  319 is at   2.314027  3.234892  1.575128
      ESP Fit Center  320 is at   5.784613 -1.608382  2.804542
      ESP Fit Center  321 is at   6.731129 -1.061911  2.804542
      ESP Fit Center  322 is at   7.104937 -0.034881  1.766244
      ESP Fit Center  323 is at   6.731129  0.992149  1.766244
      ESP Fit Center  324 is at   5.784613 -1.608382  1.766244
      ESP Fit Center  325 is at   6.731129 -1.061911  1.766244
      ESP Fit Center  326 is at   6.494641 -0.034881  0.926244
      ESP Fit Center  327 is at   5.812310 -0.974030  0.926244
      ESP Fit Center  328 is at   3.068454 -1.050771  4.026417
      ESP Fit Center  329 is at   2.365924  0.076126  3.186417
      ESP Fit Center  330 is at   2.365924 -1.016816  3.186417
      ESP Fit Center  331 is at   3.068454 -1.854059  3.186417
      ESP Fit Center  332 is at   4.144792 -2.043846  3.186417
      ESP Fit Center  333 is at   3.068454 -1.854059  2.148119
      ESP Fit Center  334 is at   4.144792 -2.043846  2.148119
      ESP Fit Center  335 is at   4.172489 -1.409494  1.308119
      ESP Fit Center  336 is at   4.734798  0.867840  6.839548
      ESP Fit Center  337 is at   5.266306  1.788438  6.596922
      ESP Fit Center  338 is at   4.203290  1.788438  6.596922
      ESP Fit Center  339 is at   3.671783  0.867840  6.596922
      ESP Fit Center  340 is at   4.203290 -0.052758  6.596922
      ESP Fit Center  341 is at   5.266306 -0.052758  6.596922
      ESP Fit Center  342 is at   4.462196  2.763830  5.917098
      ESP Fit Center  343 is at   3.480421  2.315469  5.917098
      ESP Fit Center  344 is at   2.896902  1.407495  5.917098
      ESP Fit Center  345 is at   2.896902  0.328185  5.917098
      ESP Fit Center  346 is at   3.480421 -0.579789  5.917098
      ESP Fit Center  347 is at   4.462196 -1.028150  5.917098
      ESP Fit Center  348 is at   4.203290  3.196527  4.934724
      ESP Fit Center  349 is at   3.245547  2.735302  4.934724
      ESP Fit Center  350 is at   2.582768  1.904203  4.934724
      ESP Fit Center  351 is at   2.346225  0.867840  4.934724
      ESP Fit Center  352 is at   2.582768 -0.168523  4.934724
      ESP Fit Center  353 is at   3.245547 -0.999622  4.934724
      ESP Fit Center  354 is at   4.203290 -1.460847  4.934724
      ESP Fit Center  355 is at   4.203290  3.196527  3.844372
      ESP Fit Center  356 is at   3.245547  2.735302  3.844372
      ESP Fit Center  357 is at   2.582768  1.904203  3.844372
      ESP Fit Center  358 is at   2.346225  0.867840  3.844372
      ESP Fit Center  359 is at   2.582768 -0.168523  3.844372
      ESP Fit Center  360 is at   5.266306 -1.460847  3.844372
      ESP Fit Center  361 is at   6.224049 -0.999622  3.844372
      ESP Fit Center  362 is at   7.492832  3.523036  4.369844
      ESP Fit Center  363 is at   5.555226  3.758304  4.369844
      ESP Fit Center  364 is at   6.278061  2.409382  6.940164
      ESP Fit Center  365 is at   7.265540  2.409382  6.619313
      ESP Fit Center  366 is at   6.583209  3.348531  6.619313
      ESP Fit Center  367 is at   5.479174  2.989808  6.619313
      ESP Fit Center  368 is at   5.479174  1.828956  6.619313
      ESP Fit Center  369 is at   7.502028  3.436412  5.779313
      ESP Fit Center  370 is at   6.555512  3.982883  5.779313
      ESP Fit Center  371 is at   5.479174  3.793096  5.779313
      ESP Fit Center  372 is at   4.776644  2.955853  5.779313
      ESP Fit Center  373 is at   6.555512  3.982883  4.741015
      ESP Fit Center  374 is at   5.479174  3.793096  4.741015
      ESP Fit Center  375 is at   7.521875  3.495384  4.039203
      ESP Fit Center  376 is at   6.575359  4.041855  4.039203
      ESP Fit Center  377 is at   5.499021  3.852068  4.039203
      ESP Fit Center  378 is at   7.521875  3.495384  3.000905
      ESP Fit Center  379 is at   6.575359  4.041855  3.000905
      ESP Fit Center  380 is at   5.499021  3.852068  3.000905
      ESP Fit Center  381 is at   7.285387  2.468354  2.160905
      ESP Fit Center  382 is at   6.603056  3.407503  2.160905
      ESP Fit Center  383 is at   6.603056  1.529205  2.160905
      ESP Fit Center  384 is at   8.110361  1.874208  2.531725
      ESP Fit Center  385 is at   9.184642  0.253628  3.014243
      ESP Fit Center  386 is at   6.787980 -1.130086  3.014243
      ESP Fit Center  387 is at   7.864318 -1.319873  3.014243
      ESP Fit Center  388 is at   8.810834 -0.773402  3.014243
      ESP Fit Center  389 is at   8.574346  0.253628  2.174243
      ESP Fit Center  390 is at   7.892015  1.192777  2.174243
      ESP Fit Center  391 is at   7.892015 -0.685521  2.174243
      ESP Fit Center  392 is at   7.586867  0.253628  1.853392
      ESP Fit Center  393 is at   8.719516  2.580642  5.533584
      ESP Fit Center  394 is at  10.012143  1.641493  4.693584
      ESP Fit Center  395 is at   9.638335  2.668523  4.693584
      ESP Fit Center  396 is at   8.691819  3.214994  4.693584
      ESP Fit Center  397 is at  10.012143  1.641493  3.655286
      ESP Fit Center  398 is at   9.638335  2.668523  3.655286
      ESP Fit Center  399 is at   8.691819  3.214994  3.655286
      ESP Fit Center  400 is at   9.638335  0.614463  3.655286
      ESP Fit Center  401 is at   9.401847  1.641493  2.815286
      ESP Fit Center  402 is at   8.719516  2.580642  2.815286
      ESP Fit Center  403 is at   8.414368  1.641493  2.494435
      ESP Fit Center  404 is at   7.989819  0.094122  8.345585
      ESP Fit Center  405 is at   9.052834  0.094122  8.102959
      ESP Fit Center  406 is at   8.521327  1.014720  8.102959
      ESP Fit Center  407 is at   7.458311  1.014720  8.102959
      ESP Fit Center  408 is at   6.926804  0.094122  8.102959
      ESP Fit Center  409 is at   8.521327 -0.826476  8.102959
      ESP Fit Center  410 is at   9.905306  0.094122  7.423135
      ESP Fit Center  411 is at   9.601229  1.129713  7.423135
      ESP Fit Center  412 is at   8.785541  1.836510  7.423135
      ESP Fit Center  413 is at   7.717217  1.990112  7.423135
      ESP Fit Center  414 is at   6.735442  1.541751  7.423135
      ESP Fit Center  415 is at   6.151923  0.633777  7.423135
      ESP Fit Center  416 is at   6.151923 -0.445533  7.423135
      ESP Fit Center  417 is at   9.601229 -0.941469  7.423135
      ESP Fit Center  418 is at  10.378392  0.094122  6.440761
      ESP Fit Center  419 is at  10.141849  1.130485  6.440761
      ESP Fit Center  420 is at   9.479070  1.961584  6.440761
      ESP Fit Center  421 is at   8.521327  2.422809  6.440761
      ESP Fit Center  422 is at  10.141849 -0.942241  6.440761
      ESP Fit Center  423 is at  10.378392  0.094122  5.350409
      ESP Fit Center  424 is at  10.141849  1.130485  5.350409
      ESP Fit Center  425 is at   9.479070 -1.773340  5.350409
      ESP Fit Center  426 is at  10.141849 -0.942241  5.350409
      ESP Fit Center  427 is at   9.905306  0.094122  4.368035
      ESP Fit Center  428 is at   9.601229 -0.941469  4.368035
      ESP Fit Center  429 is at   6.143305 -2.956702  4.562654
      ESP Fit Center  430 is at   6.284270 -1.582256  3.794001
      ESP Fit Center  431 is at   5.463857 -0.951880  6.846580
      ESP Fit Center  432 is at   5.463857 -2.112732  6.846580
      ESP Fit Center  433 is at   4.761327 -0.985835  6.006580
      ESP Fit Center  434 is at   4.761327 -2.078777  6.006580
      ESP Fit Center  435 is at   5.463857 -2.916020  6.006580
      ESP Fit Center  436 is at   4.761327 -2.078777  4.968282
      ESP Fit Center  437 is at   5.463857 -2.916020  4.968282
      ESP Fit Center  438 is at   5.463857 -2.112732  4.128282
      ESP Fit Center  439 is at   9.366543 -1.974499  5.219590
      ESP Fit Center  440 is at   8.992735 -3.001529  5.219590
      ESP Fit Center  441 is at   9.366543 -1.974499  4.181292
      ESP Fit Center  442 is at   6.969881 -3.358213  4.181292
      ESP Fit Center  443 is at   8.046219 -3.548000  4.181292
      ESP Fit Center  444 is at   8.992735 -3.001529  4.181292
      ESP Fit Center  445 is at   8.756247 -1.974499  3.341292
      ESP Fit Center  446 is at   6.969881 -1.394073  3.341292
      ESP Fit Center  447 is at   6.969881 -2.554925  3.341292
      ESP Fit Center  448 is at   8.073916 -2.913648  3.341292
      ESP Fit Center  449 is at   7.768768 -1.974499  3.020441
      ESP Fit Center  450 is at   8.744526 -2.477859  8.613189
      ESP Fit Center  451 is at   8.219526 -3.387186  8.613189
      ESP Fit Center  452 is at   8.450022 -4.132164  7.844536
      ESP Fit Center  453 is at   5.655548 -2.980422  6.794536
      ESP Fit Center  454 is at   8.768921 -2.545654  8.605082
      ESP Fit Center  455 is at   9.756400 -2.545654  8.284231
      ESP Fit Center  456 is at   9.074069 -1.606505  8.284231
      ESP Fit Center  457 is at   9.074069 -3.484803  8.284231
      ESP Fit Center  458 is at  10.366696 -2.545654  7.444231
      ESP Fit Center  459 is at   9.992888 -1.518624  7.444231
      ESP Fit Center  460 is at   9.046372 -4.119155  7.444231
      ESP Fit Center  461 is at   9.992888 -3.572684  7.444231
      ESP Fit Center  462 is at  10.366696 -2.545654  6.405933
      ESP Fit Center  463 is at   9.992888 -1.518624  6.405933
      ESP Fit Center  464 is at   9.046372 -4.119155  6.405933
      ESP Fit Center  465 is at   9.992888 -3.572684  6.405933
      ESP Fit Center  466 is at   9.756400 -2.545654  5.565933
      ESP Fit Center  467 is at   9.074069 -3.484803  5.565933
      ESP Fit Center  468 is at   7.263639 -2.102101  9.396081
      ESP Fit Center  469 is at   8.251118 -2.102101  9.075230
      ESP Fit Center  470 is at   7.568787 -1.162952  9.075230
      ESP Fit Center  471 is at   6.464752 -1.521675  9.075230
      ESP Fit Center  472 is at   6.464752 -2.682527  9.075230
      ESP Fit Center  473 is at   7.568787 -3.041250  9.075230
      ESP Fit Center  474 is at   8.487606 -1.075071  8.235230
      ESP Fit Center  475 is at   7.541090 -0.528600  8.235230
      ESP Fit Center  476 is at   6.464752 -0.718387  8.235230
      ESP Fit Center  477 is at   5.762222 -1.555630  8.235230
      ESP Fit Center  478 is at   5.762222 -2.648572  8.235230
      ESP Fit Center  479 is at   6.464752 -3.485815  8.235230
      ESP Fit Center  480 is at   5.762222 -1.555630  7.196932
      ESP Fit Center  481 is at   6.511073 -4.059478  7.987581
      ESP Fit Center  482 is at   7.615108 -4.418201  7.987581
      ESP Fit Center  483 is at   5.808543 -4.025523  7.147581
      ESP Fit Center  484 is at   6.511073 -4.862766  7.147581
      ESP Fit Center  485 is at   7.587411 -5.052553  7.147581
      ESP Fit Center  486 is at   8.533927 -4.506082  7.147581
      ESP Fit Center  487 is at   5.808543 -4.025523  6.109283
      ESP Fit Center  488 is at   6.511073 -4.862766  6.109283
      ESP Fit Center  489 is at   7.587411 -5.052553  6.109283
      ESP Fit Center  490 is at   8.533927 -4.506082  6.109283
      ESP Fit Center  491 is at   6.511073 -4.059478  5.269283
      ESP Fit Center  492 is at   7.615108 -4.418201  5.269283
      ESP Fit Center  493 is at  -2.352487  3.596887  9.851587
      ESP Fit Center  494 is at  -3.393808  3.596887  9.613912
      ESP Fit Center  495 is at  -0.012660  3.596887  7.985637
      ESP Fit Center  496 is at  -0.244376  2.581674  7.985637
      ESP Fit Center  497 is at  -2.873147  5.878050  6.917537
      ESP Fit Center  498 is at  -2.174381  2.602084  9.763929
      ESP Fit Center  499 is at  -1.214381  2.602084  9.506698
      ESP Fit Center  500 is at  -3.134381  2.602084  9.506698
      ESP Fit Center  501 is at  -2.654381  1.770700  9.506698
      ESP Fit Center  502 is at  -1.694381  1.770700  9.506698
      ESP Fit Center  503 is at  -0.511612  2.602084  8.803929
      ESP Fit Center  504 is at  -3.519589  1.624733  8.803929
      ESP Fit Center  505 is at  -2.688205  1.020697  8.803929
      ESP Fit Center  506 is at  -1.660557  1.020697  8.803929
      ESP Fit Center  507 is at  -0.829173  1.624733  8.803929
      ESP Fit Center  508 is at  -3.837150  1.642084  7.843929
      ESP Fit Center  509 is at  -3.134381  0.939315  7.843929
      ESP Fit Center  510 is at  -2.174381  0.682084  7.843929
      ESP Fit Center  511 is at  -1.214381  0.939315  7.843929
      ESP Fit Center  512 is at  -0.511612  1.642084  7.843929
      ESP Fit Center  513 is at  -2.688205  1.020697  6.883929
      ESP Fit Center  514 is at  -1.660557  1.020697  6.883929
      ESP Fit Center  515 is at  -0.829173  1.624733  6.883929
      ESP Fit Center  516 is at  -1.800460  4.310492  9.975237
      ESP Fit Center  517 is at  -0.840460  4.310492  9.718006
      ESP Fit Center  518 is at  -1.320460  5.141876  9.718006
      ESP Fit Center  519 is at  -2.280460  5.141876  9.718006
      ESP Fit Center  520 is at  -2.760460  4.310492  9.718006
      ESP Fit Center  521 is at  -1.320460  3.479108  9.718006
      ESP Fit Center  522 is at  -0.137691  4.310492  9.015237
      ESP Fit Center  523 is at  -0.455252  5.287843  9.015237
      ESP Fit Center  524 is at  -1.286636  5.891879  9.015237
      ESP Fit Center  525 is at  -2.314284  5.891879  9.015237
      ESP Fit Center  526 is at  -3.145668  5.287843  9.015237
      ESP Fit Center  527 is at  -0.455252  3.333141  9.015237
      ESP Fit Center  528 is at   0.119540  4.310492  8.055237
      ESP Fit Center  529 is at  -0.137691  5.270492  8.055237
      ESP Fit Center  530 is at  -0.840460  5.973261  8.055237
      ESP Fit Center  531 is at  -1.800460  6.230492  8.055237
      ESP Fit Center  532 is at  -2.760460  5.973261  8.055237
      ESP Fit Center  533 is at  -0.455252  5.287843  7.095237
      ESP Fit Center  534 is at  -1.286636  5.891879  7.095237
      ESP Fit Center  535 is at  -3.890948  4.644843  9.203500
      ESP Fit Center  536 is at  -4.370948  3.813459  9.203500
      ESP Fit Center  537 is at  -3.890948  2.982075  9.203500
      ESP Fit Center  538 is at  -3.924772  5.394846  8.500731
      ESP Fit Center  539 is at  -4.756156  4.790810  8.500731
      ESP Fit Center  540 is at  -5.073717  3.813459  8.500731
      ESP Fit Center  541 is at  -4.756156  2.836108  8.500731
      ESP Fit Center  542 is at  -4.370948  5.476228  7.540731
      ESP Fit Center  543 is at  -5.073717  4.773459  7.540731
      ESP Fit Center  544 is at  -5.330948  3.813459  7.540731
      ESP Fit Center  545 is at  -5.073717  2.853459  7.540731
      ESP Fit Center  546 is at  -4.370948  2.150690  7.540731
      ESP Fit Center  547 is at  -3.924772  5.394846  6.580731
      ESP Fit Center  548 is at  -4.756156  4.790810  6.580731
      ESP Fit Center  549 is at  -5.073717  3.813459  6.580731
      ESP Fit Center  550 is at  -4.756156  2.836108  6.580731
      ESP Fit Center  551 is at  -0.459092  5.509555  6.535901
      ESP Fit Center  552 is at  -1.397290  1.399042  6.535901
      ESP Fit Center  553 is at  -4.026061  4.695418  5.467801
      ESP Fit Center  554 is at  -0.339426  4.694661  4.505475
      ESP Fit Center  555 is at  -1.570664  6.264164  6.571734
      ESP Fit Center  556 is at  -2.598312  6.264164  6.571734
      ESP Fit Center  557 is at  -3.429696  5.660128  6.571734
      ESP Fit Center  558 is at  -0.421719  5.642777  5.611734
      ESP Fit Center  559 is at  -1.124488  6.345546  5.611734
      ESP Fit Center  560 is at  -2.084488  6.602777  5.611734
      ESP Fit Center  561 is at  -3.044488  6.345546  5.611734
      ESP Fit Center  562 is at  -3.747257  5.642777  5.611734
      ESP Fit Center  563 is at  -0.739280  5.660128  4.651734
      ESP Fit Center  564 is at  -1.570664  6.264164  4.651734
      ESP Fit Center  565 is at  -2.598312  6.264164  4.651734
      ESP Fit Center  566 is at  -3.429696  5.660128  4.651734
      ESP Fit Center  567 is at  -3.747257  4.682777  4.651734
      ESP Fit Center  568 is at  -1.604488  5.514161  3.948965
      ESP Fit Center  569 is at  -2.564488  5.514161  3.948965
      ESP Fit Center  570 is at   0.106221  3.471206  7.578561
      ESP Fit Center  571 is at   0.808990  3.471206  6.875792
      ESP Fit Center  572 is at   0.491429  4.448557  6.875792
      ESP Fit Center  573 is at  -0.339955  1.889819  6.875792
      ESP Fit Center  574 is at   0.491429  2.493855  6.875792
      ESP Fit Center  575 is at   1.066221  3.471206  5.915792
      ESP Fit Center  576 is at   0.808990  4.431206  5.915792
      ESP Fit Center  577 is at   0.106221  5.133975  5.915792
      ESP Fit Center  578 is at   0.808990  2.511206  5.915792
      ESP Fit Center  579 is at   0.808990  3.471206  4.955792
      ESP Fit Center  580 is at   0.491429  4.448557  4.955792
      ESP Fit Center  581 is at  -0.373779  4.302590  4.253023
      ESP Fit Center  582 is at  -4.085456  1.725259  6.660735
      ESP Fit Center  583 is at  -3.209804  1.089061  6.660735
      ESP Fit Center  584 is at  -2.127440  1.089061  6.660735
      ESP Fit Center  585 is at  -4.303249  4.202802  5.762565
      ESP Fit Center  586 is at  -4.789002  3.277276  5.762565
      ESP Fit Center  587 is at  -4.789002  2.232022  5.762565
      ESP Fit Center  588 is at  -4.303249  1.306496  5.762565
      ESP Fit Center  589 is at  -3.443022  0.712725  5.762565
      ESP Fit Center  590 is at  -4.303249  4.202802  4.765671
      ESP Fit Center  591 is at  -4.789002  3.277276  4.765671
      ESP Fit Center  592 is at  -4.789002  2.232022  4.765671
      ESP Fit Center  593 is at  -4.303249  1.306496  4.765671
      ESP Fit Center  594 is at  -3.837233  4.506583  4.433198
      ESP Fit Center  595 is at  -3.837233  0.847883  4.433198
      ESP Fit Center  596 is at  -3.837233  4.506583  3.365098
      ESP Fit Center  597 is at  -3.607153  4.095318  2.402772
      ESP Fit Center  598 is at  -2.899035  3.579043  1.736823
      ESP Fit Center  599 is at  -0.393927  4.598756  3.507003
      ESP Fit Center  600 is at  -1.096696  5.301525  3.507003
      ESP Fit Center  601 is at  -2.056696  5.558756  3.507003
      ESP Fit Center  602 is at  -3.016696  5.301525  3.507003
      ESP Fit Center  603 is at  -0.711488  4.616107  2.547003
      ESP Fit Center  604 is at  -1.542872  5.220143  2.547003
      ESP Fit Center  605 is at  -2.570520  5.220143  2.547003
      ESP Fit Center  606 is at  -3.401904  4.616107  2.547003
      ESP Fit Center  607 is at  -1.576696  4.470140  1.844234
      ESP Fit Center  608 is at  -2.536696  4.470140  1.844234
      ESP Fit Center  609 is at  -2.056696  3.638756  1.587003
      ESP Fit Center  610 is at  -4.643781  3.386616  4.354108
      ESP Fit Center  611 is at  -4.961342  2.409265  4.354108
      ESP Fit Center  612 is at  -4.643781  1.431914  4.354108
      ESP Fit Center  613 is at  -4.961342  3.369265  3.394108
      ESP Fit Center  614 is at  -5.218573  2.409265  3.394108
      ESP Fit Center  615 is at  -4.961342  1.449265  3.394108
      ESP Fit Center  616 is at  -4.258573  0.746496  3.394108
      ESP Fit Center  617 is at  -3.812397  3.990652  2.434108
      ESP Fit Center  618 is at  -4.643781  3.386616  2.434108
      ESP Fit Center  619 is at  -4.961342  2.409265  2.434108
      ESP Fit Center  620 is at  -4.643781  1.431914  2.434108
      ESP Fit Center  621 is at  -3.778573  3.240649  1.731339
      ESP Fit Center  622 is at  -4.258573  2.409265  1.731339
      ESP Fit Center  623 is at  -0.784446  0.727257  5.788396
      ESP Fit Center  624 is at   0.153752 -0.200283  4.160121
      ESP Fit Center  625 is at   0.153752  3.458417  3.092021
      ESP Fit Center  626 is at   0.153752 -0.200283  3.092021
      ESP Fit Center  627 is at   0.574884  1.897038  5.792945
      ESP Fit Center  628 is at   0.094884  1.065654  5.792945
      ESP Fit Center  629 is at   1.277653  1.897038  5.090176
      ESP Fit Center  630 is at   0.960092  2.874389  5.090176
      ESP Fit Center  631 is at   0.128708  0.315651  5.090176
      ESP Fit Center  632 is at   0.960092  0.919687  5.090176
      ESP Fit Center  633 is at   1.534884  1.897038  4.130176
      ESP Fit Center  634 is at   1.277653  2.857038  4.130176
      ESP Fit Center  635 is at   0.574884  3.559807  4.130176
      ESP Fit Center  636 is at   1.277653  0.937038  4.130176
      ESP Fit Center  637 is at   1.277653  1.897038  3.170176
      ESP Fit Center  638 is at   0.960092  2.874389  3.170176
      ESP Fit Center  639 is at   0.960092  0.919687  3.170176
      ESP Fit Center  640 is at  -1.626770  0.667692  5.936559
      ESP Fit Center  641 is at  -2.106770 -0.163692  5.679328
      ESP Fit Center  642 is at  -1.146770 -0.163692  5.679328
      ESP Fit Center  643 is at  -2.971978 -0.309659  4.976559
      ESP Fit Center  644 is at  -2.140594 -0.913695  4.976559
      ESP Fit Center  645 is at  -1.112946 -0.913695  4.976559
      ESP Fit Center  646 is at  -0.281562 -0.309659  4.976559
      ESP Fit Center  647 is at  -3.289539 -0.292308  4.016559
      ESP Fit Center  648 is at  -2.586770 -0.995077  4.016559
      ESP Fit Center  649 is at  -1.626770 -1.252308  4.016559
      ESP Fit Center  650 is at  -0.666770 -0.995077  4.016559
      ESP Fit Center  651 is at   0.923881  2.560490  2.757108
      ESP Fit Center  652 is at   0.230750  3.342874  2.757108
      ESP Fit Center  653 is at   0.230750 -0.251654  2.757108
      ESP Fit Center  654 is at   0.923881  0.530730  2.757108
      ESP Fit Center  655 is at   0.230750  3.342874  1.760214
      ESP Fit Center  656 is at  -0.746579  3.713526  1.760214
      ESP Fit Center  657 is at  -0.468630  3.211198  0.862044
      ESP Fit Center  658 is at  -1.550994  3.211198  0.862044
      ESP Fit Center  659 is at  -2.298986  2.925525  0.979783
      ESP Fit Center  660 is at  -3.237184 -1.184988  0.979783
      ESP Fit Center  661 is at  -4.488362  0.942656  2.458209
      ESP Fit Center  662 is at  -4.170801 -0.034695  2.458209
      ESP Fit Center  663 is at  -2.825593  2.862656  1.498209
      ESP Fit Center  664 is at  -3.785593  2.605425  1.498209
      ESP Fit Center  665 is at  -4.488362  1.902656  1.498209
      ESP Fit Center  666 is at  -4.745593  0.942656  1.498209
      ESP Fit Center  667 is at  -4.488362 -0.017344  1.498209
      ESP Fit Center  668 is at  -3.785593 -0.720113  1.498209
      ESP Fit Center  669 is at  -3.339417  2.524043  0.538209
      ESP Fit Center  670 is at  -4.170801  1.920007  0.538209
      ESP Fit Center  671 is at  -4.488362  0.942656  0.538209
      ESP Fit Center  672 is at  -4.170801 -0.034695  0.538209
      ESP Fit Center  673 is at  -3.785593  0.942656 -0.164560
      ESP Fit Center  674 is at  -2.198234 -1.181404  3.611792
      ESP Fit Center  675 is at  -1.238234 -1.181404  3.611792
      ESP Fit Center  676 is at  -3.063442 -1.327371  2.909023
      ESP Fit Center  677 is at  -2.232058 -1.931407  2.909023
      ESP Fit Center  678 is at  -1.204410 -1.931407  2.909023
      ESP Fit Center  679 is at  -0.373026 -1.327371  2.909023
      ESP Fit Center  680 is at  -3.381003 -1.310020  1.949023
      ESP Fit Center  681 is at  -2.678234 -2.012789  1.949023
      ESP Fit Center  682 is at  -1.718234 -2.270020  1.949023
      ESP Fit Center  683 is at  -0.758234 -2.012789  1.949023
      ESP Fit Center  684 is at  -0.055465 -1.310020  1.949023
      ESP Fit Center  685 is at  -3.063442 -1.327371  0.989023
      ESP Fit Center  686 is at  -2.232058 -1.931407  0.989023
      ESP Fit Center  687 is at  -1.204410 -1.931407  0.989023
      ESP Fit Center  688 is at  -3.369140  1.611580 -0.443325
      ESP Fit Center  689 is at  -1.261029  0.596367 -2.309275
      ESP Fit Center  690 is at  -0.735878  3.179738  0.630424
      ESP Fit Center  691 is at  -1.763526  3.179738  0.630424
      ESP Fit Center  692 is at  -0.289702  3.261120 -0.329576
      ESP Fit Center  693 is at  -1.249702  3.518351 -0.329576
      ESP Fit Center  694 is at  -2.209702  3.261120 -0.329576
      ESP Fit Center  695 is at  -2.912471  2.558351 -0.329576
      ESP Fit Center  696 is at  -0.735878  3.179738 -1.289576
      ESP Fit Center  697 is at  -1.763526  3.179738 -1.289576
      ESP Fit Center  698 is at  -2.594910  2.575702 -1.289576
      ESP Fit Center  699 is at  -0.769702  2.429735 -1.992345
      ESP Fit Center  700 is at  -1.729702  2.429735 -1.992345
      ESP Fit Center  701 is at  -2.209702  1.598351 -1.992345
      ESP Fit Center  702 is at  -1.249702  1.598351 -2.249576
      ESP Fit Center  703 is at  -3.286591 -0.984135  0.459201
      ESP Fit Center  704 is at  -2.455207 -1.588171  0.459201
      ESP Fit Center  705 is at  -3.604152  0.953216 -0.500799
      ESP Fit Center  706 is at  -3.861383 -0.006784 -0.500799
      ESP Fit Center  707 is at  -3.604152 -0.966784 -0.500799
      ESP Fit Center  708 is at  -2.901383 -1.669553 -0.500799
      ESP Fit Center  709 is at  -1.941383 -1.926784 -0.500799
      ESP Fit Center  710 is at  -3.286591  0.970567 -1.460799
      ESP Fit Center  711 is at  -3.604152 -0.006784 -1.460799
      ESP Fit Center  712 is at  -3.286591 -0.984135 -1.460799
      ESP Fit Center  713 is at  -2.455207 -1.588171 -1.460799
      ESP Fit Center  714 is at  -1.427559 -1.588171 -1.460799
      ESP Fit Center  715 is at  -2.421383  0.824600 -2.163568
      ESP Fit Center  716 is at  -2.901383 -0.006784 -2.163568
      ESP Fit Center  717 is at  -2.421383 -0.838168 -2.163568
      ESP Fit Center  718 is at  -1.461383 -0.838168 -2.163568
      ESP Fit Center  719 is at  -1.941383 -0.006784 -2.420799
      ESP Fit Center  720 is at   0.485950 -0.841690  2.018170
      ESP Fit Center  721 is at   0.541182 -1.665588  1.396617
      ESP Fit Center  722 is at  -0.774400 -2.041924  0.498447
      ESP Fit Center  723 is at   0.263233 -2.167916  0.498447
      ESP Fit Center  724 is at  -0.774400 -2.041924 -0.498447
      ESP Fit Center  725 is at   0.263233 -2.167916 -0.498447
      ESP Fit Center  726 is at  -0.541182 -1.665588 -1.396617
      ESP Fit Center  727 is at   0.541182 -1.665588 -1.396617
      ESP Fit Center  728 is at  -0.485950 -0.841690 -2.018170
      ESP Fit Center  729 is at   0.485950 -0.841690 -2.018170
      ESP Fit Center  730 is at   0.000000  0.000000 -2.240000
      ESP Fit Center  731 is at   1.555354  0.683165  2.529956
      ESP Fit Center  732 is at   1.589178  3.095936  1.827187
      ESP Fit Center  733 is at   0.561530  3.095936  1.827187
      ESP Fit Center  734 is at   2.035354  3.177318  0.867187
      ESP Fit Center  735 is at   1.075354  3.434549  0.867187
      ESP Fit Center  736 is at   0.115354  3.177318  0.867187
      ESP Fit Center  737 is at   2.046404  3.157707 -0.888619
      ESP Fit Center  738 is at   1.086404  3.414938 -0.888619
      ESP Fit Center  739 is at   0.126404  3.157707 -0.888619
      ESP Fit Center  740 is at   1.600228  3.076325 -1.848619
      ESP Fit Center  741 is at   0.572580  3.076325 -1.848619
      ESP Fit Center  742 is at  -0.258804  2.472289 -1.848619
      ESP Fit Center  743 is at   2.046404  1.494938 -2.551388
      ESP Fit Center  744 is at   1.566404  2.326322 -2.551388
      ESP Fit Center  745 is at   0.606404  2.326322 -2.551388
      ESP Fit Center  746 is at   0.126404  1.494938 -2.551388
      ESP Fit Center  747 is at   0.606404  0.663554 -2.551388
      ESP Fit Center  748 is at   1.566404  0.663554 -2.551388
      ESP Fit Center  749 is at   1.086404  1.494938 -2.808619
      ESP Fit Center  750 is at   3.806891 -1.829350 -0.534050
      ESP Fit Center  751 is at   1.407131 -2.269904 -0.895955
      ESP Fit Center  752 is at   2.367131 -2.527135 -0.895955
      ESP Fit Center  753 is at   3.327131 -2.269904 -0.895955
      ESP Fit Center  754 is at   1.021923 -1.584486 -1.855955
      ESP Fit Center  755 is at   1.853307 -2.188522 -1.855955
      ESP Fit Center  756 is at   2.880955 -2.188522 -1.855955
      ESP Fit Center  757 is at   3.712339 -1.584486 -1.855955
      ESP Fit Center  758 is at   3.327131 -0.607135 -2.558724
      ESP Fit Center  759 is at   2.847131  0.224249 -2.558724
      ESP Fit Center  760 is at   1.887131  0.224249 -2.558724
      ESP Fit Center  761 is at   1.407131 -0.607135 -2.558724
      ESP Fit Center  762 is at   1.887131 -1.438519 -2.558724
      ESP Fit Center  763 is at   2.847131 -1.438519 -2.558724
      ESP Fit Center  764 is at   2.367131 -0.607135 -2.815955
      ESP Fit Center  765 is at   1.846289  0.154300  2.506511
      ESP Fit Center  766 is at   1.366289 -0.677084  2.506511
      ESP Fit Center  767 is at   1.846289 -1.508468  2.506511
      ESP Fit Center  768 is at   0.981081 -1.654435  1.803742
      ESP Fit Center  769 is at   1.812465 -2.258471  1.803742
      ESP Fit Center  770 is at   2.840113 -2.258471  1.803742
      ESP Fit Center  771 is at   1.366289 -2.339853  0.843742
      ESP Fit Center  772 is at   2.326289 -2.597084  0.843742
      ESP Fit Center  773 is at   3.286289 -2.339853  0.843742
      ESP Fit Center  774 is at   4.694363 -1.506455  1.063218
      ESP Fit Center  775 is at   6.694978  0.953798 -0.008296
      ESP Fit Center  776 is at   6.505900  1.965275 -0.008296
      ESP Fit Center  777 is at   5.964203  2.840146 -0.008296
      ESP Fit Center  778 is at   5.143045  3.460255 -0.008296
      ESP Fit Center  779 is at   4.153329  3.741854 -0.008296
      ESP Fit Center  780 is at   3.128722  3.646910 -0.008296
      ESP Fit Center  781 is at   2.207601  3.188246 -0.008296
      ESP Fit Center  782 is at   4.153329 -1.834258 -0.008296
      ESP Fit Center  783 is at   5.143045 -1.552659 -0.008296
      ESP Fit Center  784 is at   5.964203 -0.932550 -0.008296
      ESP Fit Center  785 is at   6.505900 -0.057679 -0.008296
      ESP Fit Center  786 is at   6.481841  0.953798 -1.079810
      ESP Fit Center  787 is at   6.258195  2.005970 -1.079810
      ESP Fit Center  788 is at   5.625927  2.876212 -1.079810
      ESP Fit Center  789 is at   4.694363  3.414051 -1.079810
      ESP Fit Center  790 is at   3.624577  3.526490 -1.079810
      ESP Fit Center  791 is at   2.601547  3.194087 -1.079810
      ESP Fit Center  792 is at   4.694363 -1.506455 -1.079810
      ESP Fit Center  793 is at   5.625927 -0.968616 -1.079810
      ESP Fit Center  794 is at   6.258195 -0.098374 -1.079810
      ESP Fit Center  795 is at   5.874877  0.953798 -1.988195
      ESP Fit Center  796 is at   5.609621  1.943747 -1.988195
      ESP Fit Center  797 is at   4.884927  2.668441 -1.988195
      ESP Fit Center  798 is at   3.894978  2.933697 -1.988195
      ESP Fit Center  799 is at   2.905029  2.668441 -1.988195
      ESP Fit Center  800 is at   3.894978 -1.026101 -1.988195
      ESP Fit Center  801 is at   4.884927 -0.760845 -1.988195
      ESP Fit Center  802 is at   5.609621 -0.036151 -1.988195
      ESP Fit Center  803 is at   4.966492  0.953798 -2.595159
      ESP Fit Center  804 is at   4.430735  1.881756 -2.595159
      ESP Fit Center  805 is at   3.359221  1.881756 -2.595159
      ESP Fit Center  806 is at   2.823464  0.953798 -2.595159
      ESP Fit Center  807 is at   3.359221  0.025840 -2.595159
      ESP Fit Center  808 is at   4.430735  0.025840 -2.595159
      ESP Fit Center  809 is at   3.894978  0.953798 -2.808296
      ESP Fit Center  810 is at   3.789111  3.322895  3.228706
      ESP Fit Center  811 is at   3.535490  3.746761  2.266380
      ESP Fit Center  812 is at   3.535490  3.746761  1.198280
      ESP Fit Center  813 is at   5.265618  3.876138  2.675245
      ESP Fit Center  814 is at   4.237970  3.876138  2.675245
      ESP Fit Center  815 is at   6.414563  3.254751  1.715245
      ESP Fit Center  816 is at   5.711794  3.957520  1.715245
      ESP Fit Center  817 is at   4.751794  4.214751  1.715245
      ESP Fit Center  818 is at   3.791794  3.957520  1.715245
      ESP Fit Center  819 is at   6.414563  2.294751  0.755245
      ESP Fit Center  820 is at   6.097002  3.272102  0.755245
      ESP Fit Center  821 is at   5.265618  3.876138  0.755245
      ESP Fit Center  822 is at   4.237970  3.876138  0.755245
      ESP Fit Center  823 is at   2.632914  2.682562  3.757046
      ESP Fit Center  824 is at   2.152914  1.851178  3.757046
      ESP Fit Center  825 is at   3.626738  3.432565  3.054277
      ESP Fit Center  826 is at   2.599090  3.432565  3.054277
      ESP Fit Center  827 is at   1.767706  2.828529  3.054277
      ESP Fit Center  828 is at   1.450145  1.851178  3.054277
      ESP Fit Center  829 is at   1.767706  0.873827  3.054277
      ESP Fit Center  830 is at   3.112914  3.771178  2.094277
      ESP Fit Center  831 is at   2.152914  3.513947  2.094277
      ESP Fit Center  832 is at   2.599090  3.432565  1.134277
      ESP Fit Center  833 is at   5.086744 -1.925201  3.183729
      ESP Fit Center  834 is at   5.086744 -1.925201  2.115629
      ESP Fit Center  835 is at   6.020986 -1.616268  3.245393
      ESP Fit Center  836 is at   5.507162 -1.954881  2.285393
      ESP Fit Center  837 is at   6.467162 -1.697650  2.285393
      ESP Fit Center  838 is at   7.169931 -0.034881  1.325393
      ESP Fit Center  839 is at   6.852370  0.942470  1.325393
      ESP Fit Center  840 is at   4.993338 -1.616268  1.325393
      ESP Fit Center  841 is at   6.020986 -1.616268  1.325393
      ESP Fit Center  842 is at   6.852370 -1.012232  1.325393
      ESP Fit Center  843 is at   6.467162 -0.034881  0.622624
      ESP Fit Center  844 is at   5.987162 -0.866265  0.622624
      ESP Fit Center  845 is at   2.204572 -0.470345  3.627268
      ESP Fit Center  846 is at   2.522133 -1.447696  3.627268
      ESP Fit Center  847 is at   3.353517 -2.051732  3.627268
      ESP Fit Center  848 is at   4.381165 -2.051732  3.627268
      ESP Fit Center  849 is at   2.204572 -1.430345  2.667268
      ESP Fit Center  850 is at   2.907341 -2.133114  2.667268
      ESP Fit Center  851 is at   3.867341 -2.390345  2.667268
      ESP Fit Center  852 is at   4.827341 -2.133114  2.667268
      ESP Fit Center  853 is at   3.353517 -2.051732  1.707268
      ESP Fit Center  854 is at   4.381165 -2.051732  1.707268
      ESP Fit Center  855 is at   4.734798  0.867840  7.189548
      ESP Fit Center  856 is at   5.270555  1.795798  6.976411
      ESP Fit Center  857 is at   4.199041  1.795798  6.976411
      ESP Fit Center  858 is at   3.663284  0.867840  6.976411
      ESP Fit Center  859 is at   4.199041 -0.060118  6.976411
      ESP Fit Center  860 is at   5.270555 -0.060118  6.976411
      ESP Fit Center  861 is at   4.734798  2.847739  6.369447
      ESP Fit Center  862 is at   3.744849  2.582483  6.369447
      ESP Fit Center  863 is at   3.020155  1.857789  6.369447
      ESP Fit Center  864 is at   2.754899  0.867840  6.369447
      ESP Fit Center  865 is at   3.020155 -0.122109  6.369447
      ESP Fit Center  866 is at   3.744849 -0.846803  6.369447
      ESP Fit Center  867 is at   4.464397  3.440532  5.461062
      ESP Fit Center  868 is at   3.441367  3.108129  5.461062
      ESP Fit Center  869 is at   2.641982  2.388360  5.461062
      ESP Fit Center  870 is at   2.204464  1.405679  5.461062
      ESP Fit Center  871 is at   2.204464  0.330001  5.461062
      ESP Fit Center  872 is at   2.641982 -0.652680  5.461062
      ESP Fit Center  873 is at   3.441367 -1.372449  5.461062
      ESP Fit Center  874 is at   3.968542  3.560952  4.389548
      ESP Fit Center  875 is at   3.047421  3.102288  4.389548
      ESP Fit Center  876 is at   2.354190  2.341850  4.389548
      ESP Fit Center  877 is at   1.982473  1.382339  4.389548
      ESP Fit Center  878 is at   1.982473  0.353341  4.389548
      ESP Fit Center  879 is at   2.354190 -0.606170  4.389548
      ESP Fit Center  880 is at   3.047421 -1.366608  4.389548
      ESP Fit Center  881 is at   3.968542 -1.825272  4.389548
      ESP Fit Center  882 is at   4.464397  3.440532  3.318034
      ESP Fit Center  883 is at   2.204464  0.330001  3.318034
      ESP Fit Center  884 is at   7.758754  3.624120  4.903894
      ESP Fit Center  885 is at   6.278061  2.409382  7.180164
      ESP Fit Center  886 is at   6.758061  3.240766  6.922933
      ESP Fit Center  887 is at   5.798061  3.240766  6.922933
      ESP Fit Center  888 is at   5.318061  2.409382  6.922933
      ESP Fit Center  889 is at   5.798061  1.577998  6.922933
      ESP Fit Center  890 is at   7.623269  3.386733  6.220164
      ESP Fit Center  891 is at   6.791885  3.990769  6.220164
      ESP Fit Center  892 is at   5.764237  3.990769  6.220164
      ESP Fit Center  893 is at   4.932853  3.386733  6.220164
      ESP Fit Center  894 is at   7.940830  3.369382  5.260164
      ESP Fit Center  895 is at   7.238061  4.072151  5.260164
      ESP Fit Center  896 is at   6.278061  4.329382  5.260164
      ESP Fit Center  897 is at   5.318061  4.072151  5.260164
      ESP Fit Center  898 is at   7.960677  3.428354  3.520054
      ESP Fit Center  899 is at   7.257908  4.131123  3.520054
      ESP Fit Center  900 is at   6.297908  4.388354  3.520054
      ESP Fit Center  901 is at   5.337908  4.131123  3.520054
      ESP Fit Center  902 is at   7.643116  3.445705  2.560054
      ESP Fit Center  903 is at   6.811732  4.049741  2.560054
      ESP Fit Center  904 is at   5.784084  4.049741  2.560054
      ESP Fit Center  905 is at   7.257908  2.468354  1.857285
      ESP Fit Center  906 is at   6.777908  3.299738  1.857285
      ESP Fit Center  907 is at   6.777908  1.636970  1.857285
      ESP Fit Center  908 is at   8.106021  1.866691  2.188053
      ESP Fit Center  909 is at   9.249636  0.253628  2.573392
      ESP Fit Center  910 is at   7.073043 -1.327759  2.573392
      ESP Fit Center  911 is at   8.100691 -1.327759  2.573392
      ESP Fit Center  912 is at   8.932075 -0.723723  2.573392
      ESP Fit Center  913 is at   8.546867  0.253628  1.870623
      ESP Fit Center  914 is at   8.066867  1.085012  1.870623
      ESP Fit Center  915 is at   7.106867  1.085012  1.870623
      ESP Fit Center  916 is at   8.066867 -0.577756  1.870623
      ESP Fit Center  917 is at   7.586867  0.253628  1.613392
      ESP Fit Center  918 is at   9.759576  2.618844  5.134435
      ESP Fit Center  919 is at   8.928192  3.222880  5.134435
      ESP Fit Center  920 is at  10.334368  1.641493  4.174435
      ESP Fit Center  921 is at  10.077137  2.601493  4.174435
      ESP Fit Center  922 is at   9.374368  3.304262  4.174435
      ESP Fit Center  923 is at   8.414368  3.561493  4.174435
      ESP Fit Center  924 is at  10.077137  1.641493  3.214435
      ESP Fit Center  925 is at   9.759576  2.618844  3.214435
      ESP Fit Center  926 is at   8.928192  3.222880  3.214435
      ESP Fit Center  927 is at   9.759576  0.664142  3.214435
      ESP Fit Center  928 is at   9.374368  1.641493  2.511666
      ESP Fit Center  929 is at   8.894368  2.472877  2.511666
      ESP Fit Center  930 is at   7.934368  2.472877  2.511666
      ESP Fit Center  931 is at   7.989819  0.094122  8.695585
      ESP Fit Center  932 is at   9.061333  0.094122  8.482448
      ESP Fit Center  933 is at   8.525576  1.022080  8.482448
      ESP Fit Center  934 is at   7.454062  1.022080  8.482448
      ESP Fit Center  935 is at   6.918305  0.094122  8.482448
      ESP Fit Center  936 is at   8.525576 -0.833836  8.482448
      ESP Fit Center  937 is at   9.969718  0.094122  7.875484
      ESP Fit Center  938 is at   9.704462  1.084071  7.875484
      ESP Fit Center  939 is at   8.979768  1.808765  7.875484
      ESP Fit Center  940 is at   7.989819  2.074021  7.875484
      ESP Fit Center  941 is at   6.999870  1.808765  7.875484
      ESP Fit Center  942 is at   6.275176  1.084071  7.875484
      ESP Fit Center  943 is at   6.009920  0.094122  7.875484
      ESP Fit Center  944 is at   9.704462 -0.895827  7.875484
      ESP Fit Center  945 is at  10.576682  0.094122  6.967099
      ESP Fit Center  946 is at  10.353036  1.146294  6.967099
      ESP Fit Center  947 is at   9.720768  2.016536  6.967099
      ESP Fit Center  948 is at   8.789204  2.554375  6.967099
      ESP Fit Center  949 is at   7.719418  2.666814  6.967099
      ESP Fit Center  950 is at   5.897003  1.614642  6.967099
      ESP Fit Center  951 is at   5.459485 -0.443717  6.967099
      ESP Fit Center  952 is at  10.353036 -0.958050  6.967099
      ESP Fit Center  953 is at  10.789819  0.094122  5.895585
      ESP Fit Center  954 is at  10.600741  1.105599  5.895585
      ESP Fit Center  955 is at  10.059044  1.980470  5.895585
      ESP Fit Center  956 is at   9.237886  2.600579  5.895585
      ESP Fit Center  957 is at   8.248170  2.882178  5.895585
      ESP Fit Center  958 is at  10.600741 -0.917355  5.895585
      ESP Fit Center  959 is at  10.576682  0.094122  4.824071
      ESP Fit Center  960 is at  10.353036  1.146294  4.824071
      ESP Fit Center  961 is at   9.720768 -1.828292  4.824071
      ESP Fit Center  962 is at  10.353036 -0.958050  4.824071
      ESP Fit Center  963 is at   9.969718  0.094122  3.915686
      ESP Fit Center  964 is at   9.704462 -0.895827  3.915686
      ESP Fit Center  965 is at   5.875412 -3.411606  5.078604
      ESP Fit Center  966 is at   6.105492 -3.000341  4.116278
      ESP Fit Center  967 is at   6.292949 -1.582256  3.450329
      ESP Fit Center  968 is at   5.302744 -1.532306  7.150200
      ESP Fit Center  969 is at   4.599975 -1.532306  6.447431
      ESP Fit Center  970 is at   4.917536 -2.509657  6.447431
      ESP Fit Center  971 is at   4.599975 -2.492306  5.487431
      ESP Fit Center  972 is at   5.302744 -3.195075  5.487431
      ESP Fit Center  973 is at   4.917536 -2.509657  4.527431
      ESP Fit Center  974 is at   5.748920 -3.113693  4.527431
      ESP Fit Center  975 is at   5.782744 -2.363690  3.824662
      ESP Fit Center  976 is at   9.688768 -1.974499  4.700441
      ESP Fit Center  977 is at   7.768768 -3.894499  4.700441
      ESP Fit Center  978 is at   8.728768 -3.637268  4.700441
      ESP Fit Center  979 is at   9.431537 -2.934499  4.700441
      ESP Fit Center  980 is at   9.431537 -1.974499  3.740441
      ESP Fit Center  981 is at   6.423560 -2.951850  3.740441
      ESP Fit Center  982 is at   7.254944 -3.555886  3.740441
      ESP Fit Center  983 is at   8.282592 -3.555886  3.740441
      ESP Fit Center  984 is at   9.113976 -2.951850  3.740441
      ESP Fit Center  985 is at   8.728768 -1.974499  3.037672
      ESP Fit Center  986 is at   6.808768 -1.974499  3.037672
      ESP Fit Center  987 is at   7.288768 -2.805883  3.037672
      ESP Fit Center  988 is at   8.248768 -2.805883  3.037672
      ESP Fit Center  989 is at   7.768768 -1.974499  2.780441
      ESP Fit Center  990 is at   8.735847 -2.477859  8.956861
      ESP Fit Center  991 is at   8.215186 -3.379669  8.956861
      ESP Fit Center  992 is at   8.474009 -4.184688  8.290912
      ESP Fit Center  993 is at   5.354699 -2.477859  7.328586
      ESP Fit Center  994 is at   9.153384 -4.307209  6.260486
      ESP Fit Center  995 is at   9.273050 -3.492315  5.298160
      ESP Fit Center  996 is at   9.728921 -2.545654  8.587851
      ESP Fit Center  997 is at   9.248921 -1.714270  8.587851
      ESP Fit Center  998 is at   9.248921 -3.377038  8.587851
      ESP Fit Center  999 is at  10.431690 -2.545654  7.885082
      ESP Fit Center 1000 is at  10.114129 -1.568303  7.885082
      ESP Fit Center 1001 is at   9.282745 -4.127041  7.885082
      ESP Fit Center 1002 is at  10.114129 -3.523005  7.885082
      ESP Fit Center 1003 is at  10.688921 -2.545654  6.925082
      ESP Fit Center 1004 is at  10.431690 -1.585654  6.925082
      ESP Fit Center 1005 is at   9.728921 -4.208423  6.925082
      ESP Fit Center 1006 is at  10.431690 -3.505654  6.925082
      ESP Fit Center 1007 is at  10.431690 -2.545654  5.965082
      ESP Fit Center 1008 is at   9.282745 -4.127041  5.965082
      ESP Fit Center 1009 is at  10.114129 -3.523005  5.965082
      ESP Fit Center 1010 is at   9.728921 -2.545654  5.262313
      ESP Fit Center 1011 is at   7.263639 -2.102101  9.636081
      ESP Fit Center 1012 is at   8.223639 -2.102101  9.378850
      ESP Fit Center 1013 is at   7.743639 -1.270717  9.378850
      ESP Fit Center 1014 is at   6.783639 -1.270717  9.378850
      ESP Fit Center 1015 is at   6.303639 -2.102101  9.378850
      ESP Fit Center 1016 is at   6.783639 -2.933485  9.378850
      ESP Fit Center 1017 is at   7.743639 -2.933485  9.378850
      ESP Fit Center 1018 is at   8.608847 -1.124750  8.676081
      ESP Fit Center 1019 is at   7.777463 -0.520714  8.676081
      ESP Fit Center 1020 is at   6.749815 -0.520714  8.676081
      ESP Fit Center 1021 is at   5.918431 -1.124750  8.676081
      ESP Fit Center 1022 is at   5.600870 -2.102101  8.676081
      ESP Fit Center 1023 is at   5.918431 -3.079452  8.676081
      ESP Fit Center 1024 is at   6.749815 -3.683488  8.676081
      ESP Fit Center 1025 is at   5.600870 -1.142101  7.716081
      ESP Fit Center 1026 is at   5.343639 -2.102101  7.716081
      ESP Fit Center 1027 is at   6.829960 -4.310436  8.291201
      ESP Fit Center 1028 is at   5.647191 -3.479052  7.588432
      ESP Fit Center 1029 is at   5.964752 -4.456403  7.588432
      ESP Fit Center 1030 is at   6.796136 -5.060439  7.588432
      ESP Fit Center 1031 is at   7.823784 -5.060439  7.588432
      ESP Fit Center 1032 is at   5.389960 -3.479052  6.628432
      ESP Fit Center 1033 is at   5.647191 -4.439052  6.628432
      ESP Fit Center 1034 is at   6.349960 -5.141821  6.628432
      ESP Fit Center 1035 is at   7.309960 -5.399052  6.628432
      ESP Fit Center 1036 is at   8.269960 -5.141821  6.628432
      ESP Fit Center 1037 is at   5.647191 -3.479052  5.668432
      ESP Fit Center 1038 is at   5.964752 -4.456403  5.668432
      ESP Fit Center 1039 is at   6.796136 -5.060439  5.668432
      ESP Fit Center 1040 is at   7.823784 -5.060439  5.668432
      ESP Fit Center 1041 is at   8.655168 -4.456403  5.668432
      ESP Fit Center 1042 is at   6.829960 -4.310436  4.965663
      ESP Fit Center 1043 is at   7.789960 -4.310436  4.965663
      ESP Fit Center 1044 is at  -2.352487  3.596887 10.151587
      ESP Fit Center 1045 is at  -2.869110  4.491704  9.946062
      ESP Fit Center 1046 is at  -3.385732  3.596887  9.946062
      ESP Fit Center 1047 is at  -2.869110  2.702070  9.946062
      ESP Fit Center 1048 is at  -3.602739  5.039755  9.360775
[...]
 1327 Fit      -0.014433
 1328 Fit      -0.014688
 1329 Fit      -0.014132
 1330 Fit      -0.014126
 1331 Fit      -0.015302
 1332 Fit      -0.015871
 1333 Fit      -0.012078
 1334 Fit      -0.001523
 1335 Fit      -0.009601
 1336 Fit      -0.013568
 1337 Fit      -0.012318
 1338 Fit      -0.013493
 1339 Fit      -0.010316
 1340 Fit      -0.003016
 1341 Fit      -0.001315
 1342 Fit      -0.007799
 1343 Fit      -0.008237
 1344 Fit       0.003901
 1345 Fit       0.008327
 1346 Fit       0.015121
 1347 Fit       0.010199
 1348 Fit       0.006064
 1349 Fit       0.010762
 1350 Fit       0.007693
 1351 Fit       0.002725
 1352 Fit       0.001488
 1353 Fit       0.002998
 1354 Fit       0.004123
 1355 Fit       0.002703
 1356 Fit       0.004643
 1357 Fit       0.008128
 1358 Fit       0.012469
 1359 Fit       0.011817
 1360 Fit       0.013690
 1361 Fit       0.001188
 1362 Fit       0.004599
 1363 Fit       0.008809
 1364 Fit       0.007579
 1365 Fit       0.007852
 1366 Fit       0.006626
 1367 Fit       0.011445
 1368 Fit       0.010059
 1369 Fit       0.008303
 1370 Fit       0.008994
 1371 Fit       0.005145
 1372 Fit      -0.015528
 1373 Fit      -0.010820
 1374 Fit      -0.010821
 1375 Fit      -0.013961
 1376 Fit      -0.015850
 1377 Fit      -0.002750
 1378 Fit      -0.009388
 1379 Fit      -0.012514
 1380 Fit      -0.013232
 1381 Fit      -0.013539
 1382 Fit      -0.013938
 1383 Fit      -0.008157
 1384 Fit      -0.011682
 1385 Fit      -0.011355
 1386 Fit      -0.010244
 1387 Fit      -0.009438
 1388 Fit      -0.009404
 1389 Fit      -0.009393
 1390 Fit      -0.003703
 1391 Fit      -0.009475
 1392 Fit      -0.009852
 1393 Fit      -0.006500
 1394 Fit      -0.004604
 1395 Fit      -0.003135
 1396 Fit      -0.001959
 1397 Fit      -0.002448
 1398 Fit      -0.002269
 1399 Fit      -0.000288
 1400 Fit      -0.005314
 1401 Fit      -0.000929
 1402 Fit       0.000634
 1403 Fit       0.004347
 1404 Fit       0.011223
 1405 Fit       0.009486
 1406 Fit       0.006025
 1407 Fit      -0.008413
 1408 Fit       0.000483
 1409 Fit       0.001172
 1410 Fit      -0.004385
 1411 Fit       0.004503
 1412 Fit       0.006210
 1413 Fit       0.005788
 1414 Fit       0.002622
 1415 Fit       0.009628
 1416 Fit       0.008327
 1417 Fit       0.006005
 1418 Fit       0.012981
 1419 Fit       0.011400
 1420 Fit       0.009822
 1421 Fit       0.005749
 1422 Fit       0.015590
 1423 Fit       0.014459
 1424 Fit       0.014631
 1425 Fit       0.017301
 1426 Fit       0.017379
 1427 Fit       0.000616
 1428 Fit       0.014551
 1429 Fit       0.007311
 1430 Fit       0.015307
 1431 Fit       0.012749
 1432 Fit       0.008702
 1433 Fit       0.010601
 1434 Fit       0.013299
 1435 Fit       0.012304
 1436 Fit       0.013693
 1437 Fit       0.002554
 1438 Fit       0.007528
 1439 Fit       0.000813
 1440 Fit       0.006151
 1441 Fit       0.009610
 1442 Fit       0.012395
 1443 Fit       0.005995
 1444 Fit       0.009298
 1445 Fit       0.012224
 1446 Fit       0.003521
 1447 Fit       0.009266
 1448 Fit       0.012402
 1449 Fit      -0.015154
 1450 Fit      -0.015554
 1451 Fit      -0.018095
 1452 Fit      -0.019202
 1453 Fit      -0.015784
 1454 Fit      -0.017004
 1455 Fit      -0.017849
 1456 Fit      -0.016797
 1457 Fit      -0.016773
 1458 Fit      -0.018523
 1459 Fit      -0.020241
 1460 Fit      -0.017407
 1461 Fit      -0.012227
 1462 Fit      -0.019041
 1463 Fit      -0.018124
 1464 Fit      -0.014388
 1465 Fit      -0.010827
 1466 Fit      -0.009085
 1467 Fit      -0.009233
 1468 Fit      -0.012879
 1469 Fit      -0.018738
 1470 Fit      -0.019864
 1471 Fit      -0.014732
 1472 Fit      -0.019941
 1473 Fit      -0.017077
 1474 Fit      -0.010818
 1475 Fit      -0.004340
 1476 Fit       0.000389
 1477 Fit      -0.017087
 1478 Fit      -0.017594
 1479 Fit      -0.012750
 1480 Fit      -0.003783
 1481 Fit      -0.008848
 1482 Fit      -0.016251
 1483 Fit      -0.011032
 1484 Fit      -0.004065
 1485 Fit      -0.003281
 1486 Fit      -0.010498
 1487 Fit      -0.001341
 1488 Fit      -0.000079
 1489 Fit       0.005464
 1490 Fit       0.007144
 1491 Fit       0.006154
 1492 Fit      -0.005995
 1493 Fit      -0.004525
 1494 Fit       0.001036
 1495 Fit      -0.005080
 1496 Fit       0.001736
 1497 Fit       0.003856
 1498 Fit       0.005875
 1499 Fit       0.004731
 1500 Fit       0.002335
 1501 Fit       0.003138
 1502 Fit       0.006799
 1503 Fit       0.007220
 1504 Fit       0.006874
 1505 Fit       0.005615
 1506 Fit       0.009277
 1507 Fit       0.012255
 1508 Fit       0.008905
 1509 Fit       0.008676
 1510 Fit       0.012596
 1511 Fit      -0.003385
 1512 Fit      -0.001737
 1513 Fit      -0.000345
 1514 Fit      -0.000280
 1515 Fit      -0.000979
 1516 Fit      -0.000169
 1517 Fit       0.001687
 1518 Fit       0.004873
 1519 Fit       0.003697
 1520 Fit      -0.002954
 1521 Fit      -0.006862
 1522 Fit      -0.001508
 1523 Fit      -0.002227
 1524 Fit      -0.007702
 1525 Fit      -0.000074
 1526 Fit      -0.000061
 1527 Fit      -0.002465
 1528 Fit      -0.010246
 1529 Fit       0.000856
 1530 Fit       0.000447
 1531 Fit      -0.003023
 1532 Fit       0.001412
 1533 Fit       0.000703
 1534 Fit      -0.000719
 1535 Fit      -0.001434
 1536 Fit      -0.003274
 1537 Fit      -0.005010
 1538 Fit      -0.003602
 1539 Fit      -0.000922
 1540 Fit      -0.000367
 1541 Fit      -0.001352
 1542 Fit      -0.007905
 1543 Fit      -0.003266
 1544 Fit      -0.001018
 1545 Fit      -0.000442
 1546 Fit      -0.005350
 1547 Fit       0.000390
 1548 Fit       0.000947
 1549 Fit       0.002680
 1550 Fit       0.002916
 1551 Fit       0.001623
 1552 Fit       0.002894
 1553 Fit       0.004468
 1554 Fit       0.004995
 1555 Fit       0.004227
 1556 Fit       0.002404
 1557 Fit       0.005197
 1558 Fit       0.005944
 1559 Fit       0.005762
 1560 Fit       0.004384
 1561 Fit       0.006707
 1562 Fit       0.006036
 1563 Fit       0.000092
 1564 Fit       0.000670
 1565 Fit      -0.000651
 1566 Fit      -0.000866
 1567 Fit      -0.000105
 1568 Fit       0.000698
 1569 Fit      -0.001557
 1570 Fit      -0.001968
 1571 Fit       0.001608
 1572 Fit      -0.003989
 1573 Fit       0.000869
 1574 Fit       0.003952
 1575 Fit       0.003229
 1576 Fit       0.001967
 1577 Fit       0.004704
 1578 Fit       0.000284
 1579 Fit      -0.000598
 1580 Fit       0.000248
 1581 Fit      -0.002074
 1582 Fit      -0.000539
 1583 Fit       0.000421
 1584 Fit       0.000568
 1585 Fit      -0.005006
 1586 Fit      -0.002646
 1587 Fit      -0.000721
 1588 Fit       0.000258
 1589 Fit       0.000684
 1590 Fit      -0.012305
 1591 Fit      -0.007521
 1592 Fit      -0.003316
 1593 Fit      -0.000526
 1594 Fit       0.001608
 1595 Fit       0.001628
 1596 Fit       0.002550
 1597 Fit       0.003436
 1598 Fit       0.002302
 1599 Fit       0.003221
 1600 Fit       0.004613
 1601 Fit       0.004842
 1602 Fit       0.003832
 1603 Fit       0.002046
 1604 Fit       0.001379
 1605 Fit       0.004148
 1606 Fit       0.005568
 1607 Fit       0.006111
 1608 Fit       0.005647
 1609 Fit       0.004274
 1610 Fit       0.007441
 1611 Fit       0.007643
 1612 Fit       0.007041
 1613 Fit      -0.000489
 1614 Fit       0.001145
 1615 Fit       0.000432
 1616 Fit      -0.001221
 1617 Fit      -0.003258
 1618 Fit       0.002132
 1619 Fit       0.001620
 1620 Fit       0.000734
 1621 Fit      -0.001036
 1622 Fit      -0.003775
 1623 Fit      -0.006947
 1624 Fit       0.001279
 1625 Fit      -0.000602
 1626 Fit      -0.003614
 1627 Fit      -0.008319
 1628 Fit      -0.014903
 1629 Fit      -0.000896
 1630 Fit      -0.005950
 1631 Fit       0.007884
 1632 Fit      -0.000061
 1633 Fit       0.007544
 1634 Fit      -0.001436
 1635 Fit       0.007896
 1636 Fit       0.007194
 1637 Fit       0.006125
 1638 Fit       0.004437
 1639 Fit       0.001827
 1640 Fit       0.007483
 1641 Fit       0.007155
 1642 Fit       0.006326
 1643 Fit       0.004643
 1644 Fit       0.001387
 1645 Fit       0.007990
 1646 Fit       0.007617
 1647 Fit       0.006942
 1648 Fit       0.005312
 1649 Fit       0.003649
 1650 Fit       0.006248
 1651 Fit       0.002193
 1652 Fit       0.002586
 1653 Fit       0.005193
 1654 Fit       0.007394
 1655 Fit       0.002160
 1656 Fit       0.001139
 1657 Fit       0.003001
 1658 Fit       0.005361
 1659 Fit       0.007106
 1660 Fit       0.006828
 1661 Fit      -0.016791
 1662 Fit      -0.017547
 1663 Fit      -0.015770
 1664 Fit      -0.011961
 1665 Fit      -0.009176
 1666 Fit      -0.012879
 1667 Fit      -0.014188
 1668 Fit      -0.013496
 1669 Fit      -0.011152
 1670 Fit      -0.000785
 1671 Fit      -0.001310
 1672 Fit       0.002616
 1673 Fit       0.000788
 1674 Fit       0.006412
 1675 Fit       0.005896
 1676 Fit       0.004109
 1677 Fit       0.006168
 1678 Fit       0.006974
 1679 Fit       0.006505
 1680 Fit       0.004985
 1681 Fit       0.000599
 1682 Fit       0.004486
 1683 Fit       0.005536
 1684 Fit       0.005440
 1685 Fit       0.001256
 1686 Fit       0.004547
 1687 Fit      -0.003075
 1688 Fit      -0.002029
 1689 Fit      -0.000433
 1690 Fit       0.001726
 1691 Fit       0.003189
 1692 Fit       0.003495
 1693 Fit       0.004753
 1694 Fit       0.006667
 1695 Fit       0.006596
 1696 Fit       0.008101
 1697 Fit       0.010883
 1698 Fit       0.009211
 1699 Fit      -0.001218
 1700 Fit       0.000956
 1701 Fit       0.001192
 1702 Fit      -0.000804
 1703 Fit       0.001487
 1704 Fit      -0.002400
 1705 Fit      -0.001995
 1706 Fit      -0.000757
 1707 Fit       0.000112
 1708 Fit       0.003727
 1709 Fit      -0.004162
 1710 Fit      -0.000572
 1711 Fit      -0.000773
 1712 Fit       0.002017
 1713 Fit       0.002108
 1714 Fit       0.001283
 1715 Fit       0.001330
 1716 Fit       0.004248
 1717 Fit       0.005097
 1718 Fit       0.004345
 1719 Fit       0.002813
 1720 Fit      -0.003006
 1721 Fit      -0.005806
 1722 Fit      -0.002790
 1723 Fit       0.008554
 1724 Fit       0.009943
 1725 Fit       0.004307
 1726 Fit       0.011604
 1727 Fit       0.009954
 1728 Fit       0.008957
 1729 Fit       0.010426
 1730 Fit       0.009850
 1731 Fit       0.008857
 1732 Fit       0.010931
 1733 Fit       0.011308
 1734 Fit       0.011183
 1735 Fit       0.011200
 1736 Fit       0.011819
 1737 Fit       0.012221
 1738 Fit       0.012825
 1739 Fit       0.008271
 1740 Fit       0.007169
 1741 Fit       0.005883
 1742 Fit       0.004028
 1743 Fit       0.002131
 1744 Fit       0.008839
 1745 Fit       0.007215
 1746 Fit       0.005200
 1747 Fit       0.002269
 1748 Fit      -0.001358
 1749 Fit      -0.004290
 1750 Fit       0.007778
 1751 Fit       0.004014
 1752 Fit      -0.001870
 1753 Fit       0.012621
 1754 Fit       0.010472
 1755 Fit      -0.001704
 1756 Fit       0.003591
 1757 Fit       0.005391
 1758 Fit      -0.004546
 1759 Fit       0.001686
 1760 Fit       0.000107
 1761 Fit       0.003313
 1762 Fit       0.007432
 1763 Fit       0.004650
 1764 Fit       0.006328
 1765 Fit       0.008360
 1766 Fit       0.010753
 1767 Fit       0.005889
 1768 Fit       0.006827
 1769 Fit       0.008067
 1770 Fit       0.009318
 1771 Fit       0.005765
 1772 Fit       0.006684
 1773 Fit       0.011925
 1774 Fit       0.008793
 1775 Fit       0.003708
 1776 Fit       0.012284
 1777 Fit       0.011322
 1778 Fit       0.009698
 1779 Fit       0.006985
 1780 Fit       0.002277
 1781 Fit      -0.006576
 1782 Fit       0.009292
 1783 Fit       0.008346
 1784 Fit       0.005927
 1785 Fit       0.001211
 1786 Fit      -0.007139
 1787 Fit       0.006256
 1788 Fit       0.006406
 1789 Fit       0.003684
 1790 Fit      -0.001837
 1791 Fit       0.002946
 1792 Fit      -0.010934
 1793 Fit      -0.011539
 1794 Fit      -0.014095
 1795 Fit      -0.013995
 1796 Fit      -0.012492
 1797 Fit      -0.008980
 1798 Fit      -0.012693
 1799 Fit      -0.008267
 1800 Fit      -0.007765
 1801 Fit      -0.004978
 1802 Fit      -0.003633
 1803 Fit       0.001142
 1804 Fit      -0.004657
 1805 Fit      -0.002588
 1806 Fit       0.002084
 1807 Fit      -0.003235
 1808 Fit       0.001681
 1809 Fit       0.004831
 1810 Fit      -0.001749
 1811 Fit      -0.000777
 1812 Fit       0.002322
 1813 Fit       0.002082
 1814 Fit      -0.000755
 1815 Fit       0.000680
 1816 Fit       0.000774
 1817 Fit       0.001651
 1818 Fit      -0.005583
 1819 Fit      -0.000924
 1820 Fit      -0.009491
 1821 Fit      -0.002284
 1822 Fit       0.000084
 1823 Fit      -0.001323
 1824 Fit      -0.003983
 1825 Fit      -0.000021
 1826 Fit       0.000774
 1827 Fit      -0.001624
 1828 Fit       0.001013
 1829 Fit      -0.000728
 1830 Fit       0.000373
 1831 Fit       0.001212
 1832 Fit       0.001154
 1833 Fit       0.003652
 1834 Fit       0.000495
 1835 Fit       0.005947
 1836 Fit      -0.006462
 1837 Fit       0.000835
 1838 Fit       0.004556
 1839 Fit       0.006050
 1840 Fit      -0.002819
 1841 Fit       0.001023
 1842 Fit       0.000554
 1843 Fit       0.001323
 1844 Fit       0.000258
 1845 Fit       0.002736
 1846 Fit       0.004037
 1847 Fit       0.003200
 1848 Fit       0.000181
 1849 Fit      -0.003348
 1850 Fit      -0.005163
 1851 Fit      -0.004171
 1852 Fit      -0.001921
 1853 Fit      -0.005148
 1854 Fit      -0.006285
 1855 Fit      -0.005027
 1856 Fit      -0.002513
 1857 Fit      -0.006706
 1858 Fit      -0.004704
 1859 Fit      -0.004153
 1860 Fit      -0.005492
 1861 Fit      -0.007915
 1862 Fit      -0.009539
 1863 Fit      -0.008397
 1864 Fit      -0.005755
 1865 Fit      -0.009242
 1866 Fit      -0.010210
 1867 Fit      -0.008989
 1868 Fit      -0.010278
 1869 Fit      -0.009323
 1870 Fit      -0.009589
 1871 Fit      -0.010976
 1872 Fit      -0.011883
 1873 Fit      -0.010067
 1874 Fit      -0.007224
 1875 Fit      -0.010550
 1876 Fit      -0.011231
 1877 Fit      -0.011061
 1878 Fit      -0.011271
 1879 Fit      -0.011866
 1880 Fit      -0.011735
 1881 Fit      -0.008713
 1882 Fit      -0.001953
 1883 Fit      -0.007310
 1884 Fit      -0.010274
 1885 Fit      -0.009667
 1886 Fit      -0.010360
 1887 Fit      -0.007880
 1888 Fit      -0.003096
 1889 Fit      -0.002173
 1890 Fit      -0.006465
 1891 Fit      -0.006791
 1892 Fit       0.002309
 1893 Fit       0.004003
 1894 Fit       0.001668
 1895 Fit       0.010667
 1896 Fit       0.006543
 1897 Fit       0.014814
 1898 Fit       0.013842
 1899 Fit       0.011170
 1900 Fit       0.007750
 1901 Fit       0.004275
 1902 Fit      -0.001250
 1903 Fit       0.001341
 1904 Fit       0.003203
 1905 Fit       0.002603
 1906 Fit       0.002493
 1907 Fit       0.008441
 1908 Fit       0.006039
 1909 Fit       0.009351
 1910 Fit       0.006396
 1911 Fit       0.000611
 1912 Fit       0.004080
 1913 Fit       0.005617
 1914 Fit       0.007254
 1915 Fit       0.007669
 1916 Fit       0.007086
 1917 Fit       0.006361
 1918 Fit       0.007894
 1919 Fit       0.006423
 1920 Fit      -0.013761
 1921 Fit      -0.011379
 1922 Fit      -0.009678
 1923 Fit      -0.011559
 1924 Fit      -0.013080
 1925 Fit      -0.003796
 1926 Fit      -0.007425
 1927 Fit      -0.009518
 1928 Fit      -0.010455
 1929 Fit      -0.011016
 1930 Fit      -0.011219
 1931 Fit      -0.005494
 1932 Fit      -0.007793
 1933 Fit      -0.007952
 1934 Fit      -0.008102
 1935 Fit      -0.008268
 1936 Fit      -0.008366
 1937 Fit      -0.007848
 1938 Fit      -0.000292
 1939 Fit      -0.005156
 1940 Fit      -0.006357
 1941 Fit      -0.004375
 1942 Fit      -0.004001
 1943 Fit      -0.003890
 1944 Fit      -0.003759
 1945 Fit      -0.003602
 1946 Fit      -0.001208
 1947 Fit      -0.004174
 1948 Fit      -0.003546
 1949 Fit       0.001279
 1950 Fit       0.002578
 1951 Fit       0.002534
 1952 Fit       0.001984
 1953 Fit       0.005443
 1954 Fit       0.002610
 1955 Fit       0.009112
 1956 Fit      -0.002127
 1957 Fit      -0.001098
 1958 Fit       0.003458
 1959 Fit       0.003541
 1960 Fit       0.001113
 1961 Fit       0.006783
 1962 Fit       0.006442
 1963 Fit       0.005196
 1964 Fit       0.001849
 1965 Fit       0.009570
 1966 Fit       0.007935
 1967 Fit       0.012172
 1968 Fit       0.011056
 1969 Fit       0.010339
 1970 Fit       0.013652
 1971 Fit       0.013038
 1972 Fit       0.013713
 1973 Fit       0.014967
 1974 Fit       0.002888
 1975 Fit       0.007530
 1976 Fit       0.012583
 1977 Fit       0.007105
 1978 Fit       0.012720
 1979 Fit       0.010503
 1980 Fit       0.007890
 1981 Fit       0.009120
 1982 Fit       0.011450
 1983 Fit       0.009980
 1984 Fit       0.002448
 1985 Fit       0.006205
 1986 Fit       0.009006
 1987 Fit       0.002110
 1988 Fit       0.005660
 1989 Fit       0.008407
 1990 Fit       0.010892
 1991 Fit       0.005765
 1992 Fit       0.008193
 1993 Fit       0.010831
 1994 Fit       0.008530
 1995 Fit       0.011054
 1996 Fit      -0.012322
 1997 Fit      -0.012748
 1998 Fit      -0.014554
 1999 Fit      -0.015053
 2000 Fit      -0.012455
 2001 Fit      -0.013592
 2002 Fit      -0.014494
 2003 Fit      -0.014015
 2004 Fit      -0.013947
 2005 Fit      -0.014899
 2006 Fit      -0.015753
 2007 Fit      -0.013474
 2008 Fit      -0.010236
 2009 Fit      -0.014729
 2010 Fit      -0.014629
 2011 Fit      -0.012555
 2012 Fit      -0.010367
 2013 Fit      -0.009230
 2014 Fit      -0.009556
 2015 Fit      -0.012104
 2016 Fit      -0.015598
 2017 Fit      -0.015471
 2018 Fit      -0.011412
 2019 Fit      -0.015450
 2020 Fit      -0.014242
 2021 Fit      -0.010744
 2022 Fit      -0.006713
 2023 Fit      -0.003434
 2024 Fit      -0.000758
 2025 Fit      -0.013001
 2026 Fit      -0.014619
 2027 Fit      -0.012387
 2028 Fit      -0.007730
 2029 Fit      -0.002250
 2030 Fit       0.002483
 2031 Fit      -0.008440
 2032 Fit      -0.013400
 2033 Fit      -0.011350
 2034 Fit      -0.007628
 2035 Fit      -0.006226
 2036 Fit      -0.010808
 2037 Fit      -0.005602
 2038 Fit      -0.005337
 2039 Fit       0.002655
 2040 Fit       0.005460
 2041 Fit       0.006365
 2042 Fit      -0.004664
 2043 Fit      -0.002131
 2044 Fit       0.002022
 2045 Fit      -0.000149
 2046 Fit       0.003146
 2047 Fit       0.004316
 2048 Fit       0.006293
 2049 Fit       0.005555
 2050 Fit       0.004370
 2051 Fit       0.002304
 2052 Fit       0.004040
 2053 Fit       0.006551
 2054 Fit       0.006512
 2055 Fit       0.006166
 2056 Fit       0.005277
 2057 Fit       0.008593
 2058 Fit       0.008160
 2059 Fit       0.007706
 2060 Fit       0.011296
 2061 Fit      -0.003219
 2062 Fit      -0.001721
 2063 Fit      -0.007099
 2064 Fit      -0.000437
 2065 Fit      -0.000500
 2066 Fit      -0.001058
 2067 Fit      -0.001755
 2068 Fit       0.000064
 2069 Fit       0.000096
 2070 Fit      -0.000422
 2071 Fit      -0.000939
 2072 Fit       0.000771
 2073 Fit       0.002091
 2074 Fit      -0.003314
 2075 Fit      -0.002900
 2076 Fit      -0.007173
 2077 Fit      -0.000561
 2078 Fit      -0.000927
 2079 Fit      -0.002935
 2080 Fit      -0.008520
 2081 Fit       0.000271
 2082 Fit      -0.000445
 2083 Fit      -0.003405
 2084 Fit       0.000748
 2085 Fit      -0.000248
 2086 Fit      -0.003297
 2087 Fit       0.000478
 2088 Fit      -0.002011
 2089 Fit      -0.003254
 2090 Fit      -0.004837
 2091 Fit      -0.003819
 2092 Fit      -0.001581
 2093 Fit      -0.000853
 2094 Fit      -0.001564
 2095 Fit      -0.008036
 2096 Fit      -0.006851
 2097 Fit      -0.003300
 2098 Fit      -0.001277
 2099 Fit      -0.000556
 2100 Fit      -0.007355
 2101 Fit      -0.003217
 2102 Fit       0.001498
 2103 Fit       0.001705
 2104 Fit       0.000832
 2105 Fit       0.002151
 2106 Fit       0.003208
 2107 Fit       0.003363
 2108 Fit       0.002627
 2109 Fit       0.001299
 2110 Fit       0.003683
 2111 Fit       0.004444
 2112 Fit       0.004455
 2113 Fit       0.003669
 2114 Fit       0.002325
 2115 Fit       0.004959
 2116 Fit       0.005276
 2117 Fit       0.005063
 2118 Fit       0.004170
 2119 Fit       0.006173
 2120 Fit       0.005956
 Job cpu time:       0 days  0 hours  4 minutes 54.4 seconds.
 Normal termination of Gaussian 16 at Sat Jul  8 22:12:05 2023.
