 Copyright (c) 1988-2019, Gaussian, Inc.  All Rights Reserved.
  
 This is part of the Gaussian(R) 16 program.  It is based on
 the Gaussian(R) 09 system (copyright 2009, Gaussian, Inc.),
 the Gaussian(R) 03 system (copyright 2003, Gaussian, Inc.),
 the Gaussian(R) 98 system (copyright 1998, Gaussian, Inc.),
 the Gaussian(R) 94 system (copyright 1995, Gaussian, Inc.),
 the Gaussian 92(TM) system (copyright 1992, Gaussian, Inc.),
 the Gaussian 90(TM) system (copyright 1990, Gaussian, Inc.),
 the Gaussian 88(TM) system (copyright 1988, Gaussian, Inc.),
 the Gaussian 86(TM) system (copyright 1986, Carnegie Mellon
 University), and the Gaussian 82(TM) system (copyright 1983,
 Carnegie Mellon University). Gaussian is a federally registered
 trademark of Gaussian, Inc.
 Cite this work as:
 Gaussian 16, Revision C.01,
 M. J. Frisch, G. W. Trucks, H. B. Schlegel, G. E. Scuseria, 
 M. A. Robb, J. R. Cheeseman, G. Scalmani, V. Barone, 
 G. A. Petersson, H. Nakatsuji, X. Li, M. Caricato, A. V. Marenich, 
 J. Bloino, B. G. Janesko, R. Gomperts, B. Mennucci, H. P. Hratchian, 
 J. V. Ortiz, A. F. Izmaylov, J. L. Sonnenberg, D. Williams-Young, 
 F. Ding, F. Lipparini, F. Egidi, J. Goings, B. Peng, A. Petrone, 
 T. Henderson, D. Ranasinghe, V. G. Zakrzewski, J. Gao, N. Rega, 
 G. Zheng, W. Liang, M. Hada, M. Ehara, K. Toyota, R. Fukuda, 
 J. Hasegawa, M. Ishida, T. Nakajima, Y. Honda, O. Kitao, H. Nakai, 
 T. Vreven, K. Throssell, J. A. Montgomery, Jr., J. E. Peralta, 
 F. Ogliaro, M. J. Bearpark, J. J. Heyd, E. N. Brothers, K. N. Kudin, 
 V. N. Staroverov, T. A. Keith, R. Kobayashi, J. Normand, 
 K. Raghavachari, A. P. Rendell, J. C. Burant, S. S. Iyengar, 
 J. Tomasi, M. Cossi, J. M. Millam, M. Klene, C. Adamo, R. Cammi, 
 J. W. Ochterski, R. L. Martin, K. Morokuma, O. Farkas, 
 J. B. Foresman, and D. J. Fox, Gaussian, Inc., Wallingford CT, 2019.
 
 ******************************************
 Gaussian 16:  EM64L-G16RevC.01  3-Jul-2019
                 8-Jul-2023 
 ******************************************
 ----------------------------------------------------------------------
 #P HF/6-31G(d) SCF(Conver=8,XQC,MaxConventionalCycles=64,MaxCycle=128)
  NoSymm Test Pop=mk IOp(6/33=2) GFInput GFPrint
 ----------------------------------------------------------------------
 1/38=1,172=1/1;
 2/12=2,15=1,17=6,18=5,40=1/2;
 3/5=1,6=6,7=1,11=9,24=110,25=1,30=1/1,2,3;
 4//1;
 5/5=2,6=8,7=128,8=3,13=1,38=5,85=64/2,8;
 6/7=2,8=2,9=2,10=2,15=8,20=1,28=1,33=2/1,2;
 99/5=1,9=1/99;
 -------------------------------------------------
 MEP step - Input generated by PyRED DVE-DMDS-OPLS
 -------------------------------------------------
 Symbolic Z-matrix:
 Charge =  0 Multiplicity = 1
 C                    -6.2872    2.53592   4.50783 
 H                    -7.00378   1.74529   4.3168 
 H                    -5.38645   2.0877    4.91133 
 H                    -6.70283   3.2091    5.25142 
 C                    -5.97473   3.28474   3.22699 
 H                    -6.87787   3.74354   2.82502 
 H                    -5.2671    4.08674   3.42785 
 O                    -5.45182   2.37412   2.3046 
 C                    -5.15311   2.8795    1.03913 
 H                    -5.92437   3.5771    0.71344 
 H                    -5.15272   2.03634   0.36099 
 C                    -3.80021   3.56167   0.95539 
 H                    -3.7021    4.02769  -0.02564 
 H                    -3.71724   4.35246   1.69981 
 O                    -2.80148   2.60945   1.14159 
 C                    -1.50582   3.11758   1.14556 
 H                    -1.35808   3.77431   2.00337 
 H                    -1.31165   3.69498   0.24378 
 C                    -0.52623   1.96953   1.22287 
 H                    -0.82201   1.30397   2.02946 
 H                     0.46289   2.36295   1.45132 
 O                    -0.52398   1.29409   0. 
 C                     0.        0.        0. 
 H                    -0.37287  -0.47187  -0.89892 
 H                    -0.3712   -0.56659   0.84956 
 C                     1.52783   0.        0. 
 H                     1.90948   0.41652   0.92423 
 H                     1.89768   0.6179   -0.80974 
 S                     2.25818  -1.65928  -0.11404 
 C                     2.07061  -2.0195   -1.89137 
 H                     1.02526  -2.02994  -2.16625 
 H                     2.55983  -1.23693  -2.45778 
 C                     2.69247  -3.37995  -2.19694 
 H                     2.16484  -4.1567   -1.65812 
 H                     3.72478  -3.41342  -1.87261 
 S                     2.5848   -3.84413  -3.95246 
 C                     3.97342  -2.92218  -4.68714 
 H                     3.97624  -1.91051  -4.30324 
 H                     3.7521   -2.85707  -5.74419 
 C                     5.32742  -3.60002  -4.486 
 H                     5.54544  -3.74511  -3.43634 
 H                     5.31314  -4.58103  -4.94228 
 S                     6.70608  -2.7133   -5.27653 
 C                     7.04753  -1.36676  -4.09908 
 H                     7.65805  -0.66718  -4.65739 
 H                     6.1244   -0.8519   -3.86097 
 C                     7.77495  -1.79632  -2.82836 
 H                     7.97436  -0.93021  -2.20365 
 H                     7.18716  -2.4943   -2.24248 
 H                     8.7194   -2.27134  -3.06617 
 
 ITRead=  0  0  0  0  0  0  0  0  0  0  0  0  0  0  0  0  0  0  0  0
 ITRead=  0  0  0  0  0  0  0  0  0  0  0  0  0  0  0  0  0  0  0  0
 ITRead=  0  0  0  0  0  0  0  0  0  0
 MicOpt= -1 -1 -1 -1 -1 -1 -1 -1 -1 -1 -1 -1 -1 -1 -1 -1 -1 -1 -1 -1
 MicOpt= -1 -1 -1 -1 -1 -1 -1 -1 -1 -1 -1 -1 -1 -1 -1 -1 -1 -1 -1 -1
 MicOpt= -1 -1 -1 -1 -1 -1 -1 -1 -1 -1
 NAtoms=     50 NQM=       50 NQMF=       0 NMMI=      0 NMMIF=      0
                NMic=       0 NMicF=      0.
                          Input orientation:                          
 ---------------------------------------------------------------------
 Center     Atomic      Atomic             Coordinates (Angstroms)
 Number     Number       Type             X           Y           Z
 ---------------------------------------------------------------------
      1          6           0       -6.287202    2.535915    4.507825
      2          1           0       -7.003784    1.745293    4.316802
      3          1           0       -5.386453    2.087700    4.911332
      4          1           0       -6.702832    3.209102    5.251423
      5          6           0       -5.974731    3.284736    3.226992
      6          1           0       -6.877870    3.743537    2.825015
      7          1           0       -5.267097    4.086740    3.427853
      8          8           0       -5.451819    2.374116    2.304598
      9          6           0       -5.153112    2.879502    1.039130
     10          1           0       -5.924366    3.577099    0.713440
     11          1           0       -5.152721    2.036339    0.360992
     12          6           0       -3.800209    3.561671    0.955388
     13          1           0       -3.702099    4.027687   -0.025641
     14          1           0       -3.717244    4.352460    1.699805
     15          8           0       -2.801478    2.609447    1.141592
     16          6           0       -1.505816    3.117577    1.145562
     17          1           0       -1.358081    3.774314    2.003368
     18          1           0       -1.311645    3.694975    0.243782
     19          6           0       -0.526233    1.969532    1.222874
     20          1           0       -0.822014    1.303974    2.029456
     21          1           0        0.462891    2.362946    1.451323
     22          8           0       -0.523976    1.294086    0.000000
     23          6           0        0.000000    0.000000    0.000000
     24          1           0       -0.372871   -0.471874   -0.898919
     25          1           0       -0.371200   -0.566591    0.849562
     26          6           0        1.527827    0.000000    0.000000
     27          1           0        1.909478    0.416522    0.924225
     28          1           0        1.897678    0.617903   -0.809742
     29         16           0        2.258183   -1.659279   -0.114038
     30          6           0        2.070612   -2.019495   -1.891372
     31          1           0        1.025256   -2.029939   -2.166249
     32          1           0        2.559834   -1.236926   -2.457776
     33          6           0        2.692468   -3.379946   -2.196936
     34          1           0        2.164839   -4.156703   -1.658115
     35          1           0        3.724783   -3.413416   -1.872612
     36         16           0        2.584803   -3.844131   -3.952459
     37          6           0        3.973416   -2.922182   -4.687136
     38          1           0        3.976244   -1.910507   -4.303236
     39          1           0        3.752100   -2.857069   -5.744192
     40          6           0        5.327423   -3.600024   -4.485997
     41          1           0        5.545445   -3.745112   -3.436337
     42          1           0        5.313140   -4.581026   -4.942278
     43         16           0        6.706082   -2.713299   -5.276531
     44          6           0        7.047535   -1.366756   -4.099084
     45          1           0        7.658051   -0.667176   -4.657385
     46          1           0        6.124397   -0.851898   -3.860967
     47          6           0        7.774952   -1.796324   -2.828362
     48          1           0        7.974359   -0.930206   -2.203652
     49          1           0        7.187162   -2.494297   -2.242476
     50          1           0        8.719403   -2.271340   -3.066172
 ---------------------------------------------------------------------
 Stoichiometry    C14H30O3S3
 Framework group  C1[X(C14H30O3S3)]
 Standard basis: 6-31G(d) (6D, 7F)
   372 basis functions,   752 primitive gaussians,   372 cartesian basis functions
    93 alpha electrons       93 beta electrons
 Requested convergence on RMS density matrix=1.00D-08 within  64 cycles.
 Requested convergence on MAX density matrix=1.00D-06.
 Requested convergence on             energy=1.00D-06.
 SCF Done:  E(RHF) =  -1964.69235946     A.U. after   13 cycles
            NFock= 13  Conv=0.56D-08     -V/T= 2.0006
 Mulliken charges:
     1  C   -0.487110
     2  H    0.174740
     3  H    0.175651
     4  H    0.153611
     5  C    0.019771
     6  H    0.135407
     7  H    0.134001
     8  O   -0.613765
     9  C    0.003434
    10  H    0.136750
    11  H    0.189517
    12  C    0.006685
    13  H    0.139493
    14  H    0.137459
    15  O   -0.611659
    16  C    0.019835
    17  H    0.137382
    18  H    0.152791
    19  C    0.006349
    20  H    0.162938
    21  H    0.138710
    22  O   -0.625809
    23  C    0.027312
    24  H    0.177638
    25  H    0.163851
    26  C   -0.509779
    27  H    0.200463
    28  H    0.200224
    29  S    0.110375
    30  C   -0.452551
    31  H    0.209550
    32  H    0.188911
    33  C   -0.500707
    34  H    0.220226
    35  H    0.204895
    36  S    0.128612
    37  C   -0.474801
    38  H    0.193662
    39  H    0.219118
    40  C   -0.475164
    41  H    0.196989
    42  H    0.217637
    43  S    0.115337
    44  C   -0.475986
    45  H    0.201631
    46  H    0.185759
    47  C   -0.473266
    48  H    0.168395
    49  H    0.163684
    50  H    0.181803
 Sum of Mulliken charges =  -0.00000
 Dipole moment (field-independent basis, Debye):
    X=              0.1511    Y=              4.3530    Z=              1.7653  Tot=              4.6997
 Quadrupole moment (field-independent basis, Debye-Ang):
   XX=           -148.3878   YY=           -143.2090   ZZ=           -161.4545
   XY=             -1.6602   XZ=              7.4362   YZ=             -3.1329
 Traceless Quadrupole moment (field-independent basis, Debye-Ang):
   XX=              2.6293   YY=              7.8081   ZZ=            -10.4374
   XY=             -1.6602   XZ=              7.4362   YZ=             -3.1329
 Octapole moment (field-independent basis, Debye-Ang**2):
  XXX=           -540.6006  YYY=            265.5023  ZZZ=            588.0786  XYY=           -242.4348
  XXY=            178.8902  XXZ=            229.1408  XZZ=           -254.8983  YZZ=            135.4468
  YYZ=            221.2288  XYZ=            -69.7214
 Hexadecapole moment (field-independent basis, Debye-Ang**3):
 XXXX=         -17769.6411 YYYY=          -6428.0195 ZZZZ=          -9009.5588 XXXY=           4545.3005
 XXXZ=           5861.4415 YYYX=           4245.6862 YYYZ=          -3113.8945 ZZZX=           5997.9996
 ZZZY=          -3315.4049 XXYY=          -3948.5556 XXZZ=          -4979.5856 YYZZ=          -2624.9833
 XXYZ=          -1298.9637 YYXZ=           1849.5723 ZZXY=           1734.5171
 Merz-Kollman atomic radii used.
 Atom Element Radius
    1     6    1.50
    2     1    1.20
    3     1    1.20
    4     1    1.20
    5     6    1.50
    6     1    1.20
    7     1    1.20
    8     8    1.40
    9     6    1.50
   10     1    1.20
   11     1    1.20
   12     6    1.50
   13     1    1.20
   14     1    1.20
   15     8    1.40
   16     6    1.50
   17     1    1.20
   18     1    1.20
   19     6    1.50
   20     1    1.20
   21     1    1.20
   22     8    1.40
   23     6    1.50
   24     1    1.20
   25     1    1.20
   26     6    1.50
   27     1    1.20
   28     1    1.20
   29    16    1.75
   30     6    1.50
   31     1    1.20
   32     1    1.20
   33     6    1.50
   34     1    1.20
   35     1    1.20
   36    16    1.75
   37     6    1.50
   38     1    1.20
   39     1    1.20
   40     6    1.50
   41     1    1.20
   42     1    1.20
   43    16    1.75
   44     6    1.50
   45     1    1.20
   46     1    1.20
   47     6    1.50
   48     1    1.20
   49     1    1.20
   50     1    1.20
 Generate VDW surfaces: Layer= 4 Dens= 1 Start= 1.400 Inc= 0.200
            Electrostatic Properties Using The SCF Density.


       Atomic Center    1 is at  -6.287202  2.535915  4.507825
       Atomic Center    2 is at  -7.003784  1.745293  4.316802
       Atomic Center    3 is at  -5.386453  2.087700  4.911332
       Atomic Center    4 is at  -6.702832  3.209102  5.251423
       Atomic Center    5 is at  -5.974731  3.284736  3.226992
       Atomic Center    6 is at  -6.877870  3.743537  2.825015
       Atomic Center    7 is at  -5.267097  4.086740  3.427853
       Atomic Center    8 is at  -5.451819  2.374116  2.304598
       Atomic Center    9 is at  -5.153112  2.879502  1.039130
       Atomic Center   10 is at  -5.924366  3.577099  0.713440
       Atomic Center   11 is at  -5.152721  2.036339  0.360992
       Atomic Center   12 is at  -3.800209  3.561671  0.955388
       Atomic Center   13 is at  -3.702099  4.027687 -0.025641
       Atomic Center   14 is at  -3.717244  4.352460  1.699805
       Atomic Center   15 is at  -2.801478  2.609447  1.141592
       Atomic Center   16 is at  -1.505816  3.117577  1.145562
       Atomic Center   17 is at  -1.358081  3.774314  2.003368
       Atomic Center   18 is at  -1.311645  3.694975  0.243782
       Atomic Center   19 is at  -0.526233  1.969532  1.222874
       Atomic Center   20 is at  -0.822014  1.303974  2.029456
       Atomic Center   21 is at   0.462891  2.362946  1.451323
       Atomic Center   22 is at  -0.523976  1.294086  0.000000
       Atomic Center   23 is at   0.000000  0.000000  0.000000
       Atomic Center   24 is at  -0.372871 -0.471874 -0.898919
       Atomic Center   25 is at  -0.371200 -0.566591  0.849562
       Atomic Center   26 is at   1.527827  0.000000  0.000000
       Atomic Center   27 is at   1.909478  0.416522  0.924225
       Atomic Center   28 is at   1.897678  0.617903 -0.809742
       Atomic Center   29 is at   2.258183 -1.659279 -0.114038
       Atomic Center   30 is at   2.070612 -2.019495 -1.891372
       Atomic Center   31 is at   1.025256 -2.029939 -2.166249
       Atomic Center   32 is at   2.559834 -1.236926 -2.457776
       Atomic Center   33 is at   2.692468 -3.379946 -2.196936
       Atomic Center   34 is at   2.164839 -4.156703 -1.658115
       Atomic Center   35 is at   3.724783 -3.413416 -1.872612
       Atomic Center   36 is at   2.584803 -3.844131 -3.952459
       Atomic Center   37 is at   3.973416 -2.922182 -4.687136
       Atomic Center   38 is at   3.976244 -1.910507 -4.303236
       Atomic Center   39 is at   3.752100 -2.857069 -5.744192
       Atomic Center   40 is at   5.327423 -3.600024 -4.485997
       Atomic Center   41 is at   5.545445 -3.745112 -3.436337
       Atomic Center   42 is at   5.313140 -4.581026 -4.942278
       Atomic Center   43 is at   6.706082 -2.713299 -5.276531
       Atomic Center   44 is at   7.047535 -1.366756 -4.099084
       Atomic Center   45 is at   7.658051 -0.667176 -4.657385
       Atomic Center   46 is at   6.124397 -0.851898 -3.860967
       Atomic Center   47 is at   7.774952 -1.796324 -2.828362
       Atomic Center   48 is at   7.974359 -0.930206 -2.203652
       Atomic Center   49 is at   7.187162 -2.494297 -2.242476
       Atomic Center   50 is at   8.719403 -2.271340 -3.066172
      ESP Fit Center   51 is at  -6.812202  1.626588  6.326478
      ESP Fit Center   52 is at  -4.757253  3.519153  5.557825
      ESP Fit Center   53 is at  -8.326180  3.038478  4.507825
      ESP Fit Center   54 is at  -7.802671  1.164867  5.675951
      ESP Fit Center   55 is at  -6.698636  0.806144  5.675951
      ESP Fit Center   56 is at  -8.505201  2.291764  4.835951
      ESP Fit Center   57 is at  -8.505201  1.198822  4.835951
      ESP Fit Center   58 is at  -7.802671  0.361579  4.835951
      ESP Fit Center   59 is at  -6.726333  0.171792  4.835951
      ESP Fit Center   60 is at  -8.505201  2.291764  3.797653
      ESP Fit Center   61 is at  -8.505201  1.198822  3.797653
      ESP Fit Center   62 is at  -7.802671  0.361579  3.797653
      ESP Fit Center   63 is at  -6.726333  0.171792  3.797653
      ESP Fit Center   64 is at  -7.802671  1.164867  2.957653
      ESP Fit Center   65 is at  -6.698636  0.806144  2.957653
      ESP Fit Center   66 is at  -5.386453  2.087700  6.591332
      ESP Fit Center   67 is at  -4.398974  2.087700  6.270481
      ESP Fit Center   68 is at  -5.081305  3.026849  6.270481
      ESP Fit Center   69 is at  -5.081305  1.148551  6.270481
      ESP Fit Center   70 is at  -3.788678  2.087700  5.430481
      ESP Fit Center   71 is at  -4.162486  3.114730  5.430481
      ESP Fit Center   72 is at  -5.109002  0.514199  5.430481
      ESP Fit Center   73 is at  -4.162486  1.060670  5.430481
      ESP Fit Center   74 is at  -3.788678  2.087700  4.392183
      ESP Fit Center   75 is at  -4.162486  3.114730  4.392183
      ESP Fit Center   76 is at  -5.109002  0.514199  4.392183
      ESP Fit Center   77 is at  -4.162486  1.060670  4.392183
      ESP Fit Center   78 is at  -6.702832  3.209102  6.931423
      ESP Fit Center   79 is at  -5.715353  3.209102  6.610572
      ESP Fit Center   80 is at  -6.397684  4.148251  6.610572
      ESP Fit Center   81 is at  -7.501719  3.789528  6.610572
      ESP Fit Center   82 is at  -7.501719  2.628676  6.610572
      ESP Fit Center   83 is at  -6.397684  2.269953  6.610572
      ESP Fit Center   84 is at  -5.478865  4.236132  5.770572
      ESP Fit Center   85 is at  -6.425381  4.782603  5.770572
      ESP Fit Center   86 is at  -7.501719  4.592816  5.770572
      ESP Fit Center   87 is at  -8.204249  3.755573  5.770572
      ESP Fit Center   88 is at  -8.204249  2.662631  5.770572
      ESP Fit Center   89 is at  -6.425381  4.782603  4.732274
      ESP Fit Center   90 is at  -7.501719  4.592816  4.732274
      ESP Fit Center   91 is at  -8.204249  3.755573  4.732274
      ESP Fit Center   92 is at  -7.165696  4.659182  4.276992
      ESP Fit Center   93 is at  -7.676757  4.323963  4.184164
      ESP Fit Center   94 is at  -6.600419  5.317038  3.344164
      ESP Fit Center   95 is at  -7.676757  5.127251  3.344164
      ESP Fit Center   96 is at  -8.379287  4.290008  3.344164
      ESP Fit Center   97 is at  -8.379287  3.197066  3.344164
      ESP Fit Center   98 is at  -6.600419  5.317038  2.305866
      ESP Fit Center   99 is at  -7.676757  5.127251  2.305866
      ESP Fit Center  100 is at  -8.379287  4.290008  2.305866
      ESP Fit Center  101 is at  -8.379287  3.197066  2.305866
      ESP Fit Center  102 is at  -7.676757  2.359823  2.305866
      ESP Fit Center  103 is at  -7.676757  4.323963  1.465866
      ESP Fit Center  104 is at  -7.676757  3.163111  1.465866
      ESP Fit Center  105 is at  -4.279618  4.086740  4.787002
      ESP Fit Center  106 is at  -4.961949  5.025889  4.787002
      ESP Fit Center  107 is at  -3.669322  4.086740  3.947002
      ESP Fit Center  108 is at  -4.043130  5.113770  3.947002
      ESP Fit Center  109 is at  -4.989646  5.660241  3.947002
      ESP Fit Center  110 is at  -6.065984  5.470454  3.947002
      ESP Fit Center  111 is at  -4.989646  5.660241  2.908704
      ESP Fit Center  112 is at  -6.065984  5.470454  2.908704
      ESP Fit Center  113 is at  -3.754409  2.374116  3.284598
      ESP Fit Center  114 is at  -5.976347  0.759783  3.284598
      ESP Fit Center  115 is at  -4.927291  0.759783  3.284598
      ESP Fit Center  116 is at  -4.078586  1.376404  3.284598
      ESP Fit Center  117 is at  -7.149229  1.394116  2.304598
      ESP Fit Center  118 is at  -6.431819  0.676706  2.304598
      ESP Fit Center  119 is at  -5.451819  0.414116  2.304598
      ESP Fit Center  120 is at  -4.471819  0.676706  2.304598
      ESP Fit Center  121 is at  -6.825052  1.376404  1.324598
      ESP Fit Center  122 is at  -5.976347  0.759783  1.324598
      ESP Fit Center  123 is at  -7.192090  2.376939  1.039130
      ESP Fit Center  124 is at  -6.724985  1.486944  1.039130
      ESP Fit Center  125 is at  -6.898097  2.367128 -0.010870
      ESP Fit Center  126 is at  -5.646915  5.150600  1.232589
      ESP Fit Center  127 is at  -6.723253  4.960813  1.232589
      ESP Fit Center  128 is at  -7.425783  4.123570  1.232589
      ESP Fit Center  129 is at  -7.425783  3.030628  1.232589
      ESP Fit Center  130 is at  -5.646915  5.150600  0.194291
      ESP Fit Center  131 is at  -6.723253  4.960813  0.194291
      ESP Fit Center  132 is at  -7.425783  4.123570  0.194291
      ESP Fit Center  133 is at  -7.425783  3.030628  0.194291
      ESP Fit Center  134 is at  -5.619218  4.516248 -0.645709
      ESP Fit Center  135 is at  -6.723253  4.157525 -0.645709
      ESP Fit Center  136 is at  -6.723253  2.996673 -0.645709
      ESP Fit Center  137 is at  -5.924366  3.577099 -0.966560
      ESP Fit Center  138 is at  -5.951608  0.652625  0.880141
      ESP Fit Center  139 is at  -4.875270  0.462838  0.880141
      ESP Fit Center  140 is at  -3.928754  1.009309  0.880141
      ESP Fit Center  141 is at  -6.654138  1.489868 -0.158157
      ESP Fit Center  142 is at  -5.951608  0.652625 -0.158157
      ESP Fit Center  143 is at  -4.875270  0.462838 -0.158157
      ESP Fit Center  144 is at  -3.928754  1.009309 -0.158157
      ESP Fit Center  145 is at  -4.165242  2.036339 -0.998157
      ESP Fit Center  146 is at  -5.951608  2.616765 -0.998157
      ESP Fit Center  147 is at  -5.951608  1.455913 -0.998157
      ESP Fit Center  148 is at  -4.847573  1.097190 -0.998157
      ESP Fit Center  149 is at  -5.152721  2.036339 -1.319008
      ESP Fit Center  150 is at  -3.424648  5.601188  0.493508
      ESP Fit Center  151 is at  -2.478132  5.054717 -0.544790
      ESP Fit Center  152 is at  -3.424648  5.601188 -0.544790
      ESP Fit Center  153 is at  -4.500986  5.411401 -0.544790
      ESP Fit Center  154 is at  -5.203516  4.574158 -0.544790
      ESP Fit Center  155 is at  -2.714620  4.027687 -1.384790
      ESP Fit Center  156 is at  -3.396951  4.966836 -1.384790
      ESP Fit Center  157 is at  -4.500986  4.608113 -1.384790
      ESP Fit Center  158 is at  -4.500986  3.447261 -1.384790
      ESP Fit Center  159 is at  -3.396951  3.088538 -1.384790
      ESP Fit Center  160 is at  -3.702099  4.027687 -1.705641
      ESP Fit Center  161 is at  -2.729765  4.352460  3.058954
      ESP Fit Center  162 is at  -3.412096  5.291609  3.058954
      ESP Fit Center  163 is at  -3.412096  3.413311  3.058954
      ESP Fit Center  164 is at  -2.493277  5.379490  2.218954
      ESP Fit Center  165 is at  -3.439793  5.925961  2.218954
      ESP Fit Center  166 is at  -4.516131  5.736174  2.218954
      ESP Fit Center  167 is at  -2.493277  5.379490  1.180656
      ESP Fit Center  168 is at  -3.439793  5.925961  1.180656
      ESP Fit Center  169 is at  -4.516131  5.736174  1.180656
      ESP Fit Center  170 is at  -2.801478  2.609447  3.101592
      ESP Fit Center  171 is at  -3.291478  1.760742  2.839002
      ESP Fit Center  172 is at  -2.311478  1.760742  2.839002
      ESP Fit Center  173 is at  -3.326006  0.995114  2.121592
      ESP Fit Center  174 is at  -3.781478  0.912037  1.141592
      ESP Fit Center  175 is at  -2.801478  0.649447  1.141592
      ESP Fit Center  176 is at  -3.326006  0.995114  0.161592
      ESP Fit Center  177 is at  -3.291478  1.760742 -0.555818
      ESP Fit Center  178 is at  -2.801478  2.609447 -0.818408
      ESP Fit Center  179 is at  -2.030816  2.208250  2.964215
      ESP Fit Center  180 is at   0.353642  4.093496  1.145562
      ESP Fit Center  181 is at  -0.312880  4.845843  1.145562
      ESP Fit Center  182 is at  -2.250486  5.081111  1.145562
      ESP Fit Center  183 is at  -1.358081  3.774314  3.683368
      ESP Fit Center  184 is at  -0.370602  3.774314  3.362517
      ESP Fit Center  185 is at  -1.052933  4.713463  3.362517
      ESP Fit Center  186 is at  -2.156968  4.354740  3.362517
      ESP Fit Center  187 is at  -2.156968  3.193888  3.362517
      ESP Fit Center  188 is at  -1.052933  2.835165  3.362517
      ESP Fit Center  189 is at   0.239694  3.774314  2.522517
      ESP Fit Center  190 is at  -0.134114  4.801344  2.522517
      ESP Fit Center  191 is at  -1.080630  5.347815  2.522517
      ESP Fit Center  192 is at  -2.156968  5.158028  2.522517
      ESP Fit Center  193 is at  -0.134114  4.801344  1.484219
      ESP Fit Center  194 is at  -1.080630  5.347815  1.484219
      ESP Fit Center  195 is at  -2.156968  5.158028  1.484219
      ESP Fit Center  196 is at  -0.087678  4.722005  0.762931
      ESP Fit Center  197 is at  -1.034194  5.268476  0.762931
      ESP Fit Center  198 is at   0.286130  3.694975 -0.275367
      ESP Fit Center  199 is at  -0.087678  4.722005 -0.275367
      ESP Fit Center  200 is at  -1.034194  5.268476 -0.275367
      ESP Fit Center  201 is at  -2.110532  5.078689 -0.275367
      ESP Fit Center  202 is at  -0.324166  3.694975 -1.115367
      ESP Fit Center  203 is at  -1.006497  4.634124 -1.115367
      ESP Fit Center  204 is at  -2.110532  4.275401 -1.115367
      ESP Fit Center  205 is at  -2.110532  3.114549 -1.115367
      ESP Fit Center  206 is at  -1.311645  3.694975 -1.436218
      ESP Fit Center  207 is at  -0.001233  2.878859  3.041527
      ESP Fit Center  208 is at   1.003716  0.986294  2.272874
      ESP Fit Center  209 is at  -0.822014  1.303974  3.709456
      ESP Fit Center  210 is at   0.165465  1.303974  3.388605
      ESP Fit Center  211 is at  -0.516866  2.243123  3.388605
      ESP Fit Center  212 is at  -1.620901  1.884400  3.388605
      ESP Fit Center  213 is at  -1.620901  0.723548  3.388605
      ESP Fit Center  214 is at  -0.516866  0.364825  3.388605
      ESP Fit Center  215 is at  -2.323431  0.757503  2.548605
      ESP Fit Center  216 is at  -1.620901 -0.079740  2.548605
      ESP Fit Center  217 is at  -0.544563 -0.269527  2.548605
      ESP Fit Center  218 is at   0.401953  0.276944  2.548605
      ESP Fit Center  219 is at   0.462891  2.362946  3.131323
      ESP Fit Center  220 is at   1.450370  2.362946  2.810472
      ESP Fit Center  221 is at   0.768039  3.302095  2.810472
      ESP Fit Center  222 is at   0.768039  1.423797  2.810472
      ESP Fit Center  223 is at   2.060666  2.362946  1.970472
      ESP Fit Center  224 is at   1.686858  3.389976  1.970472
      ESP Fit Center  225 is at   0.740342  3.936447  1.970472
      ESP Fit Center  226 is at   2.060666  2.362946  0.932174
      ESP Fit Center  227 is at   1.686858  3.389976  0.932174
      ESP Fit Center  228 is at   0.740342  3.936447  0.932174
      ESP Fit Center  229 is at   1.450370  2.362946  0.092174
      ESP Fit Center  230 is at   0.768039  3.302095  0.092174
      ESP Fit Center  231 is at  -1.897209  0.296374  0.980000
      ESP Fit Center  232 is at  -2.221386  0.314086  0.000000
      ESP Fit Center  233 is at   0.849257  2.291798 -0.980000
      ESP Fit Center  234 is at   0.000552  2.908419 -0.980000
      ESP Fit Center  235 is at  -1.897209  2.291798 -0.980000
      ESP Fit Center  236 is at  -2.221386  1.294086 -0.980000
      ESP Fit Center  237 is at  -1.897209  0.296374 -0.980000
      ESP Fit Center  238 is at   0.456024  1.294086 -1.697410
      ESP Fit Center  239 is at  -0.033976  2.142791 -1.697410
      ESP Fit Center  240 is at  -1.013976  2.142791 -1.697410
      ESP Fit Center  241 is at  -1.503976  1.294086 -1.697410
      ESP Fit Center  242 is at  -0.523976  1.294086 -1.960000
      ESP Fit Center  243 is at  -2.038978 -0.502563  0.000000
      ESP Fit Center  244 is at  -1.571873 -1.392558  0.000000
      ESP Fit Center  245 is at   0.525000  0.909327 -1.818653
      ESP Fit Center  246 is at  -1.874288 -1.018345 -0.379770
      ESP Fit Center  247 is at  -1.171758 -1.855588 -0.379770
      ESP Fit Center  248 is at  -1.874288  0.074597 -1.418068
      ESP Fit Center  249 is at  -1.874288 -1.018345 -1.418068
      ESP Fit Center  250 is at  -1.171758 -1.855588 -1.418068
      ESP Fit Center  251 is at  -0.067723  0.467275 -2.258068
      ESP Fit Center  252 is at  -1.171758  0.108552 -2.258068
      ESP Fit Center  253 is at  -1.171758 -1.052300 -2.258068
      ESP Fit Center  254 is at  -0.372871 -0.471874 -2.578919
      ESP Fit Center  255 is at  -0.371200 -0.566591  2.529562
      ESP Fit Center  256 is at   0.616279 -0.566591  2.208711
      ESP Fit Center  257 is at  -1.170087 -1.147017  2.208711
      ESP Fit Center  258 is at  -0.066052 -1.505740  2.208711
      ESP Fit Center  259 is at  -1.872617 -0.020120  1.368711
      ESP Fit Center  260 is at  -1.872617 -1.113062  1.368711
      ESP Fit Center  261 is at  -1.170087 -1.950305  1.368711
      ESP Fit Center  262 is at  -0.093749 -2.140092  1.368711
      ESP Fit Center  263 is at  -1.872617 -1.113062  0.330413
      ESP Fit Center  264 is at  -1.170087 -1.950305  0.330413
      ESP Fit Center  265 is at   3.387285  0.975919  0.000000
      ESP Fit Center  266 is at   1.909478  0.416522  2.604225
      ESP Fit Center  267 is at   2.896957  0.416522  2.283374
      ESP Fit Center  268 is at   2.214626  1.355671  2.283374
      ESP Fit Center  269 is at   1.110591  0.996948  2.283374
      ESP Fit Center  270 is at   1.110591 -0.163904  2.283374
      ESP Fit Center  271 is at   2.214626 -0.522627  2.283374
      ESP Fit Center  272 is at   3.507253  0.416522  1.443374
      ESP Fit Center  273 is at   3.133445  1.443552  1.443374
      ESP Fit Center  274 is at   2.186929  1.990023  1.443374
      ESP Fit Center  275 is at   3.133445  1.443552  0.405076
      ESP Fit Center  276 is at   2.186929  1.990023  0.405076
      ESP Fit Center  277 is at   3.121645  1.644933 -0.290593
      ESP Fit Center  278 is at   2.175129  2.191404 -0.290593
      ESP Fit Center  279 is at   3.495453  0.617903 -1.328891
      ESP Fit Center  280 is at   3.121645  1.644933 -1.328891
      ESP Fit Center  281 is at   2.175129  2.191404 -1.328891
      ESP Fit Center  282 is at   1.098791  2.001617 -1.328891
      ESP Fit Center  283 is at   2.885157  0.617903 -2.168891
      ESP Fit Center  284 is at   2.202826  1.557052 -2.168891
      ESP Fit Center  285 is at   1.098791  1.198329 -2.168891
      ESP Fit Center  286 is at   1.098791  0.037477 -2.168891
      ESP Fit Center  287 is at   1.897678  0.617903 -2.489742
      ESP Fit Center  288 is at   2.258183 -1.659279  2.335962
      ESP Fit Center  289 is at   3.321198 -1.659279  2.093336
      ESP Fit Center  290 is at   2.789691 -0.738681  2.093336
      ESP Fit Center  291 is at   1.195168 -1.659279  2.093336
      ESP Fit Center  292 is at   1.726675 -2.579877  2.093336
      ESP Fit Center  293 is at   2.789691 -2.579877  2.093336
      ESP Fit Center  294 is at   4.173670 -1.659279  1.413512
      ESP Fit Center  295 is at   3.869593 -0.623688  1.413512
      ESP Fit Center  296 is at   0.420287 -2.198934  1.413512
      ESP Fit Center  297 is at   1.003806 -3.106908  1.413512
      ESP Fit Center  298 is at   1.985581 -3.555269  1.413512
      ESP Fit Center  299 is at   3.053905 -3.401667  1.413512
      ESP Fit Center  300 is at   3.869593 -2.694870  1.413512
      ESP Fit Center  301 is at   4.646756 -1.659279  0.431138
      ESP Fit Center  302 is at   4.410213 -0.622916  0.431138
      ESP Fit Center  303 is at   3.747434  0.208183  0.431138
      ESP Fit Center  304 is at   0.106153 -2.695642  0.431138
      ESP Fit Center  305 is at   0.768932 -3.526741  0.431138
      ESP Fit Center  306 is at   1.726675 -3.987966  0.431138
      ESP Fit Center  307 is at   2.789691 -3.987966  0.431138
      ESP Fit Center  308 is at   3.747434 -3.526741  0.431138
      ESP Fit Center  309 is at   4.410213 -2.695642  0.431138
      ESP Fit Center  310 is at   4.646756 -1.659279 -0.659214
      ESP Fit Center  311 is at   4.410213 -0.622916 -0.659214
      ESP Fit Center  312 is at   3.747434  0.208183 -0.659214
      ESP Fit Center  313 is at   0.106153 -2.695642 -0.659214
      ESP Fit Center  314 is at   0.768932 -3.526741 -0.659214
      ESP Fit Center  315 is at   4.173670 -1.659279 -1.641588
      ESP Fit Center  316 is at  -0.476161 -2.576410 -1.647100
      ESP Fit Center  317 is at   0.226369 -3.413653 -1.647100
      ESP Fit Center  318 is at   0.226369 -0.646225 -2.685398
      ESP Fit Center  319 is at  -0.476161 -1.483468 -2.685398
      ESP Fit Center  320 is at  -0.476161 -2.576410 -2.685398
      ESP Fit Center  321 is at   0.226369 -3.413653 -2.685398
      ESP Fit Center  322 is at   0.226369 -1.449513 -3.525398
      ESP Fit Center  323 is at   0.226369 -2.610365 -3.525398
      ESP Fit Center  324 is at   4.157609 -1.236926 -1.938627
      ESP Fit Center  325 is at   3.783801 -0.209896 -1.938627
      ESP Fit Center  326 is at   3.783801 -0.209896 -2.976925
      ESP Fit Center  327 is at   2.837285  0.336575 -2.976925
      ESP Fit Center  328 is at   1.760947  0.146788 -2.976925
      ESP Fit Center  329 is at   2.864982 -0.297777 -3.816925
      ESP Fit Center  330 is at   1.760947 -0.656500 -3.816925
      ESP Fit Center  331 is at   3.885404 -5.108212 -2.196936
      ESP Fit Center  332 is at   2.164839 -4.156703  0.021885
      ESP Fit Center  333 is at   3.152318 -4.156703 -0.298966
      ESP Fit Center  334 is at   1.365952 -4.737129 -0.298966
      ESP Fit Center  335 is at   2.469987 -5.095852 -0.298966
      ESP Fit Center  336 is at   0.663422 -3.610232 -1.138966
      ESP Fit Center  337 is at   0.663422 -4.703174 -1.138966
      ESP Fit Center  338 is at   1.365952 -5.540417 -1.138966
      ESP Fit Center  339 is at   2.442290 -5.730204 -1.138966
      ESP Fit Center  340 is at   3.388806 -5.183733 -1.138966
      ESP Fit Center  341 is at   0.663422 -4.703174 -2.177264
      ESP Fit Center  342 is at   1.365952 -5.540417 -2.177264
      ESP Fit Center  343 is at   2.442290 -5.730204 -2.177264
      ESP Fit Center  344 is at   4.712262 -3.413416 -0.513463
      ESP Fit Center  345 is at   4.029931 -4.352565 -0.513463
      ESP Fit Center  346 is at   5.322558 -3.413416 -1.353463
      ESP Fit Center  347 is at   4.948750 -2.386386 -1.353463
      ESP Fit Center  348 is at   4.002234 -4.986917 -1.353463
      ESP Fit Center  349 is at   4.948750 -4.440446 -1.353463
      ESP Fit Center  350 is at   4.948750 -2.386386 -2.391761
      ESP Fit Center  351 is at   2.312201 -5.740121 -2.424909
      ESP Fit Center  352 is at   3.380525 -5.586519 -2.424909
      ESP Fit Center  353 is at   0.196230 -3.844131 -3.407283
      ESP Fit Center  354 is at   0.432773 -4.880494 -3.407283
      ESP Fit Center  355 is at   1.095552 -5.711593 -3.407283
      ESP Fit Center  356 is at   2.053295 -6.172818 -3.407283
      ESP Fit Center  357 is at   3.116311 -6.172818 -3.407283
      ESP Fit Center  358 is at   4.074054 -5.711593 -3.407283
      ESP Fit Center  359 is at   2.053295 -1.515444 -4.497635
      ESP Fit Center  360 is at   1.095552 -1.976669 -4.497635
      ESP Fit Center  361 is at   0.432773 -2.807768 -4.497635
      ESP Fit Center  362 is at   0.196230 -3.844131 -4.497635
      ESP Fit Center  363 is at   0.432773 -4.880494 -4.497635
      ESP Fit Center  364 is at   1.095552 -5.711593 -4.497635
      ESP Fit Center  365 is at   2.053295 -6.172818 -4.497635
      ESP Fit Center  366 is at   3.116311 -6.172818 -4.497635
      ESP Fit Center  367 is at   4.074054 -5.711593 -4.497635
      ESP Fit Center  368 is at   1.330426 -2.396502 -5.480009
      ESP Fit Center  369 is at   0.746907 -3.304476 -5.480009
      ESP Fit Center  370 is at   0.746907 -4.383786 -5.480009
      ESP Fit Center  371 is at   1.330426 -5.291760 -5.480009
      ESP Fit Center  372 is at   2.312201 -5.740121 -5.480009
      ESP Fit Center  373 is at   3.380525 -5.586519 -5.480009
      ESP Fit Center  374 is at   2.053295 -2.923533 -6.159833
      ESP Fit Center  375 is at   1.521788 -3.844131 -6.159833
      ESP Fit Center  376 is at   2.053295 -4.764729 -6.159833
      ESP Fit Center  377 is at   3.116311 -4.764729 -6.159833
      ESP Fit Center  378 is at   4.728912 -1.267877 -5.737136
      ESP Fit Center  379 is at   4.963723 -1.910507 -2.944087
      ESP Fit Center  380 is at   4.281392 -0.971358 -2.944087
      ESP Fit Center  381 is at   4.253695 -0.337006 -3.784087
      ESP Fit Center  382 is at   4.253695 -0.337006 -4.822385
      ESP Fit Center  383 is at   3.177357 -0.526793 -4.822385
      ESP Fit Center  384 is at   2.474827 -1.364036 -4.822385
      ESP Fit Center  385 is at   4.281392 -0.971358 -5.662385
      ESP Fit Center  386 is at   4.029551 -1.283568 -6.263341
      ESP Fit Center  387 is at   2.953213 -1.473355 -6.263341
      ESP Fit Center  388 is at   2.250683 -2.310598 -6.263341
      ESP Fit Center  389 is at   4.029551 -4.430570 -6.263341
      ESP Fit Center  390 is at   4.739579 -2.857069 -7.103341
      ESP Fit Center  391 is at   4.057248 -1.917920 -7.103341
      ESP Fit Center  392 is at   2.953213 -2.276643 -7.103341
      ESP Fit Center  393 is at   2.953213 -3.437495 -7.103341
      ESP Fit Center  394 is at   4.057248 -3.796218 -7.103341
      ESP Fit Center  395 is at   3.752100 -2.857069 -7.424192
      ESP Fit Center  396 is at   5.068602 -5.400166 -3.435997
      ESP Fit Center  397 is at   5.545445 -3.745112 -1.756337
      ESP Fit Center  398 is at   5.850593 -4.684261 -2.077188
      ESP Fit Center  399 is at   4.746558 -5.128826 -2.917188
      ESP Fit Center  400 is at   5.822896 -5.318613 -2.917188
      ESP Fit Center  401 is at   6.769412 -4.772142 -2.917188
      ESP Fit Center  402 is at   5.618288 -5.520175 -3.583129
      ESP Fit Center  403 is at   4.514253 -5.964740 -4.423129
      ESP Fit Center  404 is at   5.590591 -6.154527 -4.423129
      ESP Fit Center  405 is at   6.537107 -5.608056 -4.423129
      ESP Fit Center  406 is at   4.514253 -5.964740 -5.461427
      ESP Fit Center  407 is at   5.590591 -6.154527 -5.461427
      ESP Fit Center  408 is at   6.537107 -5.608056 -5.461427
      ESP Fit Center  409 is at   4.514253 -5.161452 -6.301427
      ESP Fit Center  410 is at   5.618288 -5.520175 -6.301427
      ESP Fit Center  411 is at   5.313140 -4.581026 -6.622278
      ESP Fit Center  412 is at   7.501804 -4.455687 -3.748981
      ESP Fit Center  413 is at   9.094655 -2.713299 -4.731355
      ESP Fit Center  414 is at   7.237590 -5.041986 -4.731355
      ESP Fit Center  415 is at   8.195333 -4.580761 -4.731355
      ESP Fit Center  416 is at   8.858112 -3.749662 -4.731355
      ESP Fit Center  417 is at   9.094655 -2.713299 -5.821707
      ESP Fit Center  418 is at   8.858112 -1.676936 -5.821707
      ESP Fit Center  419 is at   6.174574 -0.384612 -5.821707
      ESP Fit Center  420 is at   5.216831 -0.845837 -5.821707
      ESP Fit Center  421 is at   7.237590 -5.041986 -5.821707
      ESP Fit Center  422 is at   8.195333 -4.580761 -5.821707
      ESP Fit Center  423 is at   8.858112 -3.749662 -5.821707
      ESP Fit Center  424 is at   8.621569 -2.713299 -6.804081
      ESP Fit Center  425 is at   8.317492 -1.677708 -6.804081
      ESP Fit Center  426 is at   7.501804 -0.970911 -6.804081
      ESP Fit Center  427 is at   6.433480 -0.817309 -6.804081
      ESP Fit Center  428 is at   5.451705 -1.265670 -6.804081
      ESP Fit Center  429 is at   4.868186 -2.173644 -6.804081
      ESP Fit Center  430 is at   5.451705 -4.160928 -6.804081
      ESP Fit Center  431 is at   6.433480 -4.609289 -6.804081
      ESP Fit Center  432 is at   7.501804 -4.455687 -6.804081
      ESP Fit Center  433 is at   8.317492 -3.748890 -6.804081
      ESP Fit Center  434 is at   7.769097 -2.713299 -7.483905
      ESP Fit Center  435 is at   7.237590 -1.792701 -7.483905
      ESP Fit Center  436 is at   6.174574 -1.792701 -7.483905
      ESP Fit Center  437 is at   5.643067 -2.713299 -7.483905
      ESP Fit Center  438 is at   6.174574 -3.633897 -7.483905
      ESP Fit Center  439 is at   7.237590 -3.633897 -7.483905
      ESP Fit Center  440 is at   6.706082 -2.713299 -7.726531
      ESP Fit Center  441 is at   9.255826 -0.667176 -4.138236
      ESP Fit Center  442 is at   8.882018  0.359854 -4.138236
      ESP Fit Center  443 is at   7.935502  0.906325 -4.138236
      ESP Fit Center  444 is at   9.255826 -0.667176 -5.176534
      ESP Fit Center  445 is at   8.882018  0.359854 -5.176534
      ESP Fit Center  446 is at   7.935502  0.906325 -5.176534
      ESP Fit Center  447 is at   6.859164  0.716538 -5.176534
      ESP Fit Center  448 is at   8.645530 -0.667176 -6.016534
      ESP Fit Center  449 is at   7.963199  0.271973 -6.016534
      ESP Fit Center  450 is at   6.859164 -0.086750 -6.016534
      ESP Fit Center  451 is at   7.658051 -0.667176 -6.337385
      ESP Fit Center  452 is at   6.429545  0.087251 -2.501818
      ESP Fit Center  453 is at   5.325510 -0.271472 -2.501818
      ESP Fit Center  454 is at   5.325510 -1.432324 -2.501818
      ESP Fit Center  455 is at   6.401848  0.721603 -3.341818
      ESP Fit Center  456 is at   5.325510  0.531816 -3.341818
      ESP Fit Center  457 is at   4.622980 -0.305427 -3.341818
      ESP Fit Center  458 is at   6.401848  0.721603 -4.380116
      ESP Fit Center  459 is at   5.325510  0.531816 -4.380116
      ESP Fit Center  460 is at   4.622980 -0.305427 -4.380116
      ESP Fit Center  461 is at   5.325510 -0.271472 -5.220116
      ESP Fit Center  462 is at   7.774952 -1.796324 -0.728362
      ESP Fit Center  463 is at   8.824952 -1.796324 -1.009709
      ESP Fit Center  464 is at   6.029967 -1.283950 -1.778362
      ESP Fit Center  465 is at   8.530448 -3.450629 -1.778362
      ESP Fit Center  466 is at   9.634410 -0.820405 -2.828362
      ESP Fit Center  467 is at   8.028079 -3.881013 -2.828362
      ESP Fit Center  468 is at   9.304901 -0.813086 -3.878362
      ESP Fit Center  469 is at   7.974359 -0.930206 -0.523652
      ESP Fit Center  470 is at   8.961838 -0.930206 -0.844503
      ESP Fit Center  471 is at   8.279507  0.008943 -0.844503
      ESP Fit Center  472 is at   7.175472 -0.349780 -0.844503
      ESP Fit Center  473 is at   9.572134 -0.930206 -1.684503
      ESP Fit Center  474 is at   9.198326  0.096824 -1.684503
      ESP Fit Center  475 is at   8.251810  0.643295 -1.684503
      ESP Fit Center  476 is at   7.175472  0.453508 -1.684503
      ESP Fit Center  477 is at   6.472942 -0.383735 -1.684503
      ESP Fit Center  478 is at   9.198326  0.096824 -2.722801
      ESP Fit Center  479 is at   8.251810  0.643295 -2.722801
      ESP Fit Center  480 is at   7.175472  0.453508 -2.722801
      ESP Fit Center  481 is at   7.187162 -2.494297 -0.562476
      ESP Fit Center  482 is at   8.174641 -2.494297 -0.883327
      ESP Fit Center  483 is at   6.388275 -1.913871 -0.883327
      ESP Fit Center  484 is at   6.388275 -3.074723 -0.883327
      ESP Fit Center  485 is at   7.492310 -3.433446 -0.883327
      ESP Fit Center  486 is at   5.685745 -1.947826 -1.723327
      ESP Fit Center  487 is at   5.685745 -3.040768 -1.723327
      ESP Fit Center  488 is at   6.388275 -3.878011 -1.723327
      ESP Fit Center  489 is at   7.464613 -4.067798 -1.723327
      ESP Fit Center  490 is at   8.411129 -3.521327 -1.723327
      ESP Fit Center  491 is at   7.464613 -4.067798 -2.761625
      ESP Fit Center  492 is at   9.706882 -2.271340 -1.707023
      ESP Fit Center  493 is at   9.024551 -3.210489 -1.707023
      ESP Fit Center  494 is at  10.317178 -2.271340 -2.547023
      ESP Fit Center  495 is at   9.943370 -1.244310 -2.547023
      ESP Fit Center  496 is at   8.996854 -3.844841 -2.547023
      ESP Fit Center  497 is at   9.943370 -3.298370 -2.547023
      ESP Fit Center  498 is at  10.317178 -2.271340 -3.585321
      ESP Fit Center  499 is at   9.943370 -1.244310 -3.585321
      ESP Fit Center  500 is at   8.996854 -3.844841 -3.585321
      ESP Fit Center  501 is at   9.943370 -3.298370 -3.585321
      ESP Fit Center  502 is at   9.706882 -2.271340 -4.425321
      ESP Fit Center  503 is at   9.024551 -3.210489 -4.425321
      ESP Fit Center  504 is at  -6.807862  1.634105  6.670150
      ESP Fit Center  505 is at  -4.708678  3.550371  6.004201
      ESP Fit Center  506 is at  -8.087590  2.007273  6.004201
      ESP Fit Center  507 is at  -6.554241  0.678618  6.004201
      ESP Fit Center  508 is at  -8.627029  2.535915  5.041875
      ESP Fit Center  509 is at  -5.766542  0.254752  3.973775
      ESP Fit Center  510 is at  -7.483784  0.913909  5.979571
      ESP Fit Center  511 is at  -8.666553  1.745293  5.276802
      ESP Fit Center  512 is at  -8.348992  0.767942  5.276802
      ESP Fit Center  513 is at  -7.517608  0.163906  5.276802
      ESP Fit Center  514 is at  -6.489960  0.163906  5.276802
      ESP Fit Center  515 is at  -8.923784  1.745293  4.316802
      ESP Fit Center  516 is at  -8.666553  0.785293  4.316802
      ESP Fit Center  517 is at  -7.963784  0.082524  4.316802
      ESP Fit Center  518 is at  -7.003784 -0.174707  4.316802
      ESP Fit Center  519 is at  -6.043784  0.082524  4.316802
      ESP Fit Center  520 is at  -8.666553  1.745293  3.356802
      ESP Fit Center  521 is at  -8.348992  0.767942  3.356802
      ESP Fit Center  522 is at  -7.517608  0.163906  3.356802
      ESP Fit Center  523 is at  -6.489960  0.163906  3.356802
      ESP Fit Center  524 is at  -7.963784  1.745293  2.654033
      ESP Fit Center  525 is at  -7.483784  0.913909  2.654033
      ESP Fit Center  526 is at  -5.386453  2.087700  6.831332
      ESP Fit Center  527 is at  -4.426453  2.087700  6.574101
      ESP Fit Center  528 is at  -4.906453  2.919084  6.574101
      ESP Fit Center  529 is at  -5.866453  1.256316  6.574101
      ESP Fit Center  530 is at  -4.906453  1.256316  6.574101
      ESP Fit Center  531 is at  -3.723684  2.087700  5.871332
      ESP Fit Center  532 is at  -4.041245  3.065051  5.871332
      ESP Fit Center  533 is at  -5.900277  0.506313  5.871332
      ESP Fit Center  534 is at  -4.872629  0.506313  5.871332
      ESP Fit Center  535 is at  -4.041245  1.110349  5.871332
      ESP Fit Center  536 is at  -3.466453  2.087700  4.911332
      ESP Fit Center  537 is at  -3.723684  3.047700  4.911332
      ESP Fit Center  538 is at  -5.386453  0.167700  4.911332
      ESP Fit Center  539 is at  -4.426453  0.424931  4.911332
      ESP Fit Center  540 is at  -3.723684  1.127700  4.911332
      ESP Fit Center  541 is at  -3.723684  2.087700  3.951332
      ESP Fit Center  542 is at  -4.872629  0.506313  3.951332
      ESP Fit Center  543 is at  -4.041245  1.110349  3.951332
      ESP Fit Center  544 is at  -6.702832  3.209102  7.171423
      ESP Fit Center  545 is at  -5.742832  3.209102  6.914192
      ESP Fit Center  546 is at  -6.222832  4.040486  6.914192
      ESP Fit Center  547 is at  -7.182832  4.040486  6.914192
      ESP Fit Center  548 is at  -7.662832  3.209102  6.914192
      ESP Fit Center  549 is at  -7.182832  2.377718  6.914192
      ESP Fit Center  550 is at  -6.222832  2.377718  6.914192
      ESP Fit Center  551 is at  -5.357624  4.186453  6.211423
      ESP Fit Center  552 is at  -6.189008  4.790489  6.211423
      ESP Fit Center  553 is at  -7.216656  4.790489  6.211423
      ESP Fit Center  554 is at  -8.048040  4.186453  6.211423
      ESP Fit Center  555 is at  -8.365601  3.209102  6.211423
      ESP Fit Center  556 is at  -8.048040  2.231751  6.211423
      ESP Fit Center  557 is at  -5.742832  4.871871  5.251423
      ESP Fit Center  558 is at  -6.702832  5.129102  5.251423
      ESP Fit Center  559 is at  -7.662832  4.871871  5.251423
      ESP Fit Center  560 is at  -8.365601  4.169102  5.251423
      ESP Fit Center  561 is at  -8.622832  3.209102  5.251423
      ESP Fit Center  562 is at  -8.048040  4.186453  4.291423
      ESP Fit Center  563 is at  -6.241770  5.142033  4.723368
      ESP Fit Center  564 is at  -6.495391  5.565899  3.761042
      ESP Fit Center  565 is at  -7.391694  5.324924  3.785015
      ESP Fit Center  566 is at  -8.223078  4.720888  3.785015
      ESP Fit Center  567 is at  -8.540639  3.743537  3.785015
      ESP Fit Center  568 is at  -6.877870  5.663537  2.825015
      ESP Fit Center  569 is at  -7.837870  5.406306  2.825015
      ESP Fit Center  570 is at  -8.540639  4.703537  2.825015
      ESP Fit Center  571 is at  -8.797870  3.743537  2.825015
      ESP Fit Center  572 is at  -8.540639  2.783537  2.825015
      ESP Fit Center  573 is at  -6.364046  5.324924  1.865015
      ESP Fit Center  574 is at  -7.391694  5.324924  1.865015
      ESP Fit Center  575 is at  -8.223078  4.720888  1.865015
      ESP Fit Center  576 is at  -8.540639  3.743537  1.865015
      ESP Fit Center  577 is at  -8.223078  2.766186  1.865015
      ESP Fit Center  578 is at  -7.837870  3.743537  1.162246
      ESP Fit Center  579 is at  -4.307097  4.086740  5.090622
      ESP Fit Center  580 is at  -4.787097  4.918124  5.090622
      ESP Fit Center  581 is at  -5.747097  4.918124  5.090622
      ESP Fit Center  582 is at  -3.604328  4.086740  4.387853
      ESP Fit Center  583 is at  -3.921889  5.064091  4.387853
      ESP Fit Center  584 is at  -4.753273  5.668127  4.387853
      ESP Fit Center  585 is at  -5.780921  5.668127  4.387853
      ESP Fit Center  586 is at  -4.307097  5.749509  3.427853
      ESP Fit Center  587 is at  -5.267097  6.006740  3.427853
      ESP Fit Center  588 is at  -6.227097  5.749509  3.427853
      ESP Fit Center  589 is at  -5.780921  5.668127  2.467853
      ESP Fit Center  590 is at  -3.700516  2.374116  3.701215
      ESP Fit Center  591 is at  -4.034985  1.344726  3.701215
      ESP Fit Center  592 is at  -6.226219  0.332192  2.803045
      ESP Fit Center  593 is at  -5.188586  0.206200  2.803045
      ESP Fit Center  594 is at  -4.211257  0.576852  2.803045
      ESP Fit Center  595 is at  -7.572199  1.851489  1.806151
      ESP Fit Center  596 is at  -7.086446  0.925963  1.806151
      ESP Fit Center  597 is at  -6.226219  0.332192  1.806151
      ESP Fit Center  598 is at  -5.188586  0.206200  1.806151
      ESP Fit Center  599 is at  -4.211257  0.576852  1.806151
      ESP Fit Center  600 is at  -7.261223  1.864289  0.505080
      ESP Fit Center  601 is at  -6.953500  2.350860 -0.457246
      ESP Fit Center  602 is at  -6.194433  2.879502 -1.123195
      ESP Fit Center  603 is at  -5.924366  5.497099  0.713440
      ESP Fit Center  604 is at  -6.884366  5.239868  0.713440
      ESP Fit Center  605 is at  -7.587135  4.537099  0.713440
      ESP Fit Center  606 is at  -7.844366  3.577099  0.713440
      ESP Fit Center  607 is at  -7.587135  2.617099  0.713440
      ESP Fit Center  608 is at  -5.410542  5.158486 -0.246560
      ESP Fit Center  609 is at  -6.438190  5.158486 -0.246560
      ESP Fit Center  610 is at  -7.269574  4.554450 -0.246560
      ESP Fit Center  611 is at  -7.587135  3.577099 -0.246560
      ESP Fit Center  612 is at  -7.269574  2.599748 -0.246560
      ESP Fit Center  613 is at  -5.444366  4.408483 -0.949329
      ESP Fit Center  614 is at  -6.404366  4.408483 -0.949329
      ESP Fit Center  615 is at  -6.884366  3.577099 -0.949329
      ESP Fit Center  616 is at  -5.924366  3.577099 -1.206560
      ESP Fit Center  617 is at  -4.638897  0.454952  1.320992
      ESP Fit Center  618 is at  -6.815490  1.076339  0.360992
      ESP Fit Center  619 is at  -6.112721  0.373570  0.360992
      ESP Fit Center  620 is at  -5.152721  0.116339  0.360992
      ESP Fit Center  621 is at  -4.192721  0.373570  0.360992
      ESP Fit Center  622 is at  -6.815490  2.036339 -0.599008
      ESP Fit Center  623 is at  -6.497929  1.058988 -0.599008
      ESP Fit Center  624 is at  -5.666545  0.454952 -0.599008
      ESP Fit Center  625 is at  -4.638897  0.454952 -0.599008
      ESP Fit Center  626 is at  -3.807513  1.058988 -0.599008
      ESP Fit Center  627 is at  -4.192721  2.036339 -1.301777
      ESP Fit Center  628 is at  -6.112721  2.036339 -1.301777
      ESP Fit Center  629 is at  -5.632721  1.204955 -1.301777
      ESP Fit Center  630 is at  -4.672721  1.204955 -1.301777
      ESP Fit Center  631 is at  -5.152721  2.036339 -1.559008
      ESP Fit Center  632 is at  -2.341351  5.391021  0.421338
      ESP Fit Center  633 is at  -4.320869  5.842834  0.421338
      ESP Fit Center  634 is at  -5.259067  5.391021  0.421338
      ESP Fit Center  635 is at  -2.742099  5.690456 -0.025641
      ESP Fit Center  636 is at  -3.702099  5.947687 -0.025641
      ESP Fit Center  637 is at  -4.662099  5.690456 -0.025641
      ESP Fit Center  638 is at  -2.356891  5.005038 -0.985641
      ESP Fit Center  639 is at  -3.188275  5.609074 -0.985641
      ESP Fit Center  640 is at  -4.215923  5.609074 -0.985641
      ESP Fit Center  641 is at  -5.047307  5.005038 -0.985641
      ESP Fit Center  642 is at  -2.742099  4.027687 -1.688410
      ESP Fit Center  643 is at  -3.222099  4.859071 -1.688410
      ESP Fit Center  644 is at  -4.182099  4.859071 -1.688410
      ESP Fit Center  645 is at  -4.662099  4.027687 -1.688410
      ESP Fit Center  646 is at  -4.182099  3.196303 -1.688410
      ESP Fit Center  647 is at  -3.222099  3.196303 -1.688410
      ESP Fit Center  648 is at  -3.702099  4.027687 -1.945641
      ESP Fit Center  649 is at  -2.757244  4.352460  3.362574
      ESP Fit Center  650 is at  -3.237244  5.183844  3.362574
      ESP Fit Center  651 is at  -3.237244  3.521076  3.362574
      ESP Fit Center  652 is at  -2.372036  5.329811  2.659805
      ESP Fit Center  653 is at  -3.203420  5.933847  2.659805
      ESP Fit Center  654 is at  -4.231068  5.933847  2.659805
      ESP Fit Center  655 is at  -2.757244  6.015229  1.699805
      ESP Fit Center  656 is at  -3.717244  6.272460  1.699805
      ESP Fit Center  657 is at  -4.677244  6.015229  1.699805
      ESP Fit Center  658 is at  -5.380013  5.312460  1.699805
      ESP Fit Center  659 is at  -3.203420  5.933847  0.739805
      ESP Fit Center  660 is at  -4.231068  5.933847  0.739805
      ESP Fit Center  661 is at  -2.801478  2.609447  3.381592
      ESP Fit Center  662 is at  -3.287428  1.767757  3.159762
      ESP Fit Center  663 is at  -2.315528  1.767757  3.159762
      ESP Fit Center  664 is at  -3.342660  0.943859  2.538209
      ESP Fit Center  665 is at  -3.575878  0.567523  1.640039
      ESP Fit Center  666 is at  -2.538245  0.441531  1.640039
      ESP Fit Center  667 is at  -3.575878  0.567523  0.643145
      ESP Fit Center  668 is at  -2.538245  0.441531  0.643145
      ESP Fit Center  669 is at  -3.342660  0.943859 -0.255025
      ESP Fit Center  670 is at  -3.287428  1.767757 -0.876578
      ESP Fit Center  671 is at  -2.801478  2.609447 -1.098408
      ESP Fit Center  672 is at  -2.026476  2.215767  3.307887
      ESP Fit Center  673 is at   0.602295  4.132790  0.611512
      ESP Fit Center  674 is at  -1.358081  3.774314  3.923368
      ESP Fit Center  675 is at  -0.398081  3.774314  3.666137
      ESP Fit Center  676 is at  -0.878081  4.605698  3.666137
      ESP Fit Center  677 is at  -1.838081  4.605698  3.666137
      ESP Fit Center  678 is at  -2.318081  3.774314  3.666137
      ESP Fit Center  679 is at  -1.838081  2.942930  3.666137
      ESP Fit Center  680 is at  -0.878081  2.942930  3.666137
      ESP Fit Center  681 is at   0.304688  3.774314  2.963368
      ESP Fit Center  682 is at  -0.012873  4.751665  2.963368
      ESP Fit Center  683 is at  -0.844257  5.355701  2.963368
      ESP Fit Center  684 is at  -1.871905  5.355701  2.963368
      ESP Fit Center  685 is at   0.304688  4.734314  2.003368
      ESP Fit Center  686 is at  -0.398081  5.437083  2.003368
      ESP Fit Center  687 is at  -1.358081  5.694314  2.003368
      ESP Fit Center  688 is at   0.351124  4.654975  0.243782
      ESP Fit Center  689 is at  -0.351645  5.357744  0.243782
      ESP Fit Center  690 is at  -1.311645  5.614975  0.243782
      ESP Fit Center  691 is at  -2.271645  5.357744  0.243782
      ESP Fit Center  692 is at   0.351124  3.694975 -0.716218
      ESP Fit Center  693 is at   0.033563  4.672326 -0.716218
      ESP Fit Center  694 is at  -0.797821  5.276362 -0.716218
      ESP Fit Center  695 is at  -1.825469  5.276362 -0.716218
      ESP Fit Center  696 is at  -0.351645  3.694975 -1.418987
      ESP Fit Center  697 is at  -0.831645  4.526359 -1.418987
      ESP Fit Center  698 is at  -1.791645  4.526359 -1.418987
      ESP Fit Center  699 is at  -2.271645  3.694975 -1.418987
      ESP Fit Center  700 is at  -1.791645  2.863591 -1.418987
      ESP Fit Center  701 is at  -1.311645  3.694975 -1.676218
      ESP Fit Center  702 is at   0.515088  1.969532  3.385199
      ESP Fit Center  703 is at  -0.005573  2.871342  3.385199
      ESP Fit Center  704 is at   1.052291  0.955076  2.719250
      ESP Fit Center  705 is at   1.052291  2.983988 -0.273502
      ESP Fit Center  706 is at  -0.822014  1.303974  3.949456
      ESP Fit Center  707 is at   0.137986  1.303974  3.692225
      ESP Fit Center  708 is at  -0.342014  2.135358  3.692225
      ESP Fit Center  709 is at  -1.302014  2.135358  3.692225
      ESP Fit Center  710 is at  -1.782014  1.303974  3.692225
      ESP Fit Center  711 is at  -1.302014  0.472590  3.692225
      ESP Fit Center  712 is at  -0.342014  0.472590  3.692225
      ESP Fit Center  713 is at  -2.484783  1.303974  2.989456
      ESP Fit Center  714 is at  -2.167222  0.326623  2.989456
      ESP Fit Center  715 is at  -1.335838 -0.277413  2.989456
      ESP Fit Center  716 is at  -0.308190 -0.277413  2.989456
      ESP Fit Center  717 is at   0.523194  0.326623  2.989456
      ESP Fit Center  718 is at  -2.484783  0.343974  2.029456
      ESP Fit Center  719 is at   1.422891  2.362946  3.114092
      ESP Fit Center  720 is at   0.942891  3.194330  3.114092
      ESP Fit Center  721 is at   0.942891  1.531562  3.114092
      ESP Fit Center  722 is at   2.125660  2.362946  2.411323
      ESP Fit Center  723 is at   1.808099  3.340297  2.411323
      ESP Fit Center  724 is at   0.976715  3.944333  2.411323
      ESP Fit Center  725 is at   2.382891  2.362946  1.451323
      ESP Fit Center  726 is at   2.125660  3.322946  1.451323
      ESP Fit Center  727 is at   1.422891  4.025715  1.451323
      ESP Fit Center  728 is at   2.125660  2.362946  0.491323
      ESP Fit Center  729 is at   1.808099  3.340297  0.491323
      ESP Fit Center  730 is at   0.976715  3.944333  0.491323
      ESP Fit Center  731 is at   0.716586  3.091350 -0.498447
      ESP Fit Center  732 is at  -2.644356  0.771459 -0.498447
      ESP Fit Center  733 is at   0.892858  2.323476 -1.396617
      ESP Fit Center  734 is at   0.017206  2.959674 -1.396617
      ESP Fit Center  735 is at  -1.940810  2.323476 -1.396617
      ESP Fit Center  736 is at  -2.275279  1.294086 -1.396617
      ESP Fit Center  737 is at   0.447924  1.294086 -2.018170
      ESP Fit Center  738 is at  -0.038026  2.135776 -2.018170
      ESP Fit Center  739 is at  -1.009926  2.135776 -2.018170
      ESP Fit Center  740 is at  -1.495876  1.294086 -2.018170
      ESP Fit Center  741 is at  -0.523976  1.294086 -2.240000
      ESP Fit Center  742 is at  -2.339827  0.000000  0.534050
      ESP Fit Center  743 is at  -2.339827  0.000000 -0.534050
      ESP Fit Center  744 is at   0.520660  0.901810 -2.162325
      ESP Fit Center  745 is at  -2.292871 -0.471874 -0.898919
      ESP Fit Center  746 is at  -2.035640 -1.431874 -0.898919
      ESP Fit Center  747 is at  -1.332871 -2.134643 -0.898919
      ESP Fit Center  748 is at  -0.372871 -2.391874 -0.898919
      ESP Fit Center  749 is at  -1.718079  0.505477 -1.858919
      ESP Fit Center  750 is at  -2.035640 -0.471874 -1.858919
      ESP Fit Center  751 is at  -1.718079 -1.449225 -1.858919
      ESP Fit Center  752 is at  -0.886695 -2.053261 -1.858919
      ESP Fit Center  753 is at   0.107129  0.359510 -2.561688
      ESP Fit Center  754 is at  -0.852871  0.359510 -2.561688
      ESP Fit Center  755 is at  -1.332871 -0.471874 -2.561688
      ESP Fit Center  756 is at  -0.852871 -1.303258 -2.561688
      ESP Fit Center  757 is at  -0.372871 -0.471874 -2.818919
      ESP Fit Center  758 is at  -0.371200 -0.566591  2.769562
      ESP Fit Center  759 is at   0.588800 -0.566591  2.512331
      ESP Fit Center  760 is at  -1.331200 -0.566591  2.512331
      ESP Fit Center  761 is at  -0.851200 -1.397975  2.512331
      ESP Fit Center  762 is at   0.108800 -1.397975  2.512331
      ESP Fit Center  763 is at  -2.033969 -0.566591  1.809562
      ESP Fit Center  764 is at  -1.716408 -1.543942  1.809562
      ESP Fit Center  765 is at  -0.885024 -2.147978  1.809562
      ESP Fit Center  766 is at   0.142624 -2.147978  1.809562
      ESP Fit Center  767 is at  -2.291200 -0.566591  0.849562
      ESP Fit Center  768 is at  -2.033969 -1.526591  0.849562
      ESP Fit Center  769 is at  -1.331200 -2.229360  0.849562
      ESP Fit Center  770 is at  -0.371200 -2.486591  0.849562
      ESP Fit Center  771 is at   1.909478  0.416522  2.844225
      ESP Fit Center  772 is at   2.869478  0.416522  2.586994
      ESP Fit Center  773 is at   2.389478  1.247906  2.586994
      ESP Fit Center  774 is at   0.949478  0.416522  2.586994
      ESP Fit Center  775 is at   1.429478 -0.414862  2.586994
      ESP Fit Center  776 is at   2.389478 -0.414862  2.586994
      ESP Fit Center  777 is at   3.572247  0.416522  1.884225
      ESP Fit Center  778 is at   3.254686  1.393873  1.884225
      ESP Fit Center  779 is at   2.423302  1.997909  1.884225
      ESP Fit Center  780 is at   3.829478  0.416522  0.924225
      ESP Fit Center  781 is at   3.572247  1.376522  0.924225
      ESP Fit Center  782 is at   2.869478  2.079291  0.924225
      ESP Fit Center  783 is at   3.817678  0.617903 -0.809742
      ESP Fit Center  784 is at   3.560447  1.577903 -0.809742
      ESP Fit Center  785 is at   2.857678  2.280672 -0.809742
      ESP Fit Center  786 is at   1.897678  2.537903 -0.809742
      ESP Fit Center  787 is at   3.560447  0.617903 -1.769742
      ESP Fit Center  788 is at   3.242886  1.595254 -1.769742
      ESP Fit Center  789 is at   2.411502  2.199290 -1.769742
      ESP Fit Center  790 is at   1.383854  2.199290 -1.769742
      ESP Fit Center  791 is at   2.377678  1.449287 -2.472511
      ESP Fit Center  792 is at   1.417678  1.449287 -2.472511
      ESP Fit Center  793 is at   0.937678  0.617903 -2.472511
      ESP Fit Center  794 is at   1.897678  0.617903 -2.729742
      ESP Fit Center  795 is at   2.258183 -1.659279  2.685962
      ESP Fit Center  796 is at   3.329697 -1.659279  2.472825
      ESP Fit Center  797 is at   2.793940 -0.731321  2.472825
      ESP Fit Center  798 is at   1.722426 -0.731321  2.472825
      ESP Fit Center  799 is at   1.186669 -1.659279  2.472825
      ESP Fit Center  800 is at   1.722426 -2.587237  2.472825
      ESP Fit Center  801 is at   2.793940 -2.587237  2.472825
      ESP Fit Center  802 is at   4.238082 -1.659279  1.865861
      ESP Fit Center  803 is at   3.972826 -0.669330  1.865861
      ESP Fit Center  804 is at   0.543540 -2.649228  1.865861
      ESP Fit Center  805 is at   1.268234 -3.373922  1.865861
      ESP Fit Center  806 is at   2.258183 -3.639178  1.865861
      ESP Fit Center  807 is at   3.248132 -3.373922  1.865861
      ESP Fit Center  808 is at   3.972826 -2.649228  1.865861
      ESP Fit Center  809 is at   4.845046 -1.659279  0.957476
      ESP Fit Center  810 is at   4.621400 -0.607107  0.957476
      ESP Fit Center  811 is at   3.989132  0.263135  0.957476
      ESP Fit Center  812 is at   0.165367 -3.179799  0.957476
      ESP Fit Center  813 is at   0.964752 -3.899568  0.957476
      ESP Fit Center  814 is at   1.987782 -4.231971  0.957476
      ESP Fit Center  815 is at   3.057568 -4.119532  0.957476
      ESP Fit Center  816 is at   3.989132 -3.581693  0.957476
      ESP Fit Center  817 is at   4.621400 -2.711451  0.957476
      ESP Fit Center  818 is at   5.058183 -1.659279 -0.114038
      ESP Fit Center  819 is at   4.869105 -0.647802 -0.114038
      ESP Fit Center  820 is at   4.327408  0.227069 -0.114038
      ESP Fit Center  821 is at  -0.122425 -3.133289 -0.114038
      ESP Fit Center  822 is at   0.570806 -3.893727 -0.114038
      ESP Fit Center  823 is at   4.869105 -2.670756 -0.114038
      ESP Fit Center  824 is at   4.845046 -1.659279 -1.185552
      ESP Fit Center  825 is at   4.621400 -0.607107 -1.185552
      ESP Fit Center  826 is at   3.989132  0.263135 -1.185552
      ESP Fit Center  827 is at  -0.319952 -3.007290 -1.206249
      ESP Fit Center  828 is at  -0.894744 -2.029939 -2.166249
      ESP Fit Center  829 is at  -0.637513 -2.989939 -2.166249
      ESP Fit Center  830 is at   0.065256 -3.692708 -2.166249
      ESP Fit Center  831 is at   0.511432 -0.448552 -3.126249
      ESP Fit Center  832 is at  -0.319952 -1.052588 -3.126249
      ESP Fit Center  833 is at  -0.637513 -2.029939 -3.126249
      ESP Fit Center  834 is at  -0.319952 -3.007290 -3.126249
      ESP Fit Center  835 is at   0.545256 -1.198555 -3.829018
      ESP Fit Center  836 is at   0.065256 -2.029939 -3.829018
      ESP Fit Center  837 is at   4.479834 -1.236926 -2.457776
      ESP Fit Center  838 is at   4.222603 -0.276926 -2.457776
      ESP Fit Center  839 is at   3.519834  0.425843 -2.457776
      ESP Fit Center  840 is at   3.073658  0.344461 -3.417776
      ESP Fit Center  841 is at   2.046010  0.344461 -3.417776
      ESP Fit Center  842 is at   1.214626 -0.259575 -3.417776
      ESP Fit Center  843 is at   2.079834 -0.405542 -4.120545
      ESP Fit Center  844 is at   1.684839 -4.988087  0.004654
      ESP Fit Center  845 is at   2.644839 -4.988087  0.004654
      ESP Fit Center  846 is at   0.502070 -4.156703 -0.698115
      ESP Fit Center  847 is at   0.819631 -5.134054 -0.698115
      ESP Fit Center  848 is at   1.651015 -5.738090 -0.698115
      ESP Fit Center  849 is at   2.678663 -5.738090 -0.698115
      ESP Fit Center  850 is at   3.510047 -5.134054 -0.698115
      ESP Fit Center  851 is at   0.244839 -4.156703 -1.658115
      ESP Fit Center  852 is at   0.502070 -5.116703 -1.658115
      ESP Fit Center  853 is at   1.204839 -5.819472 -1.658115
      ESP Fit Center  854 is at   2.164839 -6.076703 -1.658115
      ESP Fit Center  855 is at   3.124839 -5.819472 -1.658115
      ESP Fit Center  856 is at   4.684783 -3.413416 -0.209843
      ESP Fit Center  857 is at   4.204783 -4.244800 -0.209843
      ESP Fit Center  858 is at   5.387552 -3.413416 -0.912612
      ESP Fit Center  859 is at   5.069991 -2.436065 -0.912612
      ESP Fit Center  860 is at   4.238607 -4.994803 -0.912612
      ESP Fit Center  861 is at   5.069991 -4.390767 -0.912612
      ESP Fit Center  862 is at   4.684783 -1.750647 -1.872612
      ESP Fit Center  863 is at   4.684783 -5.076185 -1.872612
      ESP Fit Center  864 is at   0.054469 -4.381970 -2.880945
      ESP Fit Center  865 is at   0.491987 -5.364651 -2.880945
      ESP Fit Center  866 is at   1.291372 -6.084420 -2.880945
      ESP Fit Center  867 is at   2.314402 -6.416823 -2.880945
      ESP Fit Center  868 is at   3.384188 -6.304384 -2.880945
      ESP Fit Center  869 is at   4.315752 -5.766545 -2.880945
      ESP Fit Center  870 is at   0.204195 -2.370121 -3.952459
      ESP Fit Center  871 is at  -0.167522 -3.329632 -3.952459
      ESP Fit Center  872 is at  -0.167522 -4.358630 -3.952459
      ESP Fit Center  873 is at   0.204195 -5.318141 -3.952459
      ESP Fit Center  874 is at   0.897426 -6.078579 -3.952459
      ESP Fit Center  875 is at   1.818547 -6.537243 -3.952459
      ESP Fit Center  876 is at   2.843154 -6.632187 -3.952459
      ESP Fit Center  877 is at   3.832870 -6.350588 -3.952459
      ESP Fit Center  878 is at   1.291372 -1.603842 -5.023973
      ESP Fit Center  879 is at   0.491987 -2.323611 -5.023973
      ESP Fit Center  880 is at   0.054469 -3.306292 -5.023973
      ESP Fit Center  881 is at   0.054469 -4.381970 -5.023973
      ESP Fit Center  882 is at   0.491987 -5.364651 -5.023973
      ESP Fit Center  883 is at   1.291372 -6.084420 -5.023973
      ESP Fit Center  884 is at   2.314402 -6.416823 -5.023973
      ESP Fit Center  885 is at   3.384188 -6.304384 -5.023973
      ESP Fit Center  886 is at   1.594854 -2.129488 -5.932358
      ESP Fit Center  887 is at   0.870160 -2.854182 -5.932358
      ESP Fit Center  888 is at   0.604904 -3.844131 -5.932358
      ESP Fit Center  889 is at   0.870160 -4.834080 -5.932358
      ESP Fit Center  890 is at   1.594854 -5.558774 -5.932358
      ESP Fit Center  891 is at   2.584803 -5.824030 -5.932358
      ESP Fit Center  892 is at   3.574752 -5.558774 -5.932358
      ESP Fit Center  893 is at   1.513289 -3.844131 -6.539322
      ESP Fit Center  894 is at   2.049046 -4.772089 -6.539322
      ESP Fit Center  895 is at   3.120560 -4.772089 -6.539322
      ESP Fit Center  896 is at   4.936244 -1.910507 -2.640467
      ESP Fit Center  897 is at   3.976244  0.009493 -4.303236
      ESP Fit Center  898 is at   3.016244 -0.247738 -4.303236
      ESP Fit Center  899 is at   4.490068 -0.329120 -5.263236
      ESP Fit Center  900 is at   3.462420 -0.329120 -5.263236
      ESP Fit Center  901 is at   2.631036 -0.933156 -5.263236
      ESP Fit Center  902 is at   4.265924 -1.275682 -6.704192
      ESP Fit Center  903 is at   3.238276 -1.275682 -6.704192
      ESP Fit Center  904 is at   2.406892 -1.879718 -6.704192
      ESP Fit Center  905 is at   2.089331 -2.857069 -6.704192
      ESP Fit Center  906 is at   3.238276 -4.438456 -6.704192
      ESP Fit Center  907 is at   4.265924 -4.438456 -6.704192
      ESP Fit Center  908 is at   4.712100 -2.857069 -7.406961
      ESP Fit Center  909 is at   4.232100 -2.025685 -7.406961
      ESP Fit Center  910 is at   3.272100 -2.025685 -7.406961
      ESP Fit Center  911 is at   2.792100 -2.857069 -7.406961
      ESP Fit Center  912 is at   3.272100 -3.688453 -7.406961
      ESP Fit Center  913 is at   4.232100 -3.688453 -7.406961
      ESP Fit Center  914 is at   3.752100 -2.857069 -7.664192
      ESP Fit Center  915 is at   6.786281 -5.429374 -3.951947
      ESP Fit Center  916 is at   6.025445 -4.576496 -1.773568
      ESP Fit Center  917 is at   5.031621 -5.326499 -2.476337
      ESP Fit Center  918 is at   6.059269 -5.326499 -2.476337
      ESP Fit Center  919 is at   6.890653 -4.722463 -2.476337
      ESP Fit Center  920 is at   4.799316 -6.162413 -3.982278
      ESP Fit Center  921 is at   5.826964 -6.162413 -3.982278
      ESP Fit Center  922 is at   6.658348 -5.558377 -3.982278
      ESP Fit Center  923 is at   4.353140 -6.243795 -4.942278
      ESP Fit Center  924 is at   5.313140 -6.501026 -4.942278
      ESP Fit Center  925 is at   6.273140 -6.243795 -4.942278
      ESP Fit Center  926 is at   6.975909 -5.541026 -4.942278
      ESP Fit Center  927 is at   3.967932 -5.558377 -5.902278
      ESP Fit Center  928 is at   4.799316 -6.162413 -5.902278
      ESP Fit Center  929 is at   5.826964 -6.162413 -5.902278
      ESP Fit Center  930 is at   6.658348 -5.558377 -5.902278
      ESP Fit Center  931 is at   4.353140 -4.581026 -6.605047
      ESP Fit Center  932 is at   4.833140 -5.412410 -6.605047
      ESP Fit Center  933 is at   5.793140 -5.412410 -6.605047
      ESP Fit Center  934 is at   5.313140 -4.581026 -6.862278
      ESP Fit Center  935 is at   7.696031 -4.427942 -3.296632
      ESP Fit Center  936 is at   7.505467 -5.173552 -4.205017
      ESP Fit Center  937 is at   8.437031 -4.635713 -4.205017
      ESP Fit Center  938 is at   9.506082 -2.713299 -5.276531
      ESP Fit Center  939 is at   9.317004 -1.701822 -5.276531
      ESP Fit Center  940 is at   7.954149 -5.219756 -5.276531
      ESP Fit Center  941 is at   8.775307 -4.599647 -5.276531
      ESP Fit Center  942 is at   9.317004 -3.724776 -5.276531
      ESP Fit Center  943 is at   9.292945 -2.713299 -6.348045
      ESP Fit Center  944 is at   9.069299 -1.661127 -6.348045
      ESP Fit Center  945 is at   6.435681 -0.140607 -6.348045
      ESP Fit Center  946 is at   5.412651 -0.473010 -6.348045
      ESP Fit Center  947 is at   4.613266 -1.192779 -6.348045
      ESP Fit Center  948 is at   6.435681 -5.285991 -6.348045
      ESP Fit Center  949 is at   7.505467 -5.173552 -6.348045
      ESP Fit Center  950 is at   8.437031 -4.635713 -6.348045
      ESP Fit Center  951 is at   9.069299 -3.765471 -6.348045
      ESP Fit Center  952 is at   8.685981 -2.713299 -7.256430
      ESP Fit Center  953 is at   8.420725 -1.723350 -7.256430
      ESP Fit Center  954 is at   7.696031 -0.998656 -7.256430
      ESP Fit Center  955 is at   6.706082 -0.733400 -7.256430
      ESP Fit Center  956 is at   5.716133 -0.998656 -7.256430
      ESP Fit Center  957 is at   4.991439 -1.723350 -7.256430
      ESP Fit Center  958 is at   4.991439 -3.703248 -7.256430
      ESP Fit Center  959 is at   5.716133 -4.427942 -7.256430
      ESP Fit Center  960 is at   6.706082 -4.693198 -7.256430
      ESP Fit Center  961 is at   7.696031 -4.427942 -7.256430
      ESP Fit Center  962 is at   8.420725 -3.703248 -7.256430
      ESP Fit Center  963 is at   7.777596 -2.713299 -7.863394
      ESP Fit Center  964 is at   7.241839 -1.785341 -7.863394
      ESP Fit Center  965 is at   6.170325 -1.785341 -7.863394
      ESP Fit Center  966 is at   5.634568 -2.713299 -7.863394
      ESP Fit Center  967 is at   6.170325 -3.641257 -7.863394
      ESP Fit Center  968 is at   7.241839 -3.641257 -7.863394
      ESP Fit Center  969 is at   6.706082 -2.713299 -8.076531
      ESP Fit Center  970 is at   7.568195  0.914407 -3.565034
      ESP Fit Center  971 is at   6.526875  0.914407 -4.633134
      ESP Fit Center  972 is at   5.818757  0.051329 -5.595460
      ESP Fit Center  973 is at   9.003259  0.310175 -3.697385
      ESP Fit Center  974 is at   8.171875  0.914211 -3.697385
      ESP Fit Center  975 is at   9.578051 -0.667176 -4.657385
      ESP Fit Center  976 is at   9.320820  0.292824 -4.657385
      ESP Fit Center  977 is at   8.618051  0.995593 -4.657385
      ESP Fit Center  978 is at   7.658051  1.252824 -4.657385
      ESP Fit Center  979 is at   6.698051  0.995593 -4.657385
      ESP Fit Center  980 is at   9.320820 -0.667176 -5.617385
      ESP Fit Center  981 is at   9.003259  0.310175 -5.617385
      ESP Fit Center  982 is at   8.171875  0.914211 -5.617385
      ESP Fit Center  983 is at   7.144227  0.914211 -5.617385
      ESP Fit Center  984 is at   8.618051 -0.667176 -6.320154
      ESP Fit Center  985 is at   8.138051  0.164208 -6.320154
      ESP Fit Center  986 is at   7.178051  0.164208 -6.320154
      ESP Fit Center  987 is at   5.644397 -0.020514 -2.198198
      ESP Fit Center  988 is at   5.164397 -0.851898 -2.198198
      ESP Fit Center  989 is at   6.638221  0.729489 -2.900967
      ESP Fit Center  990 is at   5.610573  0.729489 -2.900967
      ESP Fit Center  991 is at   4.779189  0.125453 -2.900967
      ESP Fit Center  992 is at   6.124397  1.068102 -3.860967
      ESP Fit Center  993 is at   5.164397  0.810871 -3.860967
      ESP Fit Center  994 is at   4.461628  0.108102 -3.860967
      ESP Fit Center  995 is at   5.610573  0.729489 -4.820967
      ESP Fit Center  996 is at   4.779189  0.125453 -4.820967
      ESP Fit Center  997 is at   5.644397 -0.020514 -5.523736
      ESP Fit Center  998 is at   7.774952 -1.796324 -0.428362
      ESP Fit Center  999 is at   8.816273 -1.796324 -0.666037
      ESP Fit Center 1000 is at   8.295612 -2.698134 -0.666037
      ESP Fit Center 1001 is at   9.651348 -1.796324 -1.331986
      ESP Fit Center 1002 is at   5.974564 -1.267682 -1.331986
      ESP Fit Center 1003 is at   8.554435 -3.503153 -1.331986
      ESP Fit Center 1004 is at   9.353476 -2.810780 -1.331986
      ESP Fit Center 1005 is at   8.295612 -4.077487 -2.294312
      ESP Fit Center 1006 is at   9.233810  0.033026 -3.362412
      ESP Fit Center 1007 is at   7.974359 -0.930206 -0.283652
      ESP Fit Center 1008 is at   8.934359 -0.930206 -0.540883
      ESP Fit Center 1009 is at   8.454359 -0.098822 -0.540883
      ESP Fit Center 1010 is at   7.494359 -0.098822 -0.540883
      ESP Fit Center 1011 is at   7.014359 -0.930206 -0.540883
      ESP Fit Center 1012 is at   9.637128 -0.930206 -1.243652
      ESP Fit Center 1013 is at   9.319567  0.047145 -1.243652
      ESP Fit Center 1014 is at   8.488183  0.651181 -1.243652
      ESP Fit Center 1015 is at   7.460535  0.651181 -1.243652
      ESP Fit Center 1016 is at   6.629151  0.047145 -1.243652
      ESP Fit Center 1017 is at   9.637128  0.029794 -2.203652
      ESP Fit Center 1018 is at   8.934359  0.732563 -2.203652
      ESP Fit Center 1019 is at   7.974359  0.989794 -2.203652
      ESP Fit Center 1020 is at   7.014359  0.732563 -2.203652
      ESP Fit Center 1021 is at   9.319567  0.047145 -3.163652
      ESP Fit Center 1022 is at   8.488183  0.651181 -3.163652
      ESP Fit Center 1023 is at   7.187162 -2.494297 -0.322476
      ESP Fit Center 1024 is at   6.707162 -1.662913 -0.579707
      ESP Fit Center 1025 is at   6.227162 -2.494297 -0.579707
      ESP Fit Center 1026 is at   6.707162 -3.325681 -0.579707
      ESP Fit Center 1027 is at   7.667162 -3.325681 -0.579707
      ESP Fit Center 1028 is at   5.841954 -1.516946 -1.282476
      ESP Fit Center 1029 is at   5.524393 -2.494297 -1.282476
      ESP Fit Center 1030 is at   5.841954 -3.471648 -1.282476
      ESP Fit Center 1031 is at   6.673338 -4.075684 -1.282476
      ESP Fit Center 1032 is at   7.700986 -4.075684 -1.282476
      ESP Fit Center 1033 is at   8.532370 -3.471648 -1.282476
      ESP Fit Center 1034 is at   7.187162 -4.414297 -2.242476
      ESP Fit Center 1035 is at   8.147162 -4.157066 -2.242476
      ESP Fit Center 1036 is at   9.679403 -2.271340 -1.403403
      ESP Fit Center 1037 is at   9.199403 -3.102724 -1.403403
      ESP Fit Center 1038 is at  10.382172 -2.271340 -2.106172
      ESP Fit Center 1039 is at  10.064611 -1.293989 -2.106172
      ESP Fit Center 1040 is at   9.233227 -3.852727 -2.106172
      ESP Fit Center 1041 is at  10.064611 -3.248691 -2.106172
      ESP Fit Center 1042 is at  10.639403 -2.271340 -3.066172
      ESP Fit Center 1043 is at  10.382172 -1.311340 -3.066172
      ESP Fit Center 1044 is at   8.719403 -4.191340 -3.066172
      ESP Fit Center 1045 is at   9.679403 -3.934109 -3.066172
      ESP Fit Center 1046 is at  10.382172 -3.231340 -3.066172
      ESP Fit Center 1047 is at  10.382172 -2.271340 -4.026172
      ESP Fit Center 1048 is at  10.064611 -1.293989 -4.026172
[...]
 1371 Fit       0.009412
 1372 Fit       0.009466
 1373 Fit      -0.000138
 1374 Fit       0.000866
 1375 Fit       0.001618
 1376 Fit       0.003504
 1377 Fit       0.003702
 1378 Fit       0.003479
 1379 Fit       0.004339
 1380 Fit       0.003579
 1381 Fit       0.002297
 1382 Fit       0.000501
 1383 Fit       0.000488
 1384 Fit       0.002596
 1385 Fit       0.011998
 1386 Fit       0.005702
 1387 Fit       0.006321
 1388 Fit       0.010143
 1389 Fit       0.016444
 1390 Fit       0.008692
 1391 Fit       0.003840
 1392 Fit       0.001404
 1393 Fit      -0.000257
 1394 Fit      -0.003648
 1395 Fit      -0.007022
 1396 Fit      -0.006965
 1397 Fit      -0.000959
 1398 Fit      -0.006358
 1399 Fit      -0.007243
 1400 Fit      -0.008213
 1401 Fit      -0.010628
 1402 Fit      -0.013531
 1403 Fit      -0.014463
 1404 Fit      -0.010944
 1405 Fit      -0.003566
 1406 Fit      -0.009715
 1407 Fit      -0.013102
 1408 Fit      -0.013989
 1409 Fit      -0.013539
 1410 Fit      -0.013624
 1411 Fit      -0.014993
 1412 Fit      -0.016573
 1413 Fit      -0.015932
 1414 Fit      -0.010081
 1415 Fit      -0.004225
 1416 Fit      -0.011769
 1417 Fit      -0.015658
 1418 Fit      -0.016355
 1419 Fit      -0.015577
 1420 Fit      -0.015083
 1421 Fit      -0.015168
 1422 Fit      -0.014162
 1423 Fit      -0.008983
 1424 Fit      -0.004675
 1425 Fit      -0.011140
 1426 Fit      -0.013217
 1427 Fit      -0.012715
 1428 Fit      -0.011426
 1429 Fit      -0.008650
 1430 Fit      -0.001685
 1431 Fit      -0.005989
 1432 Fit      -0.005029
 1433 Fit       0.001522
 1434 Fit       0.003515
 1435 Fit       0.018144
 1436 Fit       0.016540
 1437 Fit       0.009342
 1438 Fit       0.007402
 1439 Fit       0.002081
 1440 Fit       0.002734
 1441 Fit       0.000006
 1442 Fit      -0.003620
 1443 Fit       0.002547
 1444 Fit       0.003258
 1445 Fit       0.003704
 1446 Fit       0.002091
 1447 Fit       0.001819
 1448 Fit       0.000197
 1449 Fit       0.011954
 1450 Fit       0.004642
 1451 Fit       0.005990
 1452 Fit       0.006234
 1453 Fit      -0.002466
 1454 Fit       0.001029
 1455 Fit      -0.003276
 1456 Fit       0.001109
 1457 Fit       0.000240
 1458 Fit      -0.000870
 1459 Fit       0.001940
 1460 Fit       0.001607
 1461 Fit       0.003420
 1462 Fit       0.001466
 1463 Fit      -0.007390
 1464 Fit      -0.011234
 1465 Fit      -0.005707
 1466 Fit      -0.013957
 1467 Fit      -0.016747
 1468 Fit      -0.012875
 1469 Fit      -0.009530
 1470 Fit      -0.001116
 1471 Fit       0.000969
 1472 Fit      -0.006873
 1473 Fit      -0.015227
 1474 Fit      -0.018609
 1475 Fit      -0.016266
 1476 Fit      -0.012336
 1477 Fit      -0.006085
 1478 Fit      -0.001334
 1479 Fit      -0.001066
 1480 Fit      -0.005243
 1481 Fit      -0.008728
 1482 Fit      -0.008250
 1483 Fit      -0.004865
 1484 Fit      -0.012768
 1485 Fit      -0.017407
 1486 Fit      -0.017021
 1487 Fit      -0.014489
 1488 Fit      -0.011140
 1489 Fit      -0.010407
 1490 Fit      -0.013002
 1491 Fit      -0.015008
 1492 Fit      -0.012252
 1493 Fit      -0.005643
 1494 Fit      -0.003280
 1495 Fit      -0.004663
 1496 Fit      -0.009132
 1497 Fit      -0.014450
 1498 Fit      -0.016573
 1499 Fit      -0.016172
 1500 Fit      -0.016009
 1501 Fit      -0.017092
 1502 Fit      -0.013940
 1503 Fit      -0.012181
 1504 Fit      -0.015138
 1505 Fit      -0.016526
 1506 Fit       0.012081
 1507 Fit       0.010540
 1508 Fit       0.011393
 1509 Fit       0.007529
 1510 Fit       0.009326
 1511 Fit       0.010172
 1512 Fit       0.009995
 1513 Fit       0.009445
 1514 Fit       0.005498
 1515 Fit       0.007958
 1516 Fit       0.008468
 1517 Fit       0.007323
 1518 Fit       0.004805
 1519 Fit       0.004460
 1520 Fit       0.000694
 1521 Fit       0.013053
 1522 Fit       0.014984
 1523 Fit       0.013328
 1524 Fit       0.016882
 1525 Fit       0.011121
 1526 Fit       0.013026
 1527 Fit       0.017542
 1528 Fit       0.008717
 1529 Fit       0.010864
 1530 Fit       0.003386
 1531 Fit       0.003359
 1532 Fit       0.003205
 1533 Fit       0.003094
 1534 Fit       0.004310
 1535 Fit       0.002849
 1536 Fit       0.002374
 1537 Fit       0.004808
 1538 Fit      -0.001158
 1539 Fit       0.006554
 1540 Fit       0.004703
 1541 Fit       0.004928
 1542 Fit       0.007001
 1543 Fit       0.006706
 1544 Fit       0.003929
 1545 Fit       0.004466
 1546 Fit       0.006785
 1547 Fit       0.008691
 1548 Fit       0.009489
 1549 Fit       0.008934
 1550 Fit       0.006874
 1551 Fit       0.006411
 1552 Fit       0.008753
 1553 Fit       0.010389
 1554 Fit       0.011469
 1555 Fit       0.011101
 1556 Fit       0.003968
 1557 Fit       0.003232
 1558 Fit       0.004782
 1559 Fit       0.007017
 1560 Fit       0.004612
 1561 Fit       0.008203
 1562 Fit       0.014750
 1563 Fit       0.008596
 1564 Fit       0.004175
 1565 Fit       0.004506
 1566 Fit       0.003543
 1567 Fit       0.003836
 1568 Fit       0.001111
 1569 Fit       0.002669
 1570 Fit       0.003679
 1571 Fit       0.004448
 1572 Fit      -0.004291
 1573 Fit      -0.000749
 1574 Fit       0.002106
 1575 Fit       0.002156
 1576 Fit       0.004914
 1577 Fit      -0.009613
 1578 Fit      -0.001867
 1579 Fit       0.000201
 1580 Fit      -0.001100
 1581 Fit      -0.001150
 1582 Fit       0.001913
 1583 Fit      -0.000181
 1584 Fit      -0.001893
 1585 Fit      -0.002998
 1586 Fit       0.004551
 1587 Fit      -0.000191
 1588 Fit      -0.004915
 1589 Fit       0.001707
 1590 Fit      -0.009182
 1591 Fit       0.002170
 1592 Fit      -0.020430
 1593 Fit      -0.000808
 1594 Fit      -0.001959
 1595 Fit      -0.003941
 1596 Fit       0.000014
 1597 Fit      -0.000861
 1598 Fit      -0.002417
 1599 Fit      -0.004992
 1600 Fit      -0.008467
 1601 Fit      -0.000250
 1602 Fit      -0.001767
 1603 Fit      -0.004101
 1604 Fit      -0.007929
 1605 Fit      -0.013820
 1606 Fit      -0.000674
 1607 Fit      -0.003740
 1608 Fit      -0.007700
 1609 Fit      -0.014861
 1610 Fit       0.000327
 1611 Fit      -0.001113
 1612 Fit       0.000359
 1613 Fit       0.001641
 1614 Fit      -0.004053
 1615 Fit      -0.003025
 1616 Fit      -0.001353
 1617 Fit      -0.001714
 1618 Fit       0.000966
 1619 Fit      -0.007499
 1620 Fit      -0.006210
 1621 Fit      -0.004184
 1622 Fit      -0.009909
 1623 Fit      -0.015560
 1624 Fit      -0.015140
 1625 Fit      -0.013479
 1626 Fit       0.002223
 1627 Fit       0.001496
 1628 Fit       0.003717
 1629 Fit       0.004218
 1630 Fit       0.002621
 1631 Fit       0.000459
 1632 Fit       0.003473
 1633 Fit       0.005379
 1634 Fit       0.005965
 1635 Fit       0.005300
 1636 Fit       0.003619
 1637 Fit       0.001381
 1638 Fit       0.007584
 1639 Fit       0.007337
 1640 Fit       0.006267
 1641 Fit       0.004460
 1642 Fit       0.002151
 1643 Fit       0.007432
 1644 Fit       0.004989
 1645 Fit       0.009312
 1646 Fit       0.008954
 1647 Fit       0.009315
 1648 Fit       0.012379
 1649 Fit       0.007951
 1650 Fit       0.008855
 1651 Fit       0.007660
 1652 Fit       0.006190
 1653 Fit       0.004132
 1654 Fit       0.009223
 1655 Fit       0.007867
 1656 Fit       0.006294
 1657 Fit       0.004058
 1658 Fit       0.000714
 1659 Fit       0.010908
 1660 Fit       0.008468
 1661 Fit       0.006020
 1662 Fit       0.002487
 1663 Fit      -0.003951
 1664 Fit       0.006724
 1665 Fit       0.004272
 1666 Fit       0.007548
 1667 Fit       0.008614
 1668 Fit       0.008874
 1669 Fit       0.004789
 1670 Fit       0.009848
 1671 Fit       0.010726
 1672 Fit       0.010253
 1673 Fit       0.009684
 1674 Fit       0.012325
 1675 Fit       0.010843
 1676 Fit      -0.024604
 1677 Fit      -0.027541
 1678 Fit      -0.029180
 1679 Fit      -0.019826
 1680 Fit      -0.024555
 1681 Fit      -0.027919
 1682 Fit      -0.031673
 1683 Fit      -0.007715
 1684 Fit      -0.014461
 1685 Fit      -0.019110
 1686 Fit      -0.022303
 1687 Fit      -0.001655
 1688 Fit      -0.007603
 1689 Fit       0.000600
 1690 Fit       0.002175
 1691 Fit       0.007654
 1692 Fit       0.004515
 1693 Fit       0.004108
 1694 Fit       0.012203
 1695 Fit       0.011499
 1696 Fit       0.009679
 1697 Fit       0.007617
 1698 Fit       0.004591
 1699 Fit       0.000347
 1700 Fit       0.010918
 1701 Fit       0.008830
 1702 Fit       0.006473
 1703 Fit       0.003528
 1704 Fit       0.008532
 1705 Fit       0.005852
 1706 Fit      -0.016807
 1707 Fit      -0.018482
 1708 Fit      -0.022035
 1709 Fit      -0.005140
 1710 Fit      -0.007511
 1711 Fit      -0.009725
 1712 Fit      -0.013622
 1713 Fit      -0.023257
 1714 Fit      -0.000434
 1715 Fit      -0.002884
 1716 Fit      -0.005512
 1717 Fit      -0.010245
 1718 Fit      -0.019232
 1719 Fit      -0.004827
 1720 Fit       0.001895
 1721 Fit      -0.001230
 1722 Fit      -0.004838
 1723 Fit       0.000594
 1724 Fit       0.014268
 1725 Fit       0.011075
 1726 Fit       0.011304
 1727 Fit       0.012369
 1728 Fit       0.010044
 1729 Fit       0.010041
 1730 Fit       0.010850
 1731 Fit       0.012256
 1732 Fit       0.008288
 1733 Fit       0.009156
 1734 Fit       0.009931
 1735 Fit       0.010247
 1736 Fit       0.001357
 1737 Fit       0.005962
 1738 Fit       0.007318
 1739 Fit       0.006359
 1740 Fit       0.001784
 1741 Fit      -0.003169
 1742 Fit       0.003646
 1743 Fit       0.010494
 1744 Fit       0.011619
 1745 Fit       0.012407
 1746 Fit       0.012070
 1747 Fit       0.011687
 1748 Fit       0.012255
 1749 Fit       0.013353
 1750 Fit       0.011761
 1751 Fit       0.011418
 1752 Fit       0.012152
 1753 Fit      -0.010179
 1754 Fit      -0.027490
 1755 Fit      -0.029339
 1756 Fit      -0.027761
 1757 Fit      -0.018085
 1758 Fit      -0.003802
 1759 Fit       0.012921
 1760 Fit       0.011247
 1761 Fit       0.007118
 1762 Fit       0.010313
 1763 Fit       0.009892
 1764 Fit       0.008596
 1765 Fit       0.003692
 1766 Fit       0.001251
 1767 Fit       0.007995
 1768 Fit       0.013491
 1769 Fit       0.011907
 1770 Fit       0.011049
 1771 Fit       0.010874
 1772 Fit       0.013467
 1773 Fit       0.011813
 1774 Fit       0.011280
 1775 Fit       0.011862
 1776 Fit       0.011253
 1777 Fit       0.008248
 1778 Fit       0.008878
 1779 Fit       0.009227
 1780 Fit       0.010040
 1781 Fit      -0.001351
 1782 Fit       0.004790
 1783 Fit       0.006731
 1784 Fit       0.007708
 1785 Fit      -0.004328
 1786 Fit       0.002555
 1787 Fit       0.003521
 1788 Fit      -0.004244
 1789 Fit       0.010144
 1790 Fit       0.010816
 1791 Fit       0.011225
 1792 Fit       0.006501
 1793 Fit       0.004211
 1794 Fit       0.008177
 1795 Fit       0.003255
 1796 Fit      -0.003220
 1797 Fit       0.000176
 1798 Fit       0.005119
 1799 Fit      -0.016590
 1800 Fit      -0.006410
 1801 Fit       0.001016
 1802 Fit       0.005624
 1803 Fit       0.009404
 1804 Fit      -0.010044
 1805 Fit       0.011905
 1806 Fit       0.012603
 1807 Fit       0.012915
 1808 Fit       0.012431
 1809 Fit       0.013344
 1810 Fit       0.012254
 1811 Fit       0.012398
 1812 Fit       0.014039
 1813 Fit       0.011128
 1814 Fit       0.011061
 1815 Fit       0.008059
 1816 Fit       0.008231
 1817 Fit      -0.000992
 1818 Fit      -0.025953
 1819 Fit      -0.007957
 1820 Fit      -0.018884
 1821 Fit      -0.020612
 1822 Fit      -0.010446
 1823 Fit      -0.015274
 1824 Fit      -0.015381
 1825 Fit      -0.009441
 1826 Fit      -0.019490
 1827 Fit      -0.015819
 1828 Fit      -0.006475
 1829 Fit       0.002389
 1830 Fit      -0.011091
 1831 Fit      -0.004017
 1832 Fit       0.000424
 1833 Fit      -0.008632
 1834 Fit      -0.002391
 1835 Fit       0.002541
 1836 Fit       0.002822
 1837 Fit      -0.003359
 1838 Fit      -0.000610
 1839 Fit       0.007834
 1840 Fit      -0.000051
 1841 Fit       0.001243
 1842 Fit      -0.007070
 1843 Fit      -0.003459
 1844 Fit      -0.003984
 1845 Fit      -0.017661
 1846 Fit      -0.008289
 1847 Fit      -0.004703
 1848 Fit      -0.006338
 1849 Fit      -0.004061
 1850 Fit       0.008735
 1851 Fit       0.010777
 1852 Fit       0.010676
 1853 Fit       0.008718
 1854 Fit       0.012530
 1855 Fit       0.007985
 1856 Fit       0.005725
 1857 Fit       0.010085
 1858 Fit       0.013939
 1859 Fit       0.007543
 1860 Fit       0.011117
 1861 Fit       0.009148
 1862 Fit       0.008265
 1863 Fit       0.010257
 1864 Fit       0.009619
 1865 Fit       0.006902
 1866 Fit      -0.000871
 1867 Fit       0.012893
 1868 Fit       0.009334
 1869 Fit       0.003533
 1870 Fit       0.011615
 1871 Fit       0.005986
 1872 Fit       0.006997
 1873 Fit      -0.001944
 1874 Fit      -0.003592
 1875 Fit       0.002959
 1876 Fit       0.005376
 1877 Fit      -0.001136
 1878 Fit      -0.006778
 1879 Fit      -0.006898
 1880 Fit      -0.005853
 1881 Fit      -0.000966
 1882 Fit      -0.007578
 1883 Fit      -0.010420
 1884 Fit      -0.010164
 1885 Fit      -0.009090
 1886 Fit      -0.008014
 1887 Fit      -0.007494
 1888 Fit      -0.004277
 1889 Fit       0.002223
 1890 Fit      -0.007460
 1891 Fit      -0.011280
 1892 Fit      -0.011197
 1893 Fit      -0.009609
 1894 Fit      -0.008333
 1895 Fit      -0.007997
 1896 Fit      -0.008191
 1897 Fit      -0.006811
 1898 Fit      -0.005381
 1899 Fit      -0.001093
 1900 Fit      -0.008543
 1901 Fit      -0.009836
 1902 Fit      -0.008107
 1903 Fit      -0.005647
 1904 Fit      -0.004307
 1905 Fit      -0.003898
 1906 Fit      -0.004432
 1907 Fit      -0.005890
 1908 Fit      -0.002212
 1909 Fit      -0.002611
 1910 Fit      -0.000250
 1911 Fit       0.004027
 1912 Fit      -0.004518
 1913 Fit      -0.004993
 1914 Fit       0.000964
 1915 Fit       0.004899
 1916 Fit       0.005995
 1917 Fit       0.006503
 1918 Fit       0.002150
 1919 Fit       0.002701
 1920 Fit       0.002993
 1921 Fit       0.003292
 1922 Fit       0.001057
 1923 Fit       0.002628
 1924 Fit       0.000584
 1925 Fit      -0.003166
 1926 Fit       0.018156
 1927 Fit       0.015679
 1928 Fit       0.016487
 1929 Fit       0.011587
 1930 Fit       0.007123
 1931 Fit       0.007547
 1932 Fit       0.001404
 1933 Fit      -0.002865
 1934 Fit      -0.001844
 1935 Fit       0.000950
 1936 Fit       0.001739
 1937 Fit       0.001936
 1938 Fit       0.001959
 1939 Fit       0.001955
 1940 Fit       0.002002
 1941 Fit       0.001504
 1942 Fit       0.000992
 1943 Fit       0.006758
 1944 Fit       0.004262
 1945 Fit       0.006516
 1946 Fit       0.007557
 1947 Fit      -0.000796
 1948 Fit      -0.003083
 1949 Fit      -0.002919
 1950 Fit       0.001664
 1951 Fit      -0.003052
 1952 Fit      -0.004125
 1953 Fit      -0.005362
 1954 Fit      -0.007296
 1955 Fit      -0.009033
 1956 Fit      -0.009001
 1957 Fit      -0.005874
 1958 Fit      -0.004947
 1959 Fit      -0.007716
 1960 Fit      -0.008766
 1961 Fit      -0.009080
 1962 Fit      -0.009690
 1963 Fit      -0.010904
 1964 Fit      -0.012185
 1965 Fit      -0.012407
 1966 Fit      -0.010276
 1967 Fit      -0.001072
 1968 Fit      -0.006824
 1969 Fit      -0.010355
 1970 Fit      -0.012006
 1971 Fit      -0.012259
 1972 Fit      -0.012079
 1973 Fit      -0.012282
 1974 Fit      -0.012863
 1975 Fit      -0.012890
 1976 Fit      -0.010788
 1977 Fit      -0.002621
 1978 Fit      -0.008279
 1979 Fit      -0.011564
 1980 Fit      -0.012609
 1981 Fit      -0.012421
 1982 Fit      -0.012040
 1983 Fit      -0.011631
 1984 Fit      -0.010162
 1985 Fit      -0.005704
 1986 Fit      -0.002826
 1987 Fit      -0.007745
 1988 Fit      -0.009738
 1989 Fit      -0.009731
 1990 Fit      -0.008719
 1991 Fit      -0.006320
 1992 Fit      -0.001175
 1993 Fit      -0.004569
 1994 Fit      -0.004087
 1995 Fit       0.000593
 1996 Fit       0.004885
 1997 Fit       0.003495
 1998 Fit       0.003433
 1999 Fit       0.011761
 2000 Fit       0.009398
 2001 Fit       0.005940
 2002 Fit       0.000601
 2003 Fit       0.001644
 2004 Fit      -0.000017
 2005 Fit       0.002247
 2006 Fit      -0.003932
 2007 Fit       0.000993
 2008 Fit       0.001683
 2009 Fit       0.001848
 2010 Fit       0.000140
 2011 Fit       0.000197
 2012 Fit      -0.001712
 2013 Fit       0.001750
 2014 Fit       0.010526
 2015 Fit       0.005215
 2016 Fit       0.005908
 2017 Fit       0.001478
 2018 Fit      -0.002921
 2019 Fit      -0.003763
 2020 Fit      -0.000288
 2021 Fit      -0.001181
 2022 Fit      -0.001431
 2023 Fit       0.000287
 2024 Fit      -0.001694
 2025 Fit      -0.000589
 2026 Fit       0.000751
 2027 Fit       0.000003
 2028 Fit       0.001759
 2029 Fit      -0.003557
 2030 Fit      -0.006071
 2031 Fit      -0.005263
 2032 Fit      -0.009896
 2033 Fit      -0.010713
 2034 Fit      -0.005387
 2035 Fit       0.000554
 2036 Fit      -0.009220
 2037 Fit      -0.013043
 2038 Fit      -0.013541
 2039 Fit      -0.010629
 2040 Fit      -0.008504
 2041 Fit      -0.003033
 2042 Fit       0.000650
 2043 Fit      -0.001167
 2044 Fit      -0.000561
 2045 Fit      -0.007771
 2046 Fit      -0.012684
 2047 Fit      -0.014490
 2048 Fit      -0.012828
 2049 Fit      -0.010532
 2050 Fit      -0.006509
 2051 Fit      -0.003499
 2052 Fit      -0.003260
 2053 Fit      -0.005530
 2054 Fit      -0.007501
 2055 Fit      -0.006875
 2056 Fit       0.002083
 2057 Fit      -0.000768
 2058 Fit      -0.005532
 2059 Fit      -0.010600
 2060 Fit      -0.013655
 2061 Fit      -0.013491
 2062 Fit      -0.012092
 2063 Fit      -0.009953
 2064 Fit      -0.009314
 2065 Fit      -0.010610
 2066 Fit      -0.011514
 2067 Fit      -0.009567
 2068 Fit      -0.005636
 2069 Fit      -0.004275
 2070 Fit      -0.005465
 2071 Fit      -0.008503
 2072 Fit      -0.011941
 2073 Fit      -0.013349
 2074 Fit      -0.013122
 2075 Fit      -0.012812
 2076 Fit      -0.013098
 2077 Fit      -0.011081
 2078 Fit      -0.010328
 2079 Fit      -0.012427
 2080 Fit      -0.013086
 2081 Fit       0.011402
 2082 Fit       0.010092
 2083 Fit       0.008816
 2084 Fit       0.005014
 2085 Fit       0.008173
 2086 Fit       0.009146
 2087 Fit       0.009454
 2088 Fit       0.005203
 2089 Fit       0.007128
 2090 Fit       0.008046
 2091 Fit       0.008107
 2092 Fit       0.007621
 2093 Fit       0.003009
 2094 Fit       0.005487
 2095 Fit       0.006063
 2096 Fit       0.005078
 2097 Fit       0.002346
 2098 Fit       0.001982
 2099 Fit       0.010630
 2100 Fit       0.012118
 2101 Fit       0.014632
 2102 Fit       0.011901
 2103 Fit       0.015123
 2104 Fit       0.009955
 2105 Fit       0.012410
 2106 Fit       0.007370
 2107 Fit       0.002963
 2108 Fit       0.003126
 2109 Fit       0.002866
 2110 Fit       0.002998
 2111 Fit       0.001310
 2112 Fit       0.002715
 2113 Fit       0.002276
 2114 Fit       0.003071
 2115 Fit       0.007474
 2116 Fit       0.001990
 2117 Fit       0.001662
 2118 Fit       0.004198
 2119 Fit       0.000554
 2120 Fit       0.006840
 2121 Fit       0.005939
 2122 Fit       0.004028
 2123 Fit       0.004335
 2124 Fit       0.005798
 2125 Fit       0.005440
 2126 Fit       0.003131
 2127 Fit       0.004162
 2128 Fit       0.005872
 2129 Fit       0.007295
 2130 Fit       0.007862
 2131 Fit       0.007082
 2132 Fit       0.004403
 2133 Fit       0.005597
 2134 Fit       0.007332
 2135 Fit       0.008660
 2136 Fit       0.009514
 2137 Fit       0.010130
 2138 Fit       0.007986
 2139 Fit       0.009585
 2140 Fit       0.010839
 2141 Fit       0.003073
 2142 Fit       0.002549
 2143 Fit       0.004956
 2144 Fit       0.003758
 2145 Fit       0.010346
 2146 Fit       0.006665
 2147 Fit       0.003746
 2148 Fit       0.003573
 2149 Fit       0.002916
 2150 Fit       0.001270
 2151 Fit       0.002151
 2152 Fit       0.003045
 2153 Fit       0.003766
 2154 Fit      -0.001458
 2155 Fit       0.000269
 2156 Fit       0.001953
 2157 Fit       0.002398
 2158 Fit       0.003879
 2159 Fit      -0.007323
 2160 Fit      -0.002805
 2161 Fit       0.000378
 2162 Fit       0.000386
 2163 Fit       0.004012
 2164 Fit      -0.004373
 Job cpu time:       0 days  0 hours  4 minutes 40.3 seconds.
 Normal termination of Gaussian 16 at Sat Jul  8 22:18:42 2023.
