 Entering Gaussian System, Link 0=/opt/gaussian/g16_legacy/g16
 Input=IsoP_rdkit_151_gaussian.com
 Output=IsoP_rdkit_151_gaussian.log
 Initial command:
 /opt/gaussian/g16_legacy/l1.exe "/scratch-local/jramos/2643399/Gau-19022.inp" -scrdir="/scratch-local/jramos/2643399/"
 Entering Link 1 = /opt/gaussian/g16_legacy/l1.exe PID=     19024.
  
 Copyright (c) 1988,1990,1992,1993,1995,1998,2003,2009,2016,
            Gaussian, Inc.  All Rights Reserved.
  
 This is part of the Gaussian(R) 16 program.  It is based on
 the Gaussian(R) 09 system (copyright 2009, Gaussian, Inc.),
 the Gaussian(R) 03 system (copyright 2003, Gaussian, Inc.),
 the Gaussian(R) 98 system (copyright 1998, Gaussian, Inc.),
 the Gaussian(R) 94 system (copyright 1995, Gaussian, Inc.),
 the Gaussian 92(TM) system (copyright 1992, Gaussian, Inc.),
 the Gaussian 90(TM) system (copyright 1990, Gaussian, Inc.),
 the Gaussian 88(TM) system (copyright 1988, Gaussian, Inc.),
 the Gaussian 86(TM) system (copyright 1986, Carnegie Mellon
 University), and the Gaussian 82(TM) system (copyright 1983,
 Carnegie Mellon University). Gaussian is a federally registered
 trademark of Gaussian, Inc.
  
 This software contains proprietary and confidential information,
 including trade secrets, belonging to Gaussian, Inc.
  
 This software is provided under written license and may be
 used, copied, transmitted, or stored only in accord with that
 written license.
  
 The following legend is applicable only to US Government
 contracts under FAR:
  
                    RESTRICTED RIGHTS LEGEND
  
 Use, reproduction and disclosure by the US Government is
 subject to restrictions as set forth in subparagraphs (a)
 and (c) of the Commercial Computer Software - Restricted
 Rights clause in FAR 52.227-19.
  
 Gaussian, Inc.
 340 Quinnipiac St., Bldg. 40, Wallingford CT 06492
  
  
 ---------------------------------------------------------------
 Warning -- This program may not be used in any manner that
 competes with the business of Gaussian, Inc. or will provide
 assistance to any competitor of Gaussian, Inc.  The licensee
 of this program is prohibited from giving any competitor of
 Gaussian, Inc. access to this program.  By using this program,
 the user acknowledges that Gaussian, Inc. is engaged in the
 business of creating and licensing software in the field of
 computational chemistry and represents and warrants to the
 licensee that it is not a competitor of Gaussian, Inc. and that
 it will not use this program in any manner prohibited above.
 ---------------------------------------------------------------
  

 Cite this work as:
 Gaussian 16, Revision A.03,
 M. J. Frisch, G. W. Trucks, H. B. Schlegel, G. E. Scuseria, 
 M. A. Robb, J. R. Cheeseman, G. Scalmani, V. Barone, 
 G. A. Petersson, H. Nakatsuji, X. Li, M. Caricato, A. V. Marenich, 
 J. Bloino, B. G. Janesko, R. Gomperts, B. Mennucci, H. P. Hratchian, 
 J. V. Ortiz, A. F. Izmaylov, J. L. Sonnenberg, D. Williams-Young, 
 F. Ding, F. Lipparini, F. Egidi, J. Goings, B. Peng, A. Petrone, 
 T. Henderson, D. Ranasinghe, V. G. Zakrzewski, J. Gao, N. Rega, 
 G. Zheng, W. Liang, M. Hada, M. Ehara, K. Toyota, R. Fukuda, 
 J. Hasegawa, M. Ishida, T. Nakajima, Y. Honda, O. Kitao, H. Nakai, 
 T. Vreven, K. Throssell, J. A. Montgomery, Jr., J. E. Peralta, 
 F. Ogliaro, M. J. Bearpark, J. J. Heyd, E. N. Brothers, K. N. Kudin, 
 V. N. Staroverov, T. A. Keith, R. Kobayashi, J. Normand, 
 K. Raghavachari, A. P. Rendell, J. C. Burant, S. S. Iyengar, 
 J. Tomasi, M. Cossi, J. M. Millam, M. Klene, C. Adamo, R. Cammi, 
 J. W. Ochterski, R. L. Martin, K. Morokuma, O. Farkas, 
 J. B. Foresman, and D. J. Fox, Gaussian, Inc., Wallingford CT, 2016.
 
 ******************************************
 Gaussian 16:  EM64L-G16RevA.03 25-Dec-2016
                14-Jul-2021 
 ******************************************
 %chk=IsoP_rdkit_151_gaussian.chk
 %nproc=2
 Will use up to    2 processors via shared memory.
 %mem=4000Mb
 ----------
 #p opt pm3
 ----------
 1/18=20,19=15,26=1,38=1/1,3;
 2/9=110,12=2,17=6,18=5,40=1/2;
 3/5=2,25=1,41=800000,71=1/1,2,3;
 4/35=1/1;
 5/5=2,35=1,38=5/2;
 6/7=2,8=2,9=2,10=2,28=1/1;
 7//1,2,3,16;
 1/18=20,19=15,26=1/3(2);
 2/9=110/2;
 99//99;
 2/9=110/2;
 3/5=2,25=1,41=800000,71=1,135=20/1,2,3;
 4/5=5,16=3,35=1/1;
 5/5=2,35=1,38=5/2;
 7//1,2,3,16;
 1/18=20,19=15,26=1/3(-5);
 2/9=110/2;
 6/7=2,8=2,9=2,10=2,19=2,28=1/1;
 99/9=1/99;
 Leave Link    1 at Wed Jul 14 14:07:08 2021, MaxMem=   524288000 cpu:               0.1 elap:               0.1
 (Enter /opt/gaussian/g16_legacy/l101.exe)
 -------------------------------------------------
 Conformer number 151. Energy MM = 23.712 kcal/mol
 -------------------------------------------------
 Symbolic Z-matrix:
 Charge =  0 Multiplicity = 1
 C                    -0.6527   -0.411     0.6012 
 H                    -0.7502   -1.4583    0.9178 
 H                    -0.3471    0.1422    1.4991 
 C                    -1.9956    0.1209    0.1293 
 C                    -2.0724    1.6168   -0.0232 
 H                    -1.5218    1.9387   -0.9124 
 H                    -1.6338    2.1093    0.8515 
 H                    -3.0959    1.989    -0.1073 
 C                    -3.0216   -0.7258   -0.089 
 H                    -2.8591   -1.7906    0.0781 
 C                    -4.4009   -0.3989   -0.5666 
 H                    -4.5163    0.6344   -0.8991 
 H                    -5.1251   -0.5896    0.2311 
 H                    -4.6536   -1.0424   -1.4157 
 C                     4.0682   -1.0187    0.8263 
 H                     4.31     -0.819     1.8754 
 H                     4.9197   -0.7154    0.2084 
 H                     3.9451   -2.1011    0.7138 
 C                     2.8334   -0.2569    0.4206 
 C                     2.9576    1.2363    0.5491 
 H                     2.0164    1.7657    0.3838 
 H                     3.6902    1.6162   -0.1703 
 H                     3.2959    1.4998    1.5571 
 C                     1.7327   -0.9085   -0.003 
 H                     1.7548   -1.9979   -0.0367 
 C                     0.4344   -0.3095   -0.4749 
 H                     0.5694    0.7289   -0.7929 
 H                     0.1183   -0.8544   -1.3739 
 
 ITRead=  0  0  0  0  0  0  0  0  0  0  0  0  0  0  0  0  0  0  0  0
 ITRead=  0  0  0  0  0  0  0  0
 MicOpt= -1 -1 -1 -1 -1 -1 -1 -1 -1 -1 -1 -1 -1 -1 -1 -1 -1 -1 -1 -1
 MicOpt= -1 -1 -1 -1 -1 -1 -1 -1
 NAtoms=     28 NQM=       28 NQMF=       0 NMMI=      0 NMMIF=      0
                NMic=       0 NMicF=      0.
                    Isotopes and Nuclear Properties:
 (Nuclear quadrupole moments (NQMom) in fm**2, nuclear magnetic moments (NMagM)
  in nuclear magnetons)

  Atom         1           2           3           4           5           6           7           8           9          10
 IAtWgt=          12           1           1          12          12           1           1           1          12           1
 AtmWgt=  12.0000000   1.0078250   1.0078250  12.0000000  12.0000000   1.0078250   1.0078250   1.0078250  12.0000000   1.0078250
 NucSpn=           0           1           1           0           0           1           1           1           0           1
 AtZEff=  -0.0000000  -0.0000000  -0.0000000  -0.0000000  -0.0000000  -0.0000000  -0.0000000  -0.0000000  -0.0000000  -0.0000000
 NQMom=    0.0000000   0.0000000   0.0000000   0.0000000   0.0000000   0.0000000   0.0000000   0.0000000   0.0000000   0.0000000
 NMagM=    0.0000000   2.7928460   2.7928460   0.0000000   0.0000000   2.7928460   2.7928460   2.7928460   0.0000000   2.7928460
 AtZNuc=   6.0000000   1.0000000   1.0000000   6.0000000   6.0000000   1.0000000   1.0000000   1.0000000   6.0000000   1.0000000

  Atom        11          12          13          14          15          16          17          18          19          20
 IAtWgt=          12           1           1           1          12           1           1           1          12          12
 AtmWgt=  12.0000000   1.0078250   1.0078250   1.0078250  12.0000000   1.0078250   1.0078250   1.0078250  12.0000000  12.0000000
 NucSpn=           0           1           1           1           0           1           1           1           0           0
 AtZEff=  -0.0000000  -0.0000000  -0.0000000  -0.0000000  -0.0000000  -0.0000000  -0.0000000  -0.0000000  -0.0000000  -0.0000000
 NQMom=    0.0000000   0.0000000   0.0000000   0.0000000   0.0000000   0.0000000   0.0000000   0.0000000   0.0000000   0.0000000
 NMagM=    0.0000000   2.7928460   2.7928460   2.7928460   0.0000000   2.7928460   2.7928460   2.7928460   0.0000000   0.0000000
 AtZNuc=   6.0000000   1.0000000   1.0000000   1.0000000   6.0000000   1.0000000   1.0000000   1.0000000   6.0000000   6.0000000

  Atom        21          22          23          24          25          26          27          28
 IAtWgt=           1           1           1          12           1          12           1           1
 AtmWgt=   1.0078250   1.0078250   1.0078250  12.0000000   1.0078250  12.0000000   1.0078250   1.0078250
 NucSpn=           1           1           1           0           1           0           1           1
 AtZEff=  -0.0000000  -0.0000000  -0.0000000  -0.0000000  -0.0000000  -0.0000000  -0.0000000  -0.0000000
 NQMom=    0.0000000   0.0000000   0.0000000   0.0000000   0.0000000   0.0000000   0.0000000   0.0000000
 NMagM=    2.7928460   2.7928460   2.7928460   0.0000000   2.7928460   0.0000000   2.7928460   2.7928460
 AtZNuc=   1.0000000   1.0000000   1.0000000   6.0000000   1.0000000   6.0000000   1.0000000   1.0000000
 Leave Link  101 at Wed Jul 14 14:07:09 2021, MaxMem=   524288000 cpu:               0.3 elap:               0.2
 (Enter /opt/gaussian/g16_legacy/l103.exe)

 GradGradGradGradGradGradGradGradGradGradGradGradGradGradGradGradGradGrad
 Berny optimization.
 Initialization pass.
                           ----------------------------
                           !    Initial Parameters    !
                           ! (Angstroms and Degrees)  !
 --------------------------                            --------------------------
 ! Name  Definition              Value          Derivative Info.                !
 --------------------------------------------------------------------------------
 ! R1    R(1,2)                  1.0984         estimate D2E/DX2                !
 ! R2    R(1,3)                  1.098          estimate D2E/DX2                !
 ! R3    R(1,4)                  1.5195         estimate D2E/DX2                !
 ! R4    R(1,26)                 1.533          estimate D2E/DX2                !
 ! R5    R(4,5)                  1.5056         estimate D2E/DX2                !
 ! R6    R(4,9)                  1.348          estimate D2E/DX2                !
 ! R7    R(5,6)                  1.0943         estimate D2E/DX2                !
 ! R8    R(5,7)                  1.0955         estimate D2E/DX2                !
 ! R9    R(5,8)                  1.0923         estimate D2E/DX2                !
 ! R10   R(9,10)                 1.09           estimate D2E/DX2                !
 ! R11   R(9,11)                 1.4958         estimate D2E/DX2                !
 ! R12   R(11,12)                1.0916         estimate D2E/DX2                !
 ! R13   R(11,13)                1.0941         estimate D2E/DX2                !
 ! R14   R(11,14)                1.095          estimate D2E/DX2                !
 ! R15   R(15,16)                1.095          estimate D2E/DX2                !
 ! R16   R(15,17)                1.0949         estimate D2E/DX2                !
 ! R17   R(15,18)                1.0952         estimate D2E/DX2                !
 ! R18   R(15,19)                1.5065         estimate D2E/DX2                !
 ! R19   R(19,20)                1.5039         estimate D2E/DX2                !
 ! R20   R(19,24)                1.3474         estimate D2E/DX2                !
 ! R21   R(20,21)                1.0924         estimate D2E/DX2                !
 ! R22   R(20,22)                1.0948         estimate D2E/DX2                !
 ! R23   R(20,23)                1.0954         estimate D2E/DX2                !
 ! R24   R(24,25)                1.0901         estimate D2E/DX2                !
 ! R25   R(24,26)                1.5057         estimate D2E/DX2                !
 ! R26   R(26,27)                1.0944         estimate D2E/DX2                !
 ! R27   R(26,28)                1.0977         estimate D2E/DX2                !
 ! A1    A(2,1,3)              105.6266         estimate D2E/DX2                !
 ! A2    A(2,1,4)              110.1702         estimate D2E/DX2                !
 ! A3    A(2,1,26)             109.1713         estimate D2E/DX2                !
 ! A4    A(3,1,4)              108.8787         estimate D2E/DX2                !
 ! A5    A(3,1,26)             110.078          estimate D2E/DX2                !
 ! A6    A(4,1,26)             112.6766         estimate D2E/DX2                !
 ! A7    A(1,4,5)              115.1075         estimate D2E/DX2                !
 ! A8    A(1,4,9)              120.2027         estimate D2E/DX2                !
 ! A9    A(5,4,9)              124.6677         estimate D2E/DX2                !
 ! A10   A(4,5,6)              110.4204         estimate D2E/DX2                !
 ! A11   A(4,5,7)              110.2053         estimate D2E/DX2                !
 ! A12   A(4,5,8)              113.2123         estimate D2E/DX2                !
 ! A13   A(6,5,7)              108.3684         estimate D2E/DX2                !
 ! A14   A(6,5,8)              107.9787         estimate D2E/DX2                !
 ! A15   A(7,5,8)              106.4656         estimate D2E/DX2                !
 ! A16   A(4,9,10)             118.3772         estimate D2E/DX2                !
 ! A17   A(4,9,11)             128.0435         estimate D2E/DX2                !
 ! A18   A(10,9,11)            113.5723         estimate D2E/DX2                !
 ! A19   A(9,11,12)            113.679          estimate D2E/DX2                !
 ! A20   A(9,11,13)            109.8439         estimate D2E/DX2                !
 ! A21   A(9,11,14)            109.3886         estimate D2E/DX2                !
 ! A22   A(12,11,13)           108.4866         estimate D2E/DX2                !
 ! A23   A(12,11,14)           107.1999         estimate D2E/DX2                !
 ! A24   A(13,11,14)           108.07           estimate D2E/DX2                !
 ! A25   A(16,15,17)           108.5686         estimate D2E/DX2                !
 ! A26   A(16,15,18)           107.6676         estimate D2E/DX2                !
 ! A27   A(16,15,19)           110.2908         estimate D2E/DX2                !
 ! A28   A(17,15,18)           107.6511         estimate D2E/DX2                !
 ! A29   A(17,15,19)           110.2042         estimate D2E/DX2                !
 ! A30   A(18,15,19)           112.3321         estimate D2E/DX2                !
 ! A31   A(15,19,20)           114.2914         estimate D2E/DX2                !
 ! A32   A(15,19,24)           120.642          estimate D2E/DX2                !
 ! A33   A(20,19,24)           125.0639         estimate D2E/DX2                !
 ! A34   A(19,20,21)           113.3959         estimate D2E/DX2                !
 ! A35   A(19,20,22)           110.1004         estimate D2E/DX2                !
 ! A36   A(19,20,23)           110.0583         estimate D2E/DX2                !
 ! A37   A(21,20,22)           107.9951         estimate D2E/DX2                !
 ! A38   A(21,20,23)           106.7826         estimate D2E/DX2                !
 ! A39   A(22,20,23)           108.333          estimate D2E/DX2                !
 ! A40   A(19,24,25)           118.4516         estimate D2E/DX2                !
 ! A41   A(19,24,26)           127.6274         estimate D2E/DX2                !
 ! A42   A(25,24,26)           113.9128         estimate D2E/DX2                !
 ! A43   A(1,26,24)            111.415          estimate D2E/DX2                !
 ! A44   A(1,26,27)            110.7492         estimate D2E/DX2                !
 ! A45   A(1,26,28)            109.7434         estimate D2E/DX2                !
 ! A46   A(24,26,27)           111.2345         estimate D2E/DX2                !
 ! A47   A(24,26,28)           107.9081         estimate D2E/DX2                !
 ! A48   A(27,26,28)           105.578          estimate D2E/DX2                !
 ! D1    D(2,1,4,5)            166.2568         estimate D2E/DX2                !
 ! D2    D(2,1,4,9)            -12.1116         estimate D2E/DX2                !
 ! D3    D(3,1,4,5)             50.8593         estimate D2E/DX2                !
 ! D4    D(3,1,4,9)           -127.5091         estimate D2E/DX2                !
 ! D5    D(26,1,4,5)           -71.5589         estimate D2E/DX2                !
 ! D6    D(26,1,4,9)           110.0726         estimate D2E/DX2                !
 ! D7    D(2,1,26,24)          -54.3097         estimate D2E/DX2                !
 ! D8    D(2,1,26,27)         -178.6852         estimate D2E/DX2                !
 ! D9    D(2,1,26,28)           65.1417         estimate D2E/DX2                !
 ! D10   D(3,1,26,24)           61.2033         estimate D2E/DX2                !
 ! D11   D(3,1,26,27)          -63.1722         estimate D2E/DX2                !
 ! D12   D(3,1,26,28)         -179.3452         estimate D2E/DX2                !
 ! D13   D(4,1,26,24)         -177.0552         estimate D2E/DX2                !
 ! D14   D(4,1,26,27)           58.5693         estimate D2E/DX2                !
 ! D15   D(4,1,26,28)          -57.6038         estimate D2E/DX2                !
 ! D16   D(1,4,5,6)             73.7549         estimate D2E/DX2                !
 ! D17   D(1,4,5,7)            -45.9364         estimate D2E/DX2                !
 ! D18   D(1,4,5,8)           -165.0446         estimate D2E/DX2                !
 ! D19   D(9,4,5,6)           -107.9596         estimate D2E/DX2                !
 ! D20   D(9,4,5,7)            132.3491         estimate D2E/DX2                !
 ! D21   D(9,4,5,8)             13.2409         estimate D2E/DX2                !
 ! D22   D(1,4,9,10)            -0.2024         estimate D2E/DX2                !
 ! D23   D(1,4,9,11)          -179.1763         estimate D2E/DX2                !
 ! D24   D(5,4,9,10)          -178.4061         estimate D2E/DX2                !
 ! D25   D(5,4,9,11)             2.62           estimate D2E/DX2                !
 ! D26   D(4,9,11,12)            9.0504         estimate D2E/DX2                !
 ! D27   D(4,9,11,13)         -112.7088         estimate D2E/DX2                !
 ! D28   D(4,9,11,14)          128.8281         estimate D2E/DX2                !
 ! D29   D(10,9,11,12)        -169.9646         estimate D2E/DX2                !
 ! D30   D(10,9,11,13)          68.2763         estimate D2E/DX2                !
 ! D31   D(10,9,11,14)         -50.1869         estimate D2E/DX2                !
 ! D32   D(16,15,19,20)         60.2782         estimate D2E/DX2                !
 ! D33   D(16,15,19,24)       -119.1477         estimate D2E/DX2                !
 ! D34   D(17,15,19,20)        -59.5786         estimate D2E/DX2                !
 ! D35   D(17,15,19,24)        120.9955         estimate D2E/DX2                !
 ! D36   D(18,15,19,20)       -179.6099         estimate D2E/DX2                !
 ! D37   D(18,15,19,24)          0.9642         estimate D2E/DX2                !
 ! D38   D(15,19,20,21)       -172.1004         estimate D2E/DX2                !
 ! D39   D(15,19,20,22)         66.7835         estimate D2E/DX2                !
 ! D40   D(15,19,20,23)        -52.5694         estimate D2E/DX2                !
 ! D41   D(24,19,20,21)          7.2961         estimate D2E/DX2                !
 ! D42   D(24,19,20,22)       -113.82           estimate D2E/DX2                !
 ! D43   D(24,19,20,23)        126.8271         estimate D2E/DX2                !
 ! D44   D(15,19,24,25)          0.5134         estimate D2E/DX2                !
 ! D45   D(15,19,24,26)       -178.3756         estimate D2E/DX2                !
 ! D46   D(20,19,24,25)       -178.8473         estimate D2E/DX2                !
 ! D47   D(20,19,24,26)          2.2637         estimate D2E/DX2                !
 ! D48   D(19,24,26,1)        -103.1474         estimate D2E/DX2                !
 ! D49   D(19,24,26,27)         20.9545         estimate D2E/DX2                !
 ! D50   D(19,24,26,28)        136.3171         estimate D2E/DX2                !
 ! D51   D(25,24,26,1)          77.9211         estimate D2E/DX2                !
 ! D52   D(25,24,26,27)       -157.977          estimate D2E/DX2                !
 ! D53   D(25,24,26,28)        -42.6144         estimate D2E/DX2                !
 --------------------------------------------------------------------------------
 Trust Radius=3.00D-01 FncErr=1.00D-07 GrdErr=1.00D-07 EigMax=2.50D+02 EigMin=1.00D-04
 Number of steps in this run=    138 maximum allowed number of steps=    168.
 GradGradGradGradGradGradGradGradGradGradGradGradGradGradGradGradGradGrad

 Leave Link  103 at Wed Jul 14 14:07:09 2021, MaxMem=   524288000 cpu:               0.1 elap:               0.1
 (Enter /opt/gaussian/g16_legacy/l202.exe)
                          Input orientation:                          
 ---------------------------------------------------------------------
 Center     Atomic      Atomic             Coordinates (Angstroms)
 Number     Number       Type             X           Y           Z
 ---------------------------------------------------------------------
      1          6           0       -0.652700   -0.411000    0.601200
      2          1           0       -0.750200   -1.458300    0.917800
      3          1           0       -0.347100    0.142200    1.499100
      4          6           0       -1.995600    0.120900    0.129300
      5          6           0       -2.072400    1.616800   -0.023200
      6          1           0       -1.521800    1.938700   -0.912400
      7          1           0       -1.633800    2.109300    0.851500
      8          1           0       -3.095900    1.989000   -0.107300
      9          6           0       -3.021600   -0.725800   -0.089000
     10          1           0       -2.859100   -1.790600    0.078100
     11          6           0       -4.400900   -0.398900   -0.566600
     12          1           0       -4.516300    0.634400   -0.899100
     13          1           0       -5.125100   -0.589600    0.231100
     14          1           0       -4.653600   -1.042400   -1.415700
     15          6           0        4.068200   -1.018700    0.826300
     16          1           0        4.310000   -0.819000    1.875400
     17          1           0        4.919700   -0.715400    0.208400
     18          1           0        3.945100   -2.101100    0.713800
     19          6           0        2.833400   -0.256900    0.420600
     20          6           0        2.957600    1.236300    0.549100
     21          1           0        2.016400    1.765700    0.383800
     22          1           0        3.690200    1.616200   -0.170300
     23          1           0        3.295900    1.499800    1.557100
     24          6           0        1.732700   -0.908500   -0.003000
     25          1           0        1.754800   -1.997900   -0.036700
     26          6           0        0.434400   -0.309500   -0.474900
     27          1           0        0.569400    0.728900   -0.792900
     28          1           0        0.118300   -0.854400   -1.373900
 ---------------------------------------------------------------------
                    Distance matrix (angstroms):
                    1          2          3          4          5
     1  C    0.000000
     2  H    1.098444   0.000000
     3  H    1.098019   1.749857   0.000000
     4  C    1.519535   2.160237   2.143445   0.000000
     5  C    2.552919   3.477058   2.732856   1.505613   0.000000
     6  H    2.927014   3.935049   3.228415   2.148028   1.094284
     7  H    2.716085   3.675992   2.438127   2.146208   1.095457
     8  H    3.497313   4.293835   3.680638   2.180926   1.092318
     9  C    2.487401   2.590263   3.229309   1.348047   2.528455
    10  H    2.654267   2.294118   3.473485   2.098115   3.498504
    11  C    3.925927   4.080856   4.581834   2.557330   3.127338
    12  H    4.274478   4.675899   4.834858   2.770418   2.775781
    13  H    4.491240   4.512865   4.997263   3.210754   3.775162
    14  H    4.524793   4.566698   5.333412   3.287135   3.958913
    15  C    4.765172   4.839277   4.614675   6.209200   6.736058
    16  H    5.139887   5.189540   4.770124   6.610058   7.090334
    17  H    5.594515   5.762197   5.490042   6.966134   7.374433
    18  H    4.899886   4.743485   4.906330   6.369524   7.111699
    19  C    3.494175   3.812186   3.382015   4.852508   5.270160
    20  C    3.968700   4.598325   3.608406   5.094560   5.076732
    21  H    3.450997   4.281753   3.076651   4.343533   4.111703
    22  H    4.854434   5.509416   4.610788   5.886765   5.764477
    23  H    4.489582   5.052721   3.888173   5.651544   5.597292
    24  C    2.510517   2.704616   2.772335   3.870063   4.566874
    25  H    2.953172   2.734459   3.369969   4.310727   5.264380
    26  C    1.532997   2.159313   2.170588   2.540709   3.193542
    27  H    2.176331   3.074359   2.537214   2.792730   2.891351
    28  H    2.166117   2.524059   3.076351   2.771172   3.567967
                    6          7          8          9         10
     6  H    0.000000
     7  H    1.775667   0.000000
     8  H    1.768759   1.752571   0.000000
     9  C    3.166536   3.293679   2.715878   0.000000
    10  H    4.083765   4.160376   3.791546   1.090013   0.000000
    11  C    3.724670   3.994861   2.759719   1.495805   2.174768
    12  H    3.266253   3.680861   2.116465   2.177277   3.095457
    13  H    4.547930   4.456247   3.298688   2.132071   2.569157
    14  H    4.352981   4.918597   3.650716   2.126921   2.451830
    15  C    6.558765   6.503678   7.825739   7.154637   7.010215
    16  H    7.027562   6.704631   8.164761   7.590778   7.454548
    17  H    7.056441   7.165254   8.465417   7.946874   7.853837
    18  H    6.989385   6.990748   8.184058   7.146387   6.840882
    19  C    5.056216   5.073505   6.362338   5.895811   5.905430
    20  C    4.763861   4.683431   6.135331   6.325175   6.574037
    21  H    3.772124   3.696047   5.140686   5.640262   6.042452
    22  H    5.274435   5.443547   6.796624   7.109137   7.386563
    23  H    5.431510   5.017101   6.623039   6.897372   7.134297
    24  C    4.418747   4.601153   5.632208   4.758586   4.676463
    25  H    5.196131   5.398204   6.279303   4.943174   4.619981
    26  C    3.012064   3.447808   4.228623   3.502308   3.653301
    27  H    2.418887   3.076304   3.936029   3.937881   4.342941
    28  H    3.271745   4.099485   4.474403   3.395067   3.442337
                   11         12         13         14         15
    11  C    0.000000
    12  H    1.091596   0.000000
    13  H    1.094147   1.773743   0.000000
    14  H    1.094952   1.759939   1.771804   0.000000
    15  C    8.605230   8.910858   9.222535   9.005383   0.000000
    16  H    9.056469   9.365564   9.580055   9.551302   1.094969
    17  H    9.358118   9.596177  10.045613   9.715591   1.094917
    18  H    8.613514   9.037682   9.207940   8.921505   1.095171
    19  C    7.302727   7.520247   7.967705   7.748818   1.506540
    20  C    7.620117   7.636671   8.292471   8.184331   2.528892
    21  H    6.838896   6.752914   7.521421   7.457381   3.486915
    22  H    8.347669   8.297091   9.095944   8.845235   2.842322
    23  H    8.207064   8.234823   8.777079   8.859733   2.733744
    24  C    6.180484   6.498733   6.869201   6.542055   2.480815
    25  H    6.382025   6.855613   7.027663   6.624365   2.656204
    26  C    4.836996   5.057699   5.611144   5.225896   3.924358
    27  H    5.101669   5.087686   5.934168   5.550235   4.232909
    28  H    4.613283   4.890959   5.489935   4.775785   4.524332
                   16         17         18         19         20
    16  H    0.000000
    17  H    1.778020   0.000000
    18  H    1.768120   1.767891   0.000000
    19  C    2.147731   2.146602   2.173227   0.000000
    20  C    2.795052   2.788377   3.484325   1.503856   0.000000
    21  H    3.763794   3.823058   4.333697   2.181686   1.092449
    22  H    3.240253   2.662976   3.829481   2.142842   1.094789
    23  H    2.550793   3.059874   3.754876   2.142786   1.095419
    24  C    3.190434   3.199835   2.613582   1.347427   2.530882
    25  H    3.402202   3.423664   2.317610   2.098471   3.499991
    26  C    4.561116   4.555170   4.116777   2.561228   3.131232
    27  H    4.848495   4.691877   4.655577   2.751378   2.786022
    28  H    5.303730   5.057315   4.533999   3.308928   4.016289
                   21         22         23         24         25
    21  H    0.000000
    22  H    1.769459   0.000000
    23  H    1.756262   1.775650   0.000000
    24  C    2.716882   3.199048   3.267631   0.000000
    25  H    3.796043   4.101870   4.141146   1.090145   0.000000
    26  C    2.747098   3.794909   3.948515   1.505680   2.187732
    27  H    2.133866   3.303684   3.681112   2.158307   3.067972
    28  H    3.682013   4.506771   4.922414   2.118627   2.402879
                   26         27         28
    26  C    0.000000
    27  H    1.094360   0.000000
    28  H    1.097741   1.745821   0.000000
 Stoichiometry    C10H18
 Framework group  C1[X(C10H18)]
 Deg. of freedom    78
 Full point group                 C1      NOp   1
 Largest Abelian subgroup         C1      NOp   1
 Largest concise Abelian subgroup C1      NOp   1
                         Standard orientation:                         
 ---------------------------------------------------------------------
 Center     Atomic      Atomic             Coordinates (Angstroms)
 Number     Number       Type             X           Y           Z
 ---------------------------------------------------------------------
      1          6           0        0.572426   -0.345427   -0.548638
      2          1           0        0.594713   -1.382772   -0.909192
      3          1           0        0.180039    0.249632   -1.383852
      4          6           0        1.980051    0.127663   -0.226511
      5          6           0        2.126406    1.613877   -0.035152
      6          1           0        1.698597    1.919212    0.924643
      7          1           0        1.602770    2.151483   -0.833156
      8          1           0        3.164837    1.951488   -0.064095
      9          6           0        2.994979   -0.757271   -0.162912
     10          1           0        2.776757   -1.809739   -0.344070
     11          6           0        4.432310   -0.490262    0.153661
     12          1           0        4.622673    0.526052    0.503592
     13          1           0        5.047928   -0.673199   -0.732176
     14          1           0        4.763203   -1.172107    0.943924
     15          6           0       -4.159321   -0.800881   -0.216974
     16          1           0       -4.518889   -0.555258   -1.221632
     17          1           0       -4.919031   -0.494958    0.509727
     18          1           0       -4.061073   -1.889939   -0.156138
     19          6           0       -2.858974   -0.092426    0.060247
     20          6           0       -2.946029    1.407587   -0.002752
     21          1           0       -1.974010    1.901710    0.064074
     22          1           0       -3.572882    1.782659    0.812686
     23          1           0       -3.394167    1.718344   -0.952776
     24          6           0       -1.738413   -0.792345    0.324852
     25          1           0       -1.793967   -1.881074    0.324974
     26          6           0       -0.372714   -0.250879    0.654629
     27          1           0       -0.432343    0.778662    1.020845
     28          1           0        0.030511   -0.838007    1.489929
 ---------------------------------------------------------------------
 Rotational constants (GHZ):           3.4680869           0.4559483           0.4195295
 Leave Link  202 at Wed Jul 14 14:07:09 2021, MaxMem=   524288000 cpu:               0.1 elap:               0.1
 (Enter /opt/gaussian/g16_legacy/l301.exe)
 Standard basis: VSTO-6G (5D, 7F)
 Ernie: Thresh=  0.10000D-02 Tol=  0.10000D-05 Strict=F.
  NNHCO=     0 NNPyr=     0 NCTC=     0               EPep=         0.000000000
    EC=       244.065900948  ECS=         3.522696782   EG=         0.892035833
   EHC=         0.000000000  EAt=       -49.524085099  AtH=         4.217842293
 EPDDG=         0.000000000  ECC=       248.480633563 EAtT=        53.741927392
 There are    58 symmetry adapted cartesian basis functions of A   symmetry.
 There are    58 symmetry adapted basis functions of A   symmetry.
    58 basis functions,   348 primitive gaussians,    58 cartesian basis functions
    29 alpha electrons       29 beta electrons
       nuclear repulsion energy       302.2225609553 Hartrees.
 IExCor=    0 DFT=F Ex=HF Corr=None ExCW=0 ScaHFX=  1.000000
 ScaDFX=  1.000000  1.000000  1.000000  1.000000 ScalE2=  1.000000  1.000000
 IRadAn=      5 IRanWt=     -1 IRanGd=            0 ICorTp=0 IEmpDi=  4
 Integral buffers will be    131072 words long.
 Regular integral format.
 Two-electron integral symmetry is turned off.
 Leave Link  301 at Wed Jul 14 14:07:10 2021, MaxMem=   524288000 cpu:               0.1 elap:               0.2
 (Enter /opt/gaussian/g16_legacy/l302.exe)
 Do NDO integrals.
 NPDir=0 NMtPBC=     1 NCelOv=     1 NCel=       1 NClECP=     1 NCelD=      1
         NCelK=      1 NCelE2=     1 NClLst=     1 CellRange=     0.0.
 One-electron integrals computed using PRISM.
 NBasis=    58 RedAO= F EigKep=  0.00D+00  NBF=    58
 NBsUse=    58 1.00D-04 EigRej=  0.00D+00 NBFU=    58
 Leave Link  302 at Wed Jul 14 14:07:10 2021, MaxMem=   524288000 cpu:               0.3 elap:               0.3
 (Enter /opt/gaussian/g16_legacy/l303.exe)
 DipDrv:  MaxL=1.
 Leave Link  303 at Wed Jul 14 14:07:10 2021, MaxMem=   524288000 cpu:               0.1 elap:               0.1
 (Enter /opt/gaussian/g16_legacy/l401.exe)
 Simple Huckel Guess.
 JPrj=0 DoOrth=F DoCkMO=F.
 Leave Link  401 at Wed Jul 14 14:07:11 2021, MaxMem=   524288000 cpu:               0.3 elap:               0.4
 (Enter /opt/gaussian/g16_legacy/l502.exe)
 Keep J ints in memory in canonical form, NReq=866866.
 FoFCou: FMM=F IPFlag=           0 FMFlag=           0 FMFlg1=           0
         NFxFlg=           0 DoJE=F BraDBF=F KetDBF=F FulRan=T
         wScrn=  0.000000 ICntrl=       600 IOpCl=  2 I1Cent=           0 NGrid=           0
         NMat0=    1 NMatS0=    118 NMatT0=    0 NMatD0=    1 NMtDS0=    0 NMtDT0=    0
 Symmetry not used in FoFCou.
 Two-electron integral symmetry not used.
 Closed shell SCF:
 Using DIIS extrapolation, IDIIS=  1040.
 Overlap will be assumed to be unity.
 NGot=   524288000 LenX=   524213697 LenY=   524209892
 Requested convergence on RMS density matrix=1.00D-08 within 128 cycles.
 Requested convergence on MAX density matrix=1.00D-06.
 Requested convergence on             energy=1.00D-06.
 No special actions if energy rises.

 Cycle   1  Pass 1  IDiag  1:
 E= 0.216625822864501    
 DIIS: error= 2.74D-02 at cycle   1 NSaved=   1.
 NSaved= 1 IEnMin= 1 EnMin= 0.216625822864501     IErMin= 1 ErrMin= 2.74D-02
 ErrMax= 2.74D-02  0.00D+00 EMaxC= 1.00D-01 BMatC= 9.44D-02 BMatP= 9.44D-02
 IDIUse=3 WtCom= 7.26D-01 WtEn= 2.74D-01
 Coeff-Com:  0.100D+01
 Coeff-En:   0.100D+01
 Coeff:      0.100D+01
 GapD=    2.000 DampG=2.000 DampE=0.500 DampFc=1.0000 IDamp=-1.
 RMSDP=7.17D-03 MaxDP=8.52D-02              OVMax= 0.00D+00

 Cycle   2  Pass 1  IDiag  1:
 E=-0.327103362548087E-02 Delta-E=       -0.219896856490 Rises=F Damp=F
 DIIS: error= 7.94D-03 at cycle   2 NSaved=   2.
 NSaved= 2 IEnMin= 2 EnMin=-0.327103362548087E-02 IErMin= 2 ErrMin= 7.94D-03
 ErrMax= 7.94D-03  0.00D+00 EMaxC= 1.00D-01 BMatC= 6.06D-03 BMatP= 9.44D-02
 IDIUse=3 WtCom= 9.21D-01 WtEn= 7.94D-02
 Coeff-Com: -0.317D+00 0.132D+01
 Coeff-En:   0.000D+00 0.100D+01
 Coeff:     -0.292D+00 0.129D+01
 RMSDP=2.59D-03 MaxDP=2.87D-02 DE=-2.20D-01 OVMax= 0.00D+00

 Cycle   3  Pass 1  IDiag  3:
 E=-0.205940904155568E-01 Delta-E=       -0.017323056790 Rises=F Damp=F
 DIIS: error= 9.22D-04 at cycle   3 NSaved=   3.
 NSaved= 3 IEnMin= 3 EnMin=-0.205940904155568E-01 IErMin= 3 ErrMin= 9.22D-04
 ErrMax= 9.22D-04  0.00D+00 EMaxC= 1.00D-01 BMatC= 7.23D-05 BMatP= 6.06D-03
 IDIUse=3 WtCom= 9.91D-01 WtEn= 9.22D-03
 Coeff-Com:  0.108D+00-0.502D+00 0.139D+01
 Coeff-En:   0.000D+00 0.000D+00 0.100D+01
 Coeff:      0.107D+00-0.498D+00 0.139D+01
 Gap=     0.377 Goal=   None    Shift=    0.000
 RMSDP=4.21D-04 MaxDP=4.11D-03 DE=-1.73D-02 OVMax= 6.39D-03

 Cycle   4  Pass 1  IDiag  3:
 E=-0.209222466382926E-01 Delta-E=       -0.000328156223 Rises=F Damp=F
 DIIS: error= 1.94D-04 at cycle   4 NSaved=   4.
 NSaved= 4 IEnMin= 4 EnMin=-0.209222466382926E-01 IErMin= 4 ErrMin= 1.94D-04
 ErrMax= 1.94D-04  0.00D+00 EMaxC= 1.00D-01 BMatC= 3.12D-06 BMatP= 7.23D-05
 IDIUse=3 WtCom= 9.98D-01 WtEn= 1.94D-03
 Coeff-Com: -0.467D-01 0.224D+00-0.730D+00 0.155D+01
 Coeff-En:   0.000D+00 0.000D+00 0.000D+00 0.100D+01
 Coeff:     -0.466D-01 0.224D+00-0.729D+00 0.155D+01
 Gap=     0.377 Goal=   None    Shift=    0.000
 RMSDP=1.06D-04 MaxDP=1.14D-03 DE=-3.28D-04 OVMax= 9.40D-04

 Cycle   5  Pass 1  IDiag  3:
 E=-0.209397677716652E-01 Delta-E=       -0.000017521133 Rises=F Damp=F
 DIIS: error= 5.64D-05 at cycle   5 NSaved=   5.
 NSaved= 5 IEnMin= 5 EnMin=-0.209397677716652E-01 IErMin= 5 ErrMin= 5.64D-05
 ErrMax= 5.64D-05  0.00D+00 EMaxC= 1.00D-01 BMatC= 1.76D-07 BMatP= 3.12D-06
 IDIUse=1 WtCom= 1.00D+00 WtEn= 0.00D+00
 Coeff-Com:  0.132D-01-0.632D-01 0.214D+00-0.596D+00 0.143D+01
 Coeff:      0.132D-01-0.632D-01 0.214D+00-0.596D+00 0.143D+01
 Gap=     0.377 Goal=   None    Shift=    0.000
 RMSDP=2.63D-05 MaxDP=3.23D-04 DE=-1.75D-05 OVMax= 2.26D-04

 Cycle   6  Pass 1  IDiag  3:
 E=-0.209408477956572E-01 Delta-E=       -0.000001080024 Rises=F Damp=F
 DIIS: error= 1.81D-05 at cycle   6 NSaved=   6.
 NSaved= 6 IEnMin= 6 EnMin=-0.209408477956572E-01 IErMin= 6 ErrMin= 1.81D-05
 ErrMax= 1.81D-05  0.00D+00 EMaxC= 1.00D-01 BMatC= 1.46D-08 BMatP= 1.76D-07
 IDIUse=1 WtCom= 1.00D+00 WtEn= 0.00D+00
 Coeff-Com: -0.479D-02 0.230D-01-0.761D-01 0.214D+00-0.716D+00 0.156D+01
 Coeff:     -0.479D-02 0.230D-01-0.761D-01 0.214D+00-0.716D+00 0.156D+01
 Gap=     0.377 Goal=   None    Shift=    0.000
 RMSDP=8.85D-06 MaxDP=1.15D-04 DE=-1.08D-06 OVMax= 8.85D-05

 Cycle   7  Pass 1  IDiag  3:
 E=-0.209409483112495E-01 Delta-E=       -0.000000100516 Rises=F Damp=F
 DIIS: error= 4.25D-06 at cycle   7 NSaved=   7.
 NSaved= 7 IEnMin= 7 EnMin=-0.209409483112495E-01 IErMin= 7 ErrMin= 4.25D-06
 ErrMax= 4.25D-06  0.00D+00 EMaxC= 1.00D-01 BMatC= 1.03D-09 BMatP= 1.46D-08
 IDIUse=1 WtCom= 1.00D+00 WtEn= 0.00D+00
 Coeff-Com:  0.119D-02-0.565D-02 0.183D-01-0.509D-01 0.228D+00-0.750D+00
 Coeff-Com:  0.156D+01
 Coeff:      0.119D-02-0.565D-02 0.183D-01-0.509D-01 0.228D+00-0.750D+00
 Coeff:      0.156D+01
 Gap=     0.377 Goal=   None    Shift=    0.000
 RMSDP=2.42D-06 MaxDP=3.26D-05 DE=-1.01D-07 OVMax= 2.91D-05

 Cycle   8  Pass 1  IDiag  3:
 E=-0.209409552249440E-01 Delta-E=       -0.000000006914 Rises=F Damp=F
 DIIS: error= 1.24D-06 at cycle   8 NSaved=   8.
 NSaved= 8 IEnMin= 8 EnMin=-0.209409552249440E-01 IErMin= 8 ErrMin= 1.24D-06
 ErrMax= 1.24D-06  0.00D+00 EMaxC= 1.00D-01 BMatC= 4.87D-11 BMatP= 1.03D-09
 IDIUse=1 WtCom= 1.00D+00 WtEn= 0.00D+00
 Coeff-Com: -0.908D-04 0.423D-03-0.123D-02 0.329D-02-0.308D-01 0.153D+00
 Coeff-Com: -0.503D+00 0.138D+01
 Coeff:     -0.908D-04 0.423D-03-0.123D-02 0.329D-02-0.308D-01 0.153D+00
 Coeff:     -0.503D+00 0.138D+01
 Gap=     0.377 Goal=   None    Shift=    0.000
 RMSDP=4.74D-07 MaxDP=7.65D-06 DE=-6.91D-09 OVMax= 6.63D-06

 Cycle   9  Pass 1  IDiag  3:
 E=-0.209409555399134E-01 Delta-E=       -0.000000000315 Rises=F Damp=F
 DIIS: error= 3.61D-07 at cycle   9 NSaved=   9.
 NSaved= 9 IEnMin= 9 EnMin=-0.209409555399134E-01 IErMin= 9 ErrMin= 3.61D-07
 ErrMax= 3.61D-07  0.00D+00 EMaxC= 1.00D-01 BMatC= 4.48D-12 BMatP= 4.87D-11
 IDIUse=1 WtCom= 1.00D+00 WtEn= 0.00D+00
 Coeff-Com:  0.301D-04-0.137D-03 0.349D-03-0.739D-03 0.106D-01-0.612D-01
 Coeff-Com:  0.222D+00-0.809D+00 0.164D+01
 Coeff:      0.301D-04-0.137D-03 0.349D-03-0.739D-03 0.106D-01-0.612D-01
 Coeff:      0.222D+00-0.809D+00 0.164D+01
 Gap=     0.377 Goal=   None    Shift=    0.000
 RMSDP=1.61D-07 MaxDP=2.49D-06 DE=-3.15D-10 OVMax= 2.18D-06

 Cycle  10  Pass 1  IDiag  3:
 E=-0.209409555706657E-01 Delta-E=       -0.000000000031 Rises=F Damp=F
 DIIS: error= 6.86D-08 at cycle  10 NSaved=  10.
 NSaved=10 IEnMin=10 EnMin=-0.209409555706657E-01 IErMin=10 ErrMin= 6.86D-08
 ErrMax= 6.86D-08  0.00D+00 EMaxC= 1.00D-01 BMatC= 2.63D-13 BMatP= 4.48D-12
 IDIUse=1 WtCom= 1.00D+00 WtEn= 0.00D+00
 Coeff-Com: -0.364D-05 0.150D-04-0.160D-04-0.203D-04-0.240D-02 0.167D-01
 Coeff-Com: -0.650D-01 0.272D+00-0.761D+00 0.154D+01
 Coeff:     -0.364D-05 0.150D-04-0.160D-04-0.203D-04-0.240D-02 0.167D-01
 Coeff:     -0.650D-01 0.272D+00-0.761D+00 0.154D+01
 Gap=     0.377 Goal=   None    Shift=    0.000
 RMSDP=3.95D-08 MaxDP=5.64D-07 DE=-3.08D-11 OVMax= 4.28D-07

 Cycle  11  Pass 1  IDiag  3:
 E=-0.209409555725415E-01 Delta-E=       -0.000000000002 Rises=F Damp=F
 DIIS: error= 1.24D-08 at cycle  11 NSaved=  11.
 NSaved=11 IEnMin=11 EnMin=-0.209409555725415E-01 IErMin=11 ErrMin= 1.24D-08
 ErrMax= 1.24D-08  0.00D+00 EMaxC= 1.00D-01 BMatC= 8.12D-15 BMatP= 2.63D-13
 IDIUse=1 WtCom= 1.00D+00 WtEn= 0.00D+00
 Coeff-Com:  0.515D-06-0.174D-05-0.476D-05 0.350D-04 0.641D-03-0.485D-02
 Coeff-Com:  0.194D-01-0.844D-01 0.257D+00-0.630D+00 0.144D+01
 Coeff:      0.515D-06-0.174D-05-0.476D-05 0.350D-04 0.641D-03-0.485D-02
 Coeff:      0.194D-01-0.844D-01 0.257D+00-0.630D+00 0.144D+01
 Gap=     0.377 Goal=   None    Shift=    0.000
 RMSDP=5.67D-09 MaxDP=8.30D-08 DE=-1.88D-12 OVMax= 4.30D-08

 Cycle  12  Pass 2  IDiag  1:
 SCF Done:  E(RPM3) = -0.209409555725E-01 A.U. after   12 cycles
            NFock= 11  Conv=0.57D-08     -V/T= 0.9997
 KE=-7.902247273391D+01 PE=-4.867429197775D+02 EE= 2.635218906005D+02
 Leave Link  502 at Wed Jul 14 14:07:11 2021, MaxMem=   524288000 cpu:               0.2 elap:               0.4
 (Enter /opt/gaussian/g16_legacy/l601.exe)
 Copying SCF densities to generalized density rwf, IOpCl= 0 IROHF=0.

 **********************************************************************

            Population analysis using the SCF density.

 **********************************************************************

 Orbital symmetries:
       Occupied  (A) (A) (A) (A) (A) (A) (A) (A) (A) (A) (A) (A)
                 (A) (A) (A) (A) (A) (A) (A) (A) (A) (A) (A) (A)
                 (A) (A) (A) (A) (A)
       Virtual   (A) (A) (A) (A) (A) (A) (A) (A) (A) (A) (A) (A)
                 (A) (A) (A) (A) (A) (A) (A) (A) (A) (A) (A) (A)
                 (A) (A) (A) (A) (A)
 The electronic state is 1-A.
 Alpha  occ. eigenvalues --   -1.45409  -1.35173  -1.19169  -1.07834  -1.01347
 Alpha  occ. eigenvalues --   -0.96844  -0.87376  -0.78857  -0.66701  -0.64975
 Alpha  occ. eigenvalues --   -0.60595  -0.59880  -0.56734  -0.56206  -0.55043
 Alpha  occ. eigenvalues --   -0.53470  -0.51188  -0.50530  -0.49420  -0.48634
 Alpha  occ. eigenvalues --   -0.48486  -0.47688  -0.47128  -0.46668  -0.44995
 Alpha  occ. eigenvalues --   -0.43789  -0.42182  -0.35432  -0.34324
 Alpha virt. eigenvalues --    0.03417   0.04202   0.11659   0.12399   0.13337
 Alpha virt. eigenvalues --    0.13644   0.13981   0.14253   0.14793   0.14957
 Alpha virt. eigenvalues --    0.15557   0.15760   0.16025   0.16259   0.16401
 Alpha virt. eigenvalues --    0.16451   0.16495   0.16714   0.16773   0.16989
 Alpha virt. eigenvalues --    0.17047   0.17142   0.17780   0.17894   0.18109
 Alpha virt. eigenvalues --    0.20724   0.21140   0.22245   0.22526
          Condensed to atoms (all electrons):
               1          2          3          4          5          6
     1  C    4.051355   0.000000   0.000000   0.000000   0.000000   0.000000
     2  H    0.000000   0.948812   0.000000   0.000000   0.000000   0.000000
     3  H    0.000000   0.000000   0.945278   0.000000   0.000000   0.000000
     4  C    0.000000   0.000000   0.000000   4.125579   0.000000   0.000000
     5  C    0.000000   0.000000   0.000000   0.000000   4.066143   0.000000
     6  H    0.000000   0.000000   0.000000   0.000000   0.000000   0.953583
     7  H    0.000000   0.000000   0.000000   0.000000   0.000000   0.000000
     8  H    0.000000   0.000000   0.000000   0.000000   0.000000   0.000000
     9  C    0.000000   0.000000   0.000000   0.000000   0.000000   0.000000
    10  H    0.000000   0.000000   0.000000   0.000000   0.000000   0.000000
    11  C    0.000000   0.000000   0.000000   0.000000   0.000000   0.000000
    12  H    0.000000   0.000000   0.000000   0.000000   0.000000   0.000000
    13  H    0.000000   0.000000   0.000000   0.000000   0.000000   0.000000
    14  H    0.000000   0.000000   0.000000   0.000000   0.000000   0.000000
    15  C    0.000000   0.000000   0.000000   0.000000   0.000000   0.000000
    16  H    0.000000   0.000000   0.000000   0.000000   0.000000   0.000000
    17  H    0.000000   0.000000   0.000000   0.000000   0.000000   0.000000
    18  H    0.000000   0.000000   0.000000   0.000000   0.000000   0.000000
    19  C    0.000000   0.000000   0.000000   0.000000   0.000000   0.000000
    20  C    0.000000   0.000000   0.000000   0.000000   0.000000   0.000000
    21  H    0.000000   0.000000   0.000000   0.000000   0.000000   0.000000
    22  H    0.000000   0.000000   0.000000   0.000000   0.000000   0.000000
    23  H    0.000000   0.000000   0.000000   0.000000   0.000000   0.000000
    24  C    0.000000   0.000000   0.000000   0.000000   0.000000   0.000000
    25  H    0.000000   0.000000   0.000000   0.000000   0.000000   0.000000
    26  C    0.000000   0.000000   0.000000   0.000000   0.000000   0.000000
    27  H    0.000000   0.000000   0.000000   0.000000   0.000000   0.000000
    28  H    0.000000   0.000000   0.000000   0.000000   0.000000   0.000000
               7          8          9         10         11         12
     1  C    0.000000   0.000000   0.000000   0.000000   0.000000   0.000000
     2  H    0.000000   0.000000   0.000000   0.000000   0.000000   0.000000
     3  H    0.000000   0.000000   0.000000   0.000000   0.000000   0.000000
     4  C    0.000000   0.000000   0.000000   0.000000   0.000000   0.000000
     5  C    0.000000   0.000000   0.000000   0.000000   0.000000   0.000000
     6  H    0.000000   0.000000   0.000000   0.000000   0.000000   0.000000
     7  H    0.956896   0.000000   0.000000   0.000000   0.000000   0.000000
     8  H    0.000000   0.956054   0.000000   0.000000   0.000000   0.000000
     9  C    0.000000   0.000000   4.151836   0.000000   0.000000   0.000000
    10  H    0.000000   0.000000   0.000000   0.906565   0.000000   0.000000
    11  C    0.000000   0.000000   0.000000   0.000000   4.066165   0.000000
    12  H    0.000000   0.000000   0.000000   0.000000   0.000000   0.957129
    13  H    0.000000   0.000000   0.000000   0.000000   0.000000   0.000000
    14  H    0.000000   0.000000   0.000000   0.000000   0.000000   0.000000
    15  C    0.000000   0.000000   0.000000   0.000000   0.000000   0.000000
    16  H    0.000000   0.000000   0.000000   0.000000   0.000000   0.000000
    17  H    0.000000   0.000000   0.000000   0.000000   0.000000   0.000000
    18  H    0.000000   0.000000   0.000000   0.000000   0.000000   0.000000
    19  C    0.000000   0.000000   0.000000   0.000000   0.000000   0.000000
    20  C    0.000000   0.000000   0.000000   0.000000   0.000000   0.000000
    21  H    0.000000   0.000000   0.000000   0.000000   0.000000   0.000000
    22  H    0.000000   0.000000   0.000000   0.000000   0.000000   0.000000
    23  H    0.000000   0.000000   0.000000   0.000000   0.000000   0.000000
    24  C    0.000000   0.000000   0.000000   0.000000   0.000000   0.000000
    25  H    0.000000   0.000000   0.000000   0.000000   0.000000   0.000000
    26  C    0.000000   0.000000   0.000000   0.000000   0.000000   0.000000
    27  H    0.000000   0.000000   0.000000   0.000000   0.000000   0.000000
    28  H    0.000000   0.000000   0.000000   0.000000   0.000000   0.000000
              13         14         15         16         17         18
     1  C    0.000000   0.000000   0.000000   0.000000   0.000000   0.000000
     2  H    0.000000   0.000000   0.000000   0.000000   0.000000   0.000000
     3  H    0.000000   0.000000   0.000000   0.000000   0.000000   0.000000
     4  C    0.000000   0.000000   0.000000   0.000000   0.000000   0.000000
     5  C    0.000000   0.000000   0.000000   0.000000   0.000000   0.000000
     6  H    0.000000   0.000000   0.000000   0.000000   0.000000   0.000000
     7  H    0.000000   0.000000   0.000000   0.000000   0.000000   0.000000
     8  H    0.000000   0.000000   0.000000   0.000000   0.000000   0.000000
     9  C    0.000000   0.000000   0.000000   0.000000   0.000000   0.000000
    10  H    0.000000   0.000000   0.000000   0.000000   0.000000   0.000000
    11  C    0.000000   0.000000   0.000000   0.000000   0.000000   0.000000
    12  H    0.000000   0.000000   0.000000   0.000000   0.000000   0.000000
    13  H    0.955531   0.000000   0.000000   0.000000   0.000000   0.000000
    14  H    0.000000   0.958510   0.000000   0.000000   0.000000   0.000000
    15  C    0.000000   0.000000   4.068568   0.000000   0.000000   0.000000
    16  H    0.000000   0.000000   0.000000   0.955630   0.000000   0.000000
    17  H    0.000000   0.000000   0.000000   0.000000   0.955815   0.000000
    18  H    0.000000   0.000000   0.000000   0.000000   0.000000   0.958951
    19  C    0.000000   0.000000   0.000000   0.000000   0.000000   0.000000
    20  C    0.000000   0.000000   0.000000   0.000000   0.000000   0.000000
    21  H    0.000000   0.000000   0.000000   0.000000   0.000000   0.000000
    22  H    0.000000   0.000000   0.000000   0.000000   0.000000   0.000000
    23  H    0.000000   0.000000   0.000000   0.000000   0.000000   0.000000
    24  C    0.000000   0.000000   0.000000   0.000000   0.000000   0.000000
    25  H    0.000000   0.000000   0.000000   0.000000   0.000000   0.000000
    26  C    0.000000   0.000000   0.000000   0.000000   0.000000   0.000000
    27  H    0.000000   0.000000   0.000000   0.000000   0.000000   0.000000
    28  H    0.000000   0.000000   0.000000   0.000000   0.000000   0.000000
              19         20         21         22         23         24
     1  C    0.000000   0.000000   0.000000   0.000000   0.000000   0.000000
     2  H    0.000000   0.000000   0.000000   0.000000   0.000000   0.000000
     3  H    0.000000   0.000000   0.000000   0.000000   0.000000   0.000000
     4  C    0.000000   0.000000   0.000000   0.000000   0.000000   0.000000
     5  C    0.000000   0.000000   0.000000   0.000000   0.000000   0.000000
     6  H    0.000000   0.000000   0.000000   0.000000   0.000000   0.000000
     7  H    0.000000   0.000000   0.000000   0.000000   0.000000   0.000000
     8  H    0.000000   0.000000   0.000000   0.000000   0.000000   0.000000
     9  C    0.000000   0.000000   0.000000   0.000000   0.000000   0.000000
    10  H    0.000000   0.000000   0.000000   0.000000   0.000000   0.000000
    11  C    0.000000   0.000000   0.000000   0.000000   0.000000   0.000000
    12  H    0.000000   0.000000   0.000000   0.000000   0.000000   0.000000
    13  H    0.000000   0.000000   0.000000   0.000000   0.000000   0.000000
    14  H    0.000000   0.000000   0.000000   0.000000   0.000000   0.000000
    15  C    0.000000   0.000000   0.000000   0.000000   0.000000   0.000000
    16  H    0.000000   0.000000   0.000000   0.000000   0.000000   0.000000
    17  H    0.000000   0.000000   0.000000   0.000000   0.000000   0.000000
    18  H    0.000000   0.000000   0.000000   0.000000   0.000000   0.000000
    19  C    4.118680   0.000000   0.000000   0.000000   0.000000   0.000000
    20  C    0.000000   4.067718   0.000000   0.000000   0.000000   0.000000
    21  H    0.000000   0.000000   0.954598   0.000000   0.000000   0.000000
    22  H    0.000000   0.000000   0.000000   0.954870   0.000000   0.000000
    23  H    0.000000   0.000000   0.000000   0.000000   0.956320   0.000000
    24  C    0.000000   0.000000   0.000000   0.000000   0.000000   4.158355
    25  H    0.000000   0.000000   0.000000   0.000000   0.000000   0.000000
    26  C    0.000000   0.000000   0.000000   0.000000   0.000000   0.000000
    27  H    0.000000   0.000000   0.000000   0.000000   0.000000   0.000000
    28  H    0.000000   0.000000   0.000000   0.000000   0.000000   0.000000
              25         26         27         28
     1  C    0.000000   0.000000   0.000000   0.000000
     2  H    0.000000   0.000000   0.000000   0.000000
     3  H    0.000000   0.000000   0.000000   0.000000
     4  C    0.000000   0.000000   0.000000   0.000000
     5  C    0.000000   0.000000   0.000000   0.000000
     6  H    0.000000   0.000000   0.000000   0.000000
     7  H    0.000000   0.000000   0.000000   0.000000
     8  H    0.000000   0.000000   0.000000   0.000000
     9  C    0.000000   0.000000   0.000000   0.000000
    10  H    0.000000   0.000000   0.000000   0.000000
    11  C    0.000000   0.000000   0.000000   0.000000
    12  H    0.000000   0.000000   0.000000   0.000000
    13  H    0.000000   0.000000   0.000000   0.000000
    14  H    0.000000   0.000000   0.000000   0.000000
    15  C    0.000000   0.000000   0.000000   0.000000
    16  H    0.000000   0.000000   0.000000   0.000000
    17  H    0.000000   0.000000   0.000000   0.000000
    18  H    0.000000   0.000000   0.000000   0.000000
    19  C    0.000000   0.000000   0.000000   0.000000
    20  C    0.000000   0.000000   0.000000   0.000000
    21  H    0.000000   0.000000   0.000000   0.000000
    22  H    0.000000   0.000000   0.000000   0.000000
    23  H    0.000000   0.000000   0.000000   0.000000
    24  C    0.000000   0.000000   0.000000   0.000000
    25  H    0.904674   0.000000   0.000000   0.000000
    26  C    0.000000   4.054578   0.000000   0.000000
    27  H    0.000000   0.000000   0.944715   0.000000
    28  H    0.000000   0.000000   0.000000   0.947091
 Mulliken charges:
               1
     1  C   -0.051355
     2  H    0.051188
     3  H    0.054722
     4  C   -0.125579
     5  C   -0.066143
     6  H    0.046417
     7  H    0.043104
     8  H    0.043946
     9  C   -0.151836
    10  H    0.093435
    11  C   -0.066165
    12  H    0.042871
    13  H    0.044469
    14  H    0.041490
    15  C   -0.068568
    16  H    0.044370
    17  H    0.044185
    18  H    0.041049
    19  C   -0.118680
    20  C   -0.067718
    21  H    0.045402
    22  H    0.045130
    23  H    0.043680
    24  C   -0.158355
    25  H    0.095326
    26  C   -0.054578
    27  H    0.055285
    28  H    0.052909
 Sum of Mulliken charges =  -0.00000
 Mulliken charges with hydrogens summed into heavy atoms:
               1
     1  C    0.054554
     4  C   -0.125579
     5  C    0.067325
     9  C   -0.058401
    11  C    0.062665
    15  C    0.061036
    19  C   -0.118680
    20  C    0.066495
    24  C   -0.063029
    26  C    0.053615
 Charge=             -0.0000 electrons
 Dipole moment (field-independent basis, Debye):
    X=             -0.1605    Y=              0.2922    Z=             -0.0162  Tot=              0.3338
 N-N= 3.022225609553D+02 E-N=-4.867429200214D+02  KE=-7.902247273391D+01
 Leave Link  601 at Wed Jul 14 14:07:12 2021, MaxMem=   524288000 cpu:               0.4 elap:               0.4
 (Enter /opt/gaussian/g16_legacy/l701.exe)
 ... and contract with generalized density number  0.
 Compute integral first derivatives.
 Leave Link  701 at Wed Jul 14 14:07:12 2021, MaxMem=   524288000 cpu:               0.3 elap:               0.4
 (Enter /opt/gaussian/g16_legacy/l702.exe)
 L702 exits ... SP integral derivatives will be done elsewhere.
 Leave Link  702 at Wed Jul 14 14:07:13 2021, MaxMem=   524288000 cpu:               0.0 elap:               0.1
 (Enter /opt/gaussian/g16_legacy/l703.exe)
 Integral derivatives from FoFJK, PRISM(SPDF).
 Compute integral first derivatives, UseDBF=F ICtDFT=           0.
 Calling FoFJK, ICntrl=      2127 FMM=F ISym2X=0 I1Cent= 0 IOpClX= 0 NMat=1 NMatS=1 NMatT=0.
 FoFJK:  IHMeth= 9 ICntrl=    2127 DoSepK=F KAlg= 0 I1Cent=           0 FoldK=F
 IRaf=         0 NMat=       1 IRICut=       1 DoRegI=T DoRafI=F ISym2E= 0 IDoP0=3 IntGTp=3.
 FoFCou: FMM=F IPFlag=           0 FMFlag=      100000 FMFlg1=         800
         NFxFlg=           0 DoJE=F BraDBF=F KetDBF=F FulRan=T
         wScrn=  0.000000 ICntrl=      2127 IOpCl=  0 I1Cent=           0 NGrid=           0
         NMat0=    1 NMatS0=      1 NMatT0=    0 NMatD0=    1 NMtDS0=    0 NMtDT0=    0
 Symmetry not used in FoFCou.
 Leave Link  703 at Wed Jul 14 14:07:13 2021, MaxMem=   524288000 cpu:               0.3 elap:               0.4
 (Enter /opt/gaussian/g16_legacy/l716.exe)
 Dipole        =-6.31403213D-02 1.14962500D-01-6.39087479D-03
 ***** Axes restored to original set *****
 -------------------------------------------------------------------
 Center     Atomic                   Forces (Hartrees/Bohr)
 Number     Number              X              Y              Z
 -------------------------------------------------------------------
      1        6          -0.007920434    0.005632705   -0.011576105
      2        1          -0.000659894   -0.006307580    0.001556206
      3        1           0.002000209    0.004023883    0.004697400
      4        6          -0.001185919    0.003073431   -0.000765623
      5        6           0.000715302   -0.017288737    0.003074102
      6        1           0.001522226    0.000713890   -0.001796109
      7        1           0.002298195    0.000968421    0.001165819
      8        1          -0.005006037   -0.001155287   -0.002069088
      9        6           0.001659281    0.013243799   -0.003335242
     10        1           0.001067757   -0.005376739    0.001065214
     11        6           0.017001388   -0.002178743    0.005011281
     12        1           0.000626024    0.004937286    0.000509801
     13        1          -0.001837532    0.000161622    0.001461701
     14        1          -0.001168481   -0.001473737   -0.001536961
     15        6          -0.013288806    0.006395338   -0.004733652
     16        1           0.001118596    0.000701611    0.001406882
     17        1           0.001701135    0.000888508   -0.000244154
     18        1          -0.000150264   -0.001780143   -0.000151231
     19        6          -0.003826589    0.002671925    0.000444253
     20        6          -0.001284267   -0.016287000   -0.000861786
     21        1          -0.004402347   -0.000013413   -0.002331598
     22        1           0.001456890    0.000825389   -0.000953783
     23        1           0.001774051    0.000389448    0.001595965
     24        6           0.000784854    0.013090390    0.001202537
     25        1          -0.000059819   -0.005301339    0.000433618
     26        6           0.007911591   -0.006804006    0.012739735
     27        1           0.001443327    0.009507306   -0.000566963
     28        1          -0.002290435   -0.003258230   -0.005442220
 -------------------------------------------------------------------
 Cartesian Forces:  Max     0.017288737 RMS     0.005389124
 Leave Link  716 at Wed Jul 14 14:07:13 2021, MaxMem=   524288000 cpu:               0.1 elap:               0.1
 (Enter /opt/gaussian/g16_legacy/l103.exe)

 GradGradGradGradGradGradGradGradGradGradGradGradGradGradGradGradGradGrad
 Berny optimization.
 FormGI is forming the generalized inverse of G from B-inverse, IUseBI=4.
 Internal  Forces:  Max     0.019567933 RMS     0.005012401
 Search for a local minimum.
 Step number   1 out of a maximum of  138
 All quantities printed in internal units (Hartrees-Bohrs-Radians)
 RMS Force = .50124D-02 SwitMx=.10000D-02 MixMth= 1
 Mixed Optimization -- RFO/linear search
 Second derivative matrix not updated -- first step.
 ITU=  0
     Eigenvalues ---    0.00329   0.00508   0.00679   0.00691   0.00692
     Eigenvalues ---    0.00715   0.00821   0.01208   0.01287   0.01568
     Eigenvalues ---    0.01642   0.02776   0.02784   0.03987   0.04128
     Eigenvalues ---    0.05346   0.05393   0.06977   0.06982   0.07016
     Eigenvalues ---    0.07092   0.07291   0.07300   0.07347   0.07512
     Eigenvalues ---    0.09280   0.09379   0.12767   0.12860   0.15999
     Eigenvalues ---    0.15999   0.16000   0.16000   0.16000   0.16000
     Eigenvalues ---    0.16000   0.16000   0.16000   0.16000   0.16000
     Eigenvalues ---    0.16000   0.16000   0.16000   0.21869   0.21900
     Eigenvalues ---    0.22000   0.22000   0.24987   0.24993   0.24998
     Eigenvalues ---    0.24999   0.29148   0.30411   0.31701   0.31789
     Eigenvalues ---    0.31795   0.31976   0.32821   0.33855   0.33902
     Eigenvalues ---    0.33933   0.34190   0.34194   0.34222   0.34245
     Eigenvalues ---    0.34247   0.34251   0.34265   0.34314   0.34322
     Eigenvalues ---    0.34338   0.34531   0.34546   0.34629   0.34796
     Eigenvalues ---    0.34811   0.55439   0.55572
 RFO step:  Lambda=-1.01482671D-02 EMin= 3.29460182D-03
 Linear search not attempted -- first point.
 Iteration  1 RMS(Cart)=  0.11231001 RMS(Int)=  0.00216480
 Iteration  2 RMS(Cart)=  0.00371528 RMS(Int)=  0.00006798
 Iteration  3 RMS(Cart)=  0.00000452 RMS(Int)=  0.00006792
 Iteration  4 RMS(Cart)=  0.00000000 RMS(Int)=  0.00006792
 ITry= 1 IFail=0 DXMaxC= 3.70D-01 DCOld= 1.00D+10 DXMaxT= 3.00D-01 DXLimC= 3.00D+00 Rises=F
 Variable       Old X    -DE/DX   Delta X   Delta X   Delta X     New X
                                 (Linear)    (Quad)   (Total)
    R1        2.07576   0.00652   0.00000   0.01870   0.01870   2.09446
    R2        2.07496   0.00643   0.00000   0.01840   0.01840   2.09336
    R3        2.87151  -0.01626   0.00000  -0.05175  -0.05175   2.81975
    R4        2.89694  -0.00818   0.00000  -0.02710  -0.02710   2.86984
    R5        2.84520  -0.01667   0.00000  -0.05080  -0.05080   2.79440
    R6        2.54744  -0.01957   0.00000  -0.03466  -0.03466   2.51278
    R7        2.06790   0.00244   0.00000   0.00689   0.00689   2.07479
    R8        2.07011   0.00229   0.00000   0.00649   0.00649   2.07661
    R9        2.06418   0.00446   0.00000   0.01253   0.01253   2.07671
   R10        2.05983   0.00557   0.00000   0.01556   0.01556   2.07539
   R11        2.82666  -0.01491   0.00000  -0.04405  -0.04405   2.78261
   R12        2.06282   0.00445   0.00000   0.01249   0.01249   2.07531
   R13        2.06764   0.00225   0.00000   0.00638   0.00638   2.07401
   R14        2.06916   0.00233   0.00000   0.00660   0.00660   2.07576
   R15        2.06919   0.00172   0.00000   0.00489   0.00489   2.07408
   R16        2.06909   0.00171   0.00000   0.00484   0.00484   2.07393
   R17        2.06957   0.00179   0.00000   0.00509   0.00509   2.07466
   R18        2.84695  -0.01284   0.00000  -0.03926  -0.03926   2.80769
   R19        2.84188  -0.01540   0.00000  -0.04668  -0.04668   2.79520
   R20        2.54627  -0.01864   0.00000  -0.03294  -0.03294   2.51333
   R21        2.06443   0.00414   0.00000   0.01164   0.01164   2.07607
   R22        2.06885   0.00189   0.00000   0.00535   0.00535   2.07420
   R23        2.07004   0.00211   0.00000   0.00599   0.00599   2.07604
   R24        2.06008   0.00528   0.00000   0.01475   0.01475   2.07483
   R25        2.84532  -0.01589   0.00000  -0.04844  -0.04844   2.79688
   R26        2.06804   0.00936   0.00000   0.02651   0.02651   2.09455
   R27        2.07443   0.00673   0.00000   0.01927   0.01927   2.09370
    A1        1.84353  -0.00031   0.00000   0.00945   0.00939   1.85292
    A2        1.92283   0.00179   0.00000   0.00775   0.00774   1.93057
    A3        1.90540   0.00155   0.00000   0.00667   0.00667   1.91207
    A4        1.90029   0.00168   0.00000   0.00406   0.00394   1.90423
    A5        1.92122   0.00120   0.00000   0.00184   0.00176   1.92298
    A6        1.96658  -0.00555   0.00000  -0.02734  -0.02739   1.93919
    A7        2.00900   0.00353   0.00000   0.01371   0.01366   2.02267
    A8        2.09793   0.00215   0.00000   0.00842   0.00837   2.10631
    A9        2.17586  -0.00567   0.00000  -0.02165  -0.02170   2.15416
   A10        1.92720   0.00011   0.00000  -0.00251  -0.00259   1.92461
   A11        1.92344   0.00095   0.00000   0.00869   0.00872   1.93217
   A12        1.97593  -0.00371   0.00000  -0.02177  -0.02181   1.95411
   A13        1.89139  -0.00057   0.00000  -0.00345  -0.00344   1.88794
   A14        1.88458   0.00085   0.00000  -0.00049  -0.00064   1.88394
   A15        1.85818   0.00253   0.00000   0.02062   0.02068   1.87886
   A16        2.06607   0.00556   0.00000   0.02380   0.02375   2.08982
   A17        2.23478  -0.01175   0.00000  -0.05099  -0.05104   2.18374
   A18        1.98221   0.00619   0.00000   0.02746   0.02741   2.00962
   A19        1.98407  -0.00273   0.00000  -0.01751  -0.01753   1.96654
   A20        1.91714   0.00076   0.00000   0.00259   0.00251   1.91965
   A21        1.90919   0.00148   0.00000   0.01197   0.01197   1.92117
   A22        1.89345  -0.00017   0.00000  -0.00689  -0.00697   1.88648
   A23        1.87099   0.00122   0.00000   0.01042   0.01048   1.88147
   A24        1.88618  -0.00048   0.00000   0.00017   0.00012   1.88630
   A25        1.89488  -0.00092   0.00000  -0.00856  -0.00856   1.88632
   A26        1.87915   0.00004   0.00000   0.00172   0.00171   1.88087
   A27        1.92494   0.00031   0.00000   0.00100   0.00099   1.92593
   A28        1.87887   0.00010   0.00000   0.00216   0.00216   1.88102
   A29        1.92343   0.00022   0.00000   0.00053   0.00053   1.92396
   A30        1.96057   0.00020   0.00000   0.00276   0.00275   1.96332
   A31        1.99476   0.00309   0.00000   0.01190   0.01188   2.00664
   A32        2.10560   0.00253   0.00000   0.00978   0.00975   2.11535
   A33        2.18278  -0.00562   0.00000  -0.02156  -0.02158   2.16119
   A34        1.97913  -0.00350   0.00000  -0.02084  -0.02085   1.95828
   A35        1.92161   0.00060   0.00000   0.00164   0.00159   1.92321
   A36        1.92088   0.00074   0.00000   0.00651   0.00653   1.92741
   A37        1.88487   0.00076   0.00000   0.00064   0.00057   1.88544
   A38        1.86371   0.00209   0.00000   0.01568   0.01573   1.87944
   A39        1.89077  -0.00058   0.00000  -0.00284  -0.00285   1.88792
   A40        2.06737   0.00542   0.00000   0.02356   0.02351   2.09088
   A41        2.22752  -0.01096   0.00000  -0.04755  -0.04760   2.17992
   A42        1.98815   0.00555   0.00000   0.02427   0.02423   2.01238
   A43        1.94456  -0.00414   0.00000  -0.02165  -0.02178   1.92278
   A44        1.93294   0.00044   0.00000  -0.00672  -0.00695   1.92599
   A45        1.91538   0.00099   0.00000   0.00788   0.00799   1.92337
   A46        1.94141   0.00097   0.00000  -0.00409  -0.00440   1.93701
   A47        1.88335   0.00189   0.00000   0.01478   0.01485   1.89820
   A48        1.84268   0.00015   0.00000   0.01258   0.01259   1.85527
    D1        2.90173   0.00074   0.00000   0.00814   0.00828   2.91001
    D2       -0.21139   0.00045   0.00000  -0.00900  -0.00909  -0.22048
    D3        0.88766  -0.00083   0.00000  -0.00980  -0.00969   0.87798
    D4       -2.22545  -0.00112   0.00000  -0.02694  -0.02706  -2.25252
    D5       -1.24894   0.00016   0.00000   0.00329   0.00339  -1.24555
    D6        1.92113  -0.00013   0.00000  -0.01385  -0.01398   1.90715
    D7       -0.94788  -0.00112   0.00000  -0.01903  -0.01897  -0.96685
    D8       -3.11865   0.00030   0.00000   0.00695   0.00688  -3.11177
    D9        1.13694  -0.00074   0.00000  -0.00917  -0.00918   1.12776
   D10        1.06820   0.00005   0.00000  -0.00282  -0.00277   1.06543
   D11       -1.10256   0.00147   0.00000   0.02316   0.02308  -1.07948
   D12       -3.13017   0.00044   0.00000   0.00704   0.00702  -3.12315
   D13       -3.09020  -0.00075   0.00000  -0.01511  -0.01502  -3.10521
   D14        1.02223   0.00067   0.00000   0.01088   0.01083   1.03306
   D15       -1.00538  -0.00036   0.00000  -0.00525  -0.00523  -1.01061
   D16        1.28727  -0.00001   0.00000  -0.01704  -0.01704   1.27023
   D17       -0.80174   0.00003   0.00000  -0.01671  -0.01667  -0.81841
   D18       -2.88057  -0.00141   0.00000  -0.03462  -0.03447  -2.91504
   D19       -1.88425   0.00045   0.00000   0.00157   0.00145  -1.88280
   D20        2.30993   0.00049   0.00000   0.00190   0.00181   2.31174
   D21        0.23110  -0.00095   0.00000  -0.01601  -0.01599   0.21511
   D22       -0.00353  -0.00035   0.00000  -0.00293  -0.00300  -0.00653
   D23       -3.12722  -0.00087   0.00000  -0.02284  -0.02292   3.13305
   D24       -3.11377  -0.00085   0.00000  -0.02247  -0.02239  -3.13616
   D25        0.04573  -0.00137   0.00000  -0.04238  -0.04231   0.00342
   D26        0.15796  -0.00076   0.00000  -0.01247  -0.01242   0.14554
   D27       -1.96714   0.00080   0.00000   0.00672   0.00670  -1.96043
   D28        2.24847   0.00004   0.00000  -0.00222  -0.00227   2.24620
   D29       -2.96644  -0.00126   0.00000  -0.03160  -0.03154  -2.99798
   D30        1.19165   0.00029   0.00000  -0.01241  -0.01242   1.17923
   D31       -0.87593  -0.00046   0.00000  -0.02135  -0.02139  -0.89732
   D32        1.05205  -0.00026   0.00000   0.00239   0.00247   1.05453
   D33       -2.07952  -0.00050   0.00000  -0.00982  -0.00990  -2.08942
   D34       -1.03984   0.00055   0.00000   0.01204   0.01212  -1.02772
   D35        2.11177   0.00030   0.00000  -0.00017  -0.00025   2.11152
   D36       -3.13478   0.00014   0.00000   0.00710   0.00718  -3.12760
   D37        0.01683  -0.00011   0.00000  -0.00511  -0.00519   0.01164
   D38       -3.00372  -0.00092   0.00000  -0.02275  -0.02266  -3.02638
   D39        1.16559   0.00006   0.00000  -0.01042  -0.01040   1.15519
   D40       -0.91751  -0.00006   0.00000  -0.01200  -0.01198  -0.92949
   D41        0.12734  -0.00060   0.00000  -0.00970  -0.00970   0.11764
   D42       -1.98653   0.00038   0.00000   0.00263   0.00256  -1.98397
   D43        2.21355   0.00026   0.00000   0.00105   0.00098   2.21453
   D44        0.00896  -0.00009   0.00000   0.00341   0.00338   0.01234
   D45       -3.11324  -0.00058   0.00000  -0.01614  -0.01620  -3.12944
   D46       -3.12147  -0.00043   0.00000  -0.01041  -0.01035  -3.13183
   D47        0.03951  -0.00092   0.00000  -0.02997  -0.02993   0.00958
   D48       -1.80026   0.00050   0.00000   0.00318   0.00309  -1.79717
   D49        0.36572  -0.00124   0.00000  -0.02449  -0.02445   0.34127
   D50        2.37918   0.00057   0.00000  -0.00296  -0.00293   2.37626
   D51        1.35998   0.00002   0.00000  -0.01567  -0.01574   1.34424
   D52       -2.75722  -0.00172   0.00000  -0.04333  -0.04328  -2.80050
   D53       -0.74376   0.00008   0.00000  -0.02180  -0.02175  -0.76552
         Item               Value     Threshold  Converged?
 Maximum Force            0.019568     0.000450     NO 
 RMS     Force            0.005012     0.000300     NO 
 Maximum Displacement     0.370491     0.001800     NO 
 RMS     Displacement     0.112531     0.001200     NO 
 Predicted change in Energy=-5.311704D-03
 Lowest energy point so far.  Saving SCF results.
 GradGradGradGradGradGradGradGradGradGradGradGradGradGradGradGradGradGrad

 Leave Link  103 at Wed Jul 14 14:07:13 2021, MaxMem=   524288000 cpu:               0.3 elap:               0.3
 (Enter /opt/gaussian/g16_legacy/l202.exe)
                          Input orientation:                          
 ---------------------------------------------------------------------
 Center     Atomic      Atomic             Coordinates (Angstroms)
 Number     Number       Type             X           Y           Z
 ---------------------------------------------------------------------
      1          6           0       -0.623739   -0.474875    0.613494
      2          1           0       -0.731517   -1.536700    0.912373
      3          1           0       -0.302658    0.070371    1.522745
      4          6           0       -1.930849    0.075666    0.149948
      5          6           0       -1.999935    1.546428    0.013090
      6          1           0       -1.427183    1.874150   -0.864410
      7          1           0       -1.579271    2.039397    0.900554
      8          1           0       -3.033609    1.900028   -0.105963
      9          6           0       -2.955903   -0.732487   -0.103566
     10          1           0       -2.838837   -1.817089    0.023241
     11          6           0       -4.287907   -0.295428   -0.554104
     12          1           0       -4.320245    0.773108   -0.805585
     13          1           0       -5.030171   -0.483013    0.232285
     14          1           0       -4.587749   -0.859873   -1.447456
     15          6           0        4.009163   -0.947063    0.845154
     16          1           0        4.234132   -0.703615    1.891457
     17          1           0        4.856614   -0.619569    0.229496
     18          1           0        3.937840   -2.039542    0.763286
     19          6           0        2.764013   -0.262146    0.411580
     20          6           0        2.806735    1.214715    0.482001
     21          1           0        1.830610    1.669130    0.263749
     22          1           0        3.533521    1.607592   -0.240635
     23          1           0        3.110344    1.542188    1.485736
     24          6           0        1.707285   -0.953195   -0.006345
     25          1           0        1.744671   -2.050383   -0.023064
     26          6           0        0.434434   -0.356539   -0.469363
     27          1           0        0.574919    0.704696   -0.756701
     28          1           0        0.105291   -0.885752   -1.385400
 ---------------------------------------------------------------------
                    Distance matrix (angstroms):
                    1          2          3          4          5
     1  C    0.000000
     2  H    1.108340   0.000000
     3  H    1.107757   1.771765   0.000000
     4  C    1.492148   2.149282   2.129696   0.000000
     5  C    2.517949   3.453010   2.708977   1.478731   0.000000
     6  H    2.889228   3.908300   3.196355   2.125358   1.097931
     7  H    2.704997   3.675228   2.427741   2.131491   1.098894
     8  H    3.459084   4.260016   3.668573   2.147061   1.098949
     9  C    2.453473   2.574254   3.213904   1.329705   2.474053
    10  H    2.656426   2.304338   3.499032   2.103097   3.466570
    11  C    3.849885   4.042181   4.508805   2.487795   2.991481
    12  H    4.151554   4.600604   4.696378   2.666211   2.579165
    13  H    4.422898   4.477857   4.931623   3.150349   3.653630
    14  H    4.484319   4.571369   5.296174   3.238217   3.823645
    15  C    4.662661   4.777681   4.481752   6.067374   6.558894
    16  H    5.028361   5.129357   4.617084   6.453458   6.888726
    17  H    5.495694   5.703916   5.363450   6.823440   7.193792
    18  H    4.824792   4.698720   4.796909   6.268317   6.977044
    19  C    3.400424   3.754199   3.278677   4.714265   5.111256
    20  C    3.826245   4.502747   3.472894   4.883891   4.840867
    21  H    3.277637   4.154823   2.948208   4.086643   3.840698
    22  H    4.727474   5.422780   4.493197   5.688470   5.539607
    23  H    4.332750   4.956631   3.717015   5.417439   5.318238
    24  C    2.458996   2.670632   2.725009   3.784045   4.471238
    25  H    2.914926   2.696371   3.328465   4.249643   5.192344
    26  C    1.518655   2.159032   2.166576   2.482924   3.127331
    27  H    2.169240   3.084873   2.523566   2.737986   2.816196
    28  H    2.166998   2.530562   3.088350   2.725341   3.507599
                    6          7          8          9         10
     6  H    0.000000
     7  H    1.779195   0.000000
     8  H    1.776659   1.774147   0.000000
     9  C    3.116155   3.253722   2.633663   0.000000
    10  H    4.050424   4.150743   3.724459   1.098247   0.000000
    11  C    3.603762   3.860588   2.567902   1.472495   2.179125
    12  H    3.096056   3.468044   1.847932   2.149668   3.096876
    13  H    4.443026   4.326412   3.127228   2.116039   2.573986
    14  H    4.219479   4.792687   3.439769   2.117827   2.477480
    15  C    6.358907   6.336609   7.655795   7.032657   6.951805
    16  H    6.803686   6.503972   7.974252   7.461739   7.399793
    17  H    6.848457   6.995787   8.289543   7.820429   7.790800
    18  H    6.837386   6.862587   8.054621   7.069902   6.820594
    19  C    4.874221   4.939667   6.209289   5.762294   5.827571
    20  C    4.491518   4.482448   5.909736   6.110849   6.424545
    21  H    3.453692   3.488540   4.883711   5.367811   5.832264
    22  H    5.006868   5.256368   6.575017   6.899810   7.239131
    23  H    5.120794   4.752068   6.356864   6.670786   6.986873
    24  C    4.307556   4.536466   5.534156   4.669420   4.627571
    25  H    5.115709   5.350511   6.200370   4.882492   4.589675
    26  C    2.932175   3.416459   4.153490   3.430675   3.618034
    27  H    2.321128   3.027946   3.856651   3.867659   4.315257
    28  H    3.199526   4.076743   4.387508   3.322273   3.394046
                   11         12         13         14         15
    11  C    0.000000
    12  H    1.098206   0.000000
    13  H    1.097520   1.777360   0.000000
    14  H    1.098445   1.774875   1.777440   0.000000
    15  C    8.439427   8.663888   9.071963   8.897784   0.000000
    16  H    8.875389   9.090220   9.414288   9.433893   1.097555
    17  H    9.183755   9.339469   9.887728   9.595098   1.097478
    18  H    8.511191   8.863877   9.117563   8.886206   1.097862
    19  C    7.117811   7.262227   7.799373   7.606687   1.485765
    20  C    7.327209   7.255807   8.022576   7.918656   2.500199
    21  H    6.478011   6.307087   7.190481   7.107701   3.453779
    22  H    8.055711   7.918154   8.827859   8.573203   2.816280
    23  H    7.891255   7.813788   8.481778   8.581034   2.722975
    24  C    6.055991   6.320603   6.758056   6.458557   2.454329
    25  H    6.305067   6.735551   6.958472   6.598920   2.664403
    26  C    4.723497   4.898584   5.510918   5.141239   3.854265
    27  H    4.968739   4.895886   5.814274   5.438580   4.133797
    28  H    4.509959   4.761656   5.399266   4.693521   4.496593
                   16         17         18         19         20
    16  H    0.000000
    17  H    1.776699   0.000000
    18  H    1.773488   1.773528   0.000000
    19  C    2.132177   2.130701   2.158867   0.000000
    20  C    2.775611   2.762310   3.456690   1.479156   0.000000
    21  H    3.749169   3.794208   4.294671   2.150098   1.098611
    22  H    3.221544   2.632840   3.804329   2.124487   1.097621
    23  H    2.543843   3.049720   3.746395   2.128234   1.098591
    24  C    3.170000   3.175721   2.597664   1.329994   2.479336
    25  H    3.417102   3.434415   2.329904   2.103751   3.470437
    26  C    4.486829   4.484781   4.077471   2.492370   3.000290
    27  H    4.731376   4.589028   4.598961   2.663042   2.602980
    28  H    5.274305   5.025317   4.542743   3.269071   3.898326
                   21         22         23         24         25
    21  H    0.000000
    22  H    1.777103   0.000000
    23  H    1.774003   1.778682   0.000000
    24  C    2.639081   3.153992   3.228285   0.000000
[...]
    18  H    1.772189   1.772312   0.000000
    19  C    2.138439   2.138186   2.163926   0.000000
    20  C    2.793604   2.773820   3.468777   1.486017   0.000000
    21  H    3.769634   3.808133   4.306649   2.156238   1.102494
    22  H    3.244387   2.653740   3.821265   2.136216   1.098180
    23  H    2.573748   3.062318   3.768388   2.139618   1.098015
    24  C    3.181480   3.193750   2.608530   1.339745   2.492265
    25  H    3.429088   3.453570   2.344910   2.113870   3.484522
    26  C    4.503079   4.505360   4.094695   2.503020   3.007687
    27  H    4.634916   4.684045   4.616918   2.648880   2.552493
    28  H    5.210041   4.860814   4.559656   3.126611   3.612290
                   21         22         23         24         25
    21  H    0.000000
    22  H    1.777148   0.000000
    23  H    1.777702   1.773384   0.000000
    24  C    2.645779   3.171871   3.246040   0.000000
    25  H    3.739061   4.096977   4.151074   1.098261   0.000000
    26  C    2.564934   3.685579   3.829355   1.486383   2.195718
    27  H    1.768528   3.234824   3.318569   2.151479   3.107839
    28  H    3.171489   4.022994   4.580896   2.120242   2.610450
                   26         27         28
    26  C    0.000000
    27  H    1.114154   0.000000
    28  H    1.108646   1.772183   0.000000
 Stoichiometry    C10H18
 Framework group  C1[X(C10H18)]
 Deg. of freedom    78
 Full point group                 C1      NOp   1
 RotChk:  IX=2 Diff= 1.15D-15
 Largest Abelian subgroup         C1      NOp   1
 Largest concise Abelian subgroup C1      NOp   1
                         Standard orientation:                         
 ---------------------------------------------------------------------
 Center     Atomic      Atomic             Coordinates (Angstroms)
 Number     Number       Type             X           Y           Z
 ---------------------------------------------------------------------
      1          6           0        0.643540   -0.480939   -0.740134
      2          1           0        0.695883   -1.565155   -0.967019
      3          1           0        0.305929    0.004073   -1.677688
      4          6           0        1.994764    0.041015   -0.359461
      5          6           0        2.245398    1.472910   -0.665742
      6          1           0        1.482742    2.110956   -0.198471
      7          1           0        2.210561    1.650116   -1.749080
      8          1           0        3.232070    1.804678   -0.302811
      9          6           0        2.899129   -0.760466    0.219626
     10          1           0        2.648538   -1.811247    0.415143
     11          6           0        4.254550   -0.339737    0.634218
     12          1           0        4.438165    0.730849    0.444540
     13          1           0        5.018759   -0.911140    0.090968
     14          1           0        4.403878   -0.519513    1.706981
     15          6           0       -4.159028   -0.658900   -0.267520
     16          1           0       -4.631183   -0.081592   -1.074214
     17          1           0       -4.848838   -0.657771    0.587419
     18          1           0       -4.062978   -1.696130   -0.614797
     19          6           0       -2.852577   -0.056558    0.112737
     20          6           0       -2.923147    1.338407    0.620022
     21          1           0       -1.921425    1.770198    0.780032
     22          1           0       -3.459601    1.374955    1.577561
     23          1           0       -3.458135    1.985806   -0.087296
     24          6           0       -1.711198   -0.748722   -0.001631
     25          1           0       -1.730475   -1.776683   -0.387769
     26          6           0       -0.369016   -0.230267    0.371312
     27          1           0       -0.416503    0.856877    0.610482
     28          1           0       -0.041889   -0.729726    1.305456
 ---------------------------------------------------------------------
 Rotational constants (GHZ):           3.3762654           0.4583522           0.4338351
 Leave Link  202 at Wed Jul 14 14:07:24 2021, MaxMem=   524288000 cpu:               0.0 elap:               0.0
 (Enter /opt/gaussian/g16_legacy/l601.exe)
 Copying SCF densities to generalized density rwf, IOpCl= 0 IROHF=0.

 **********************************************************************

            Population analysis using the SCF density.

 **********************************************************************

 Orbital symmetries:
       Occupied  (A) (A) (A) (A) (A) (A) (A) (A) (A) (A) (A) (A)
                 (A) (A) (A) (A) (A) (A) (A) (A) (A) (A) (A) (A)
                 (A) (A) (A) (A) (A)
       Virtual   (A) (A) (A) (A) (A) (A) (A) (A) (A) (A) (A) (A)
                 (A) (A) (A) (A) (A) (A) (A) (A) (A) (A) (A) (A)
                 (A) (A) (A) (A) (A)
 The electronic state is 1-A.
 Alpha  occ. eigenvalues --   -1.46958  -1.36637  -1.19413  -1.07498  -1.01532
 Alpha  occ. eigenvalues --   -0.96532  -0.86779  -0.78719  -0.67180  -0.64778
 Alpha  occ. eigenvalues --   -0.61274  -0.59496  -0.57495  -0.56755  -0.55161
 Alpha  occ. eigenvalues --   -0.53463  -0.51324  -0.50624  -0.49069  -0.48372
 Alpha  occ. eigenvalues --   -0.48326  -0.47749  -0.47349  -0.46847  -0.44569
 Alpha  occ. eigenvalues --   -0.43746  -0.42171  -0.35073  -0.34364
 Alpha virt. eigenvalues --    0.03531   0.04202   0.12017   0.12730   0.13351
 Alpha virt. eigenvalues --    0.13582   0.13721   0.14241   0.14793   0.14885
 Alpha virt. eigenvalues --    0.15501   0.15795   0.15930   0.16324   0.16348
 Alpha virt. eigenvalues --    0.16489   0.16503   0.16586   0.16623   0.16810
 Alpha virt. eigenvalues --    0.17064   0.17102   0.17773   0.17971   0.18089
 Alpha virt. eigenvalues --    0.20994   0.21370   0.22280   0.22544
          Condensed to atoms (all electrons):
               1          2          3          4          5          6
     1  C    4.053898   0.000000   0.000000   0.000000   0.000000   0.000000
     2  H    0.000000   0.947276   0.000000   0.000000   0.000000   0.000000
     3  H    0.000000   0.000000   0.944142   0.000000   0.000000   0.000000
     4  C    0.000000   0.000000   0.000000   4.128111   0.000000   0.000000
     5  C    0.000000   0.000000   0.000000   0.000000   4.075262   0.000000
     6  H    0.000000   0.000000   0.000000   0.000000   0.000000   0.953626
     7  H    0.000000   0.000000   0.000000   0.000000   0.000000   0.000000
     8  H    0.000000   0.000000   0.000000   0.000000   0.000000   0.000000
     9  C    0.000000   0.000000   0.000000   0.000000   0.000000   0.000000
    10  H    0.000000   0.000000   0.000000   0.000000   0.000000   0.000000
    11  C    0.000000   0.000000   0.000000   0.000000   0.000000   0.000000
    12  H    0.000000   0.000000   0.000000   0.000000   0.000000   0.000000
    13  H    0.000000   0.000000   0.000000   0.000000   0.000000   0.000000
    14  H    0.000000   0.000000   0.000000   0.000000   0.000000   0.000000
    15  C    0.000000   0.000000   0.000000   0.000000   0.000000   0.000000
    16  H    0.000000   0.000000   0.000000   0.000000   0.000000   0.000000
    17  H    0.000000   0.000000   0.000000   0.000000   0.000000   0.000000
    18  H    0.000000   0.000000   0.000000   0.000000   0.000000   0.000000
    19  C    0.000000   0.000000   0.000000   0.000000   0.000000   0.000000
    20  C    0.000000   0.000000   0.000000   0.000000   0.000000   0.000000
    21  H    0.000000   0.000000   0.000000   0.000000   0.000000   0.000000
    22  H    0.000000   0.000000   0.000000   0.000000   0.000000   0.000000
    23  H    0.000000   0.000000   0.000000   0.000000   0.000000   0.000000
    24  C    0.000000   0.000000   0.000000   0.000000   0.000000   0.000000
    25  H    0.000000   0.000000   0.000000   0.000000   0.000000   0.000000
    26  C    0.000000   0.000000   0.000000   0.000000   0.000000   0.000000
    27  H    0.000000   0.000000   0.000000   0.000000   0.000000   0.000000
    28  H    0.000000   0.000000   0.000000   0.000000   0.000000   0.000000
               7          8          9         10         11         12
     1  C    0.000000   0.000000   0.000000   0.000000   0.000000   0.000000
     2  H    0.000000   0.000000   0.000000   0.000000   0.000000   0.000000
     3  H    0.000000   0.000000   0.000000   0.000000   0.000000   0.000000
     4  C    0.000000   0.000000   0.000000   0.000000   0.000000   0.000000
     5  C    0.000000   0.000000   0.000000   0.000000   0.000000   0.000000
     6  H    0.000000   0.000000   0.000000   0.000000   0.000000   0.000000
     7  H    0.953251   0.000000   0.000000   0.000000   0.000000   0.000000
     8  H    0.000000   0.950550   0.000000   0.000000   0.000000   0.000000
     9  C    0.000000   0.000000   4.150550   0.000000   0.000000   0.000000
    10  H    0.000000   0.000000   0.000000   0.901421   0.000000   0.000000
    11  C    0.000000   0.000000   0.000000   0.000000   4.078860   0.000000
    12  H    0.000000   0.000000   0.000000   0.000000   0.000000   0.952246
    13  H    0.000000   0.000000   0.000000   0.000000   0.000000   0.000000
    14  H    0.000000   0.000000   0.000000   0.000000   0.000000   0.000000
    15  C    0.000000   0.000000   0.000000   0.000000   0.000000   0.000000
    16  H    0.000000   0.000000   0.000000   0.000000   0.000000   0.000000
    17  H    0.000000   0.000000   0.000000   0.000000   0.000000   0.000000
    18  H    0.000000   0.000000   0.000000   0.000000   0.000000   0.000000
    19  C    0.000000   0.000000   0.000000   0.000000   0.000000   0.000000
    20  C    0.000000   0.000000   0.000000   0.000000   0.000000   0.000000
    21  H    0.000000   0.000000   0.000000   0.000000   0.000000   0.000000
    22  H    0.000000   0.000000   0.000000   0.000000   0.000000   0.000000
    23  H    0.000000   0.000000   0.000000   0.000000   0.000000   0.000000
    24  C    0.000000   0.000000   0.000000   0.000000   0.000000   0.000000
    25  H    0.000000   0.000000   0.000000   0.000000   0.000000   0.000000
    26  C    0.000000   0.000000   0.000000   0.000000   0.000000   0.000000
    27  H    0.000000   0.000000   0.000000   0.000000   0.000000   0.000000
    28  H    0.000000   0.000000   0.000000   0.000000   0.000000   0.000000
              13         14         15         16         17         18
     1  C    0.000000   0.000000   0.000000   0.000000   0.000000   0.000000
     2  H    0.000000   0.000000   0.000000   0.000000   0.000000   0.000000
     3  H    0.000000   0.000000   0.000000   0.000000   0.000000   0.000000
     4  C    0.000000   0.000000   0.000000   0.000000   0.000000   0.000000
     5  C    0.000000   0.000000   0.000000   0.000000   0.000000   0.000000
     6  H    0.000000   0.000000   0.000000   0.000000   0.000000   0.000000
     7  H    0.000000   0.000000   0.000000   0.000000   0.000000   0.000000
     8  H    0.000000   0.000000   0.000000   0.000000   0.000000   0.000000
     9  C    0.000000   0.000000   0.000000   0.000000   0.000000   0.000000
    10  H    0.000000   0.000000   0.000000   0.000000   0.000000   0.000000
    11  C    0.000000   0.000000   0.000000   0.000000   0.000000   0.000000
    12  H    0.000000   0.000000   0.000000   0.000000   0.000000   0.000000
    13  H    0.955199   0.000000   0.000000   0.000000   0.000000   0.000000
    14  H    0.000000   0.955791   0.000000   0.000000   0.000000   0.000000
    15  C    0.000000   0.000000   4.068711   0.000000   0.000000   0.000000
    16  H    0.000000   0.000000   0.000000   0.956045   0.000000   0.000000
    17  H    0.000000   0.000000   0.000000   0.000000   0.956433   0.000000
    18  H    0.000000   0.000000   0.000000   0.000000   0.000000   0.958390
    19  C    0.000000   0.000000   0.000000   0.000000   0.000000   0.000000
    20  C    0.000000   0.000000   0.000000   0.000000   0.000000   0.000000
    21  H    0.000000   0.000000   0.000000   0.000000   0.000000   0.000000
    22  H    0.000000   0.000000   0.000000   0.000000   0.000000   0.000000
    23  H    0.000000   0.000000   0.000000   0.000000   0.000000   0.000000
    24  C    0.000000   0.000000   0.000000   0.000000   0.000000   0.000000
    25  H    0.000000   0.000000   0.000000   0.000000   0.000000   0.000000
    26  C    0.000000   0.000000   0.000000   0.000000   0.000000   0.000000
    27  H    0.000000   0.000000   0.000000   0.000000   0.000000   0.000000
    28  H    0.000000   0.000000   0.000000   0.000000   0.000000   0.000000
              19         20         21         22         23         24
     1  C    0.000000   0.000000   0.000000   0.000000   0.000000   0.000000
     2  H    0.000000   0.000000   0.000000   0.000000   0.000000   0.000000
     3  H    0.000000   0.000000   0.000000   0.000000   0.000000   0.000000
     4  C    0.000000   0.000000   0.000000   0.000000   0.000000   0.000000
     5  C    0.000000   0.000000   0.000000   0.000000   0.000000   0.000000
     6  H    0.000000   0.000000   0.000000   0.000000   0.000000   0.000000
     7  H    0.000000   0.000000   0.000000   0.000000   0.000000   0.000000
     8  H    0.000000   0.000000   0.000000   0.000000   0.000000   0.000000
     9  C    0.000000   0.000000   0.000000   0.000000   0.000000   0.000000
    10  H    0.000000   0.000000   0.000000   0.000000   0.000000   0.000000
    11  C    0.000000   0.000000   0.000000   0.000000   0.000000   0.000000
    12  H    0.000000   0.000000   0.000000   0.000000   0.000000   0.000000
    13  H    0.000000   0.000000   0.000000   0.000000   0.000000   0.000000
    14  H    0.000000   0.000000   0.000000   0.000000   0.000000   0.000000
    15  C    0.000000   0.000000   0.000000   0.000000   0.000000   0.000000
    16  H    0.000000   0.000000   0.000000   0.000000   0.000000   0.000000
    17  H    0.000000   0.000000   0.000000   0.000000   0.000000   0.000000
    18  H    0.000000   0.000000   0.000000   0.000000   0.000000   0.000000
    19  C    4.122893   0.000000   0.000000   0.000000   0.000000   0.000000
    20  C    0.000000   4.076310   0.000000   0.000000   0.000000   0.000000
    21  H    0.000000   0.000000   0.950035   0.000000   0.000000   0.000000
    22  H    0.000000   0.000000   0.000000   0.953721   0.000000   0.000000
    23  H    0.000000   0.000000   0.000000   0.000000   0.954656   0.000000
    24  C    0.000000   0.000000   0.000000   0.000000   0.000000   4.156862
    25  H    0.000000   0.000000   0.000000   0.000000   0.000000   0.000000
    26  C    0.000000   0.000000   0.000000   0.000000   0.000000   0.000000
    27  H    0.000000   0.000000   0.000000   0.000000   0.000000   0.000000
    28  H    0.000000   0.000000   0.000000   0.000000   0.000000   0.000000
              25         26         27         28
     1  C    0.000000   0.000000   0.000000   0.000000
     2  H    0.000000   0.000000   0.000000   0.000000
     3  H    0.000000   0.000000   0.000000   0.000000
     4  C    0.000000   0.000000   0.000000   0.000000
     5  C    0.000000   0.000000   0.000000   0.000000
     6  H    0.000000   0.000000   0.000000   0.000000
     7  H    0.000000   0.000000   0.000000   0.000000
     8  H    0.000000   0.000000   0.000000   0.000000
     9  C    0.000000   0.000000   0.000000   0.000000
    10  H    0.000000   0.000000   0.000000   0.000000
    11  C    0.000000   0.000000   0.000000   0.000000
    12  H    0.000000   0.000000   0.000000   0.000000
    13  H    0.000000   0.000000   0.000000   0.000000
    14  H    0.000000   0.000000   0.000000   0.000000
    15  C    0.000000   0.000000   0.000000   0.000000
    16  H    0.000000   0.000000   0.000000   0.000000
    17  H    0.000000   0.000000   0.000000   0.000000
    18  H    0.000000   0.000000   0.000000   0.000000
    19  C    0.000000   0.000000   0.000000   0.000000
    20  C    0.000000   0.000000   0.000000   0.000000
    21  H    0.000000   0.000000   0.000000   0.000000
    22  H    0.000000   0.000000   0.000000   0.000000
    23  H    0.000000   0.000000   0.000000   0.000000
    24  C    0.000000   0.000000   0.000000   0.000000
    25  H    0.898775   0.000000   0.000000   0.000000
    26  C    0.000000   4.068711   0.000000   0.000000
    27  H    0.000000   0.000000   0.937087   0.000000
    28  H    0.000000   0.000000   0.000000   0.941187
 Mulliken charges:
               1
     1  C   -0.053898
     2  H    0.052724
     3  H    0.055858
     4  C   -0.128111
     5  C   -0.075262
     6  H    0.046374
     7  H    0.046749
     8  H    0.049450
     9  C   -0.150550
    10  H    0.098579
    11  C   -0.078860
    12  H    0.047754
    13  H    0.044801
    14  H    0.044209
    15  C   -0.068711
    16  H    0.043955
    17  H    0.043567
    18  H    0.041610
    19  C   -0.122893
    20  C   -0.076310
    21  H    0.049965
    22  H    0.046279
    23  H    0.045344
    24  C   -0.156862
    25  H    0.101225
    26  C   -0.068711
    27  H    0.062913
    28  H    0.058813
 Sum of Mulliken charges =  -0.00000
 Mulliken charges with hydrogens summed into heavy atoms:
               1
     1  C    0.054684
     4  C   -0.128111
     5  C    0.067311
     9  C   -0.051971
    11  C    0.057904
    15  C    0.060420
    19  C   -0.122893
    20  C    0.065278
    24  C   -0.055637
    26  C    0.053014
 Charge=              0.0000 electrons
 Dipole moment (field-independent basis, Debye):
    X=             -0.0870    Y=              0.3355    Z=              0.0725  Tot=              0.3541
 N-N= 3.036140746637D+02 E-N=-4.893918757331D+02  KE=-7.910786554478D+01
 Leave Link  601 at Wed Jul 14 14:07:25 2021, MaxMem=   524288000 cpu:               0.0 elap:               0.0
 (Enter /opt/gaussian/g16_legacy/l9999.exe)
 1\1\GINC-TRUENO95\FOpt\RPM3\ZDO\C10H18\JRAMOS\14-Jul-2021\0\\#p opt pm
 3\\Conformer number 151. Energy MM = 23.712 kcal/mol\\0,1\C,-0.7487057
 302,-0.5218817755,0.8234720792\H,-0.8712462368,-1.6007563993,1.0487548
 583\H,-0.4949464207,-0.0422904556,1.789817966\C,-2.0271701114,0.052000
 4101,0.2949422862\C,-2.2488643712,1.4959441895,0.5648032993\H,-1.41357
 58504,2.0972671797,0.1803641082\H,-2.3246961352,1.6819759783,1.6445620
 703\H,-3.175246401,1.8648574384,0.0946650348\C,-2.8962106765,-0.716804
 1149,-0.3753546431\H,-2.6704953662,-1.7789113529,-0.5370431299\C,-4.17
 94322335,-0.2442071359,-0.9375474103\H,-4.3371563569,0.8348522855,-0.7
 744513556\H,-5.0217145757,-0.7781510577,-0.4780895884\H,-4.2185683681,
 -0.4279542025,-2.0192791561\C,4.0649199334,-0.9035075478,0.8788444173\
 H,4.4704502141,-0.3385467042,1.7293353014\H,4.8431206485,-0.9392338921
 ,0.1043202044\H,3.8878538668,-1.9324666962,1.2187907088\C,2.8342766827
 ,-0.2511644634,0.3552096881\C,3.0185853107,1.134722278,-0.1483734141\H
 ,2.0593984823,1.6061448249,-0.4189532959\H,3.6571459326,1.1397573991,-
 1.041801513\H,3.5003015248,1.7661454493,0.609842858\C,1.6589823588,-0.
 8942390547,0.347790265\H,1.5926165766,-1.9183482426,0.7389078177\C,0.3
 885088387,-0.3241539896,-0.1720504482\H,0.5076883614,0.7577301165,-0.4
 10090111\H,0.1441801024,-0.8185804643,-1.1337888973\\Version=EM64L-G16
 RevA.03\State=1-A\HF=-0.0283334\RMSD=6.683e-09\RMSF=2.815e-06\Dipole=0
 .0426961,0.130179,-0.0252996\PG=C01 [X(C10H18)]\\@


 SATCHEL PAIGE'S GUIDE TO LONGEVITY

    1.  AVOID FRIED MEATS, WHICH ANGRY UP THE BLOOD.

    2.  IF YOUR STOMACH DISPUTES YOU, LIE DOWN AND PACIFY IT WITH COOL
        THOUGHTS.

    3.  KEEP THE JUICES FLOWING BY JANGLING AROUND GENTLY AS YOU MOVE.

    4.  GO VERY LIGHT ON THE VICES, SUCH AS CARRYING ON IN SOCIETY.
        THE SOCIAL RUMBLE AIN'T RESTFUL.

    5.  AVOID RUNNING AT ALL TIMES.

    6.  DON'T LOOK BACK.  SOMETHING MAY BE GAINING ON YOU.
 Job cpu time:       0 days  0 hours  0 minutes 16.3 seconds.
 Elapsed time:       0 days  0 hours  0 minutes 12.0 seconds.
 File lengths (MBytes):  RWF=      6 Int=      0 D2E=      0 Chk=      2 Scr=      1
 Normal termination of Gaussian 16 at Wed Jul 14 14:07:25 2021.
