 Entering Gaussian System, Link 0=/opt/gaussian/g16_legacy/g16
 Input=IsoP_rdkit_012_gaussian.com
 Output=IsoP_rdkit_012_gaussian.log
 Initial command:
 /opt/gaussian/g16_legacy/l1.exe "/scratch-local/jramos/2643397/Gau-19017.inp" -scrdir="/scratch-local/jramos/2643397/"
 Entering Link 1 = /opt/gaussian/g16_legacy/l1.exe PID=     19025.
  
 Copyright (c) 1988,1990,1992,1993,1995,1998,2003,2009,2016,
            Gaussian, Inc.  All Rights Reserved.
  
 This is part of the Gaussian(R) 16 program.  It is based on
 the Gaussian(R) 09 system (copyright 2009, Gaussian, Inc.),
 the Gaussian(R) 03 system (copyright 2003, Gaussian, Inc.),
 the Gaussian(R) 98 system (copyright 1998, Gaussian, Inc.),
 the Gaussian(R) 94 system (copyright 1995, Gaussian, Inc.),
 the Gaussian 92(TM) system (copyright 1992, Gaussian, Inc.),
 the Gaussian 90(TM) system (copyright 1990, Gaussian, Inc.),
 the Gaussian 88(TM) system (copyright 1988, Gaussian, Inc.),
 the Gaussian 86(TM) system (copyright 1986, Carnegie Mellon
 University), and the Gaussian 82(TM) system (copyright 1983,
 Carnegie Mellon University). Gaussian is a federally registered
 trademark of Gaussian, Inc.
  
 This software contains proprietary and confidential information,
 including trade secrets, belonging to Gaussian, Inc.
  
 This software is provided under written license and may be
 used, copied, transmitted, or stored only in accord with that
 written license.
  
 The following legend is applicable only to US Government
 contracts under FAR:
  
                    RESTRICTED RIGHTS LEGEND
  
 Use, reproduction and disclosure by the US Government is
 subject to restrictions as set forth in subparagraphs (a)
 and (c) of the Commercial Computer Software - Restricted
 Rights clause in FAR 52.227-19.
  
 Gaussian, Inc.
 340 Quinnipiac St., Bldg. 40, Wallingford CT 06492
  
  
 ---------------------------------------------------------------
 Warning -- This program may not be used in any manner that
 competes with the business of Gaussian, Inc. or will provide
 assistance to any competitor of Gaussian, Inc.  The licensee
 of this program is prohibited from giving any competitor of
 Gaussian, Inc. access to this program.  By using this program,
 the user acknowledges that Gaussian, Inc. is engaged in the
 business of creating and licensing software in the field of
 computational chemistry and represents and warrants to the
 licensee that it is not a competitor of Gaussian, Inc. and that
 it will not use this program in any manner prohibited above.
 ---------------------------------------------------------------
  

 Cite this work as:
 Gaussian 16, Revision A.03,
 M. J. Frisch, G. W. Trucks, H. B. Schlegel, G. E. Scuseria, 
 M. A. Robb, J. R. Cheeseman, G. Scalmani, V. Barone, 
 G. A. Petersson, H. Nakatsuji, X. Li, M. Caricato, A. V. Marenich, 
 J. Bloino, B. G. Janesko, R. Gomperts, B. Mennucci, H. P. Hratchian, 
 J. V. Ortiz, A. F. Izmaylov, J. L. Sonnenberg, D. Williams-Young, 
 F. Ding, F. Lipparini, F. Egidi, J. Goings, B. Peng, A. Petrone, 
 T. Henderson, D. Ranasinghe, V. G. Zakrzewski, J. Gao, N. Rega, 
 G. Zheng, W. Liang, M. Hada, M. Ehara, K. Toyota, R. Fukuda, 
 J. Hasegawa, M. Ishida, T. Nakajima, Y. Honda, O. Kitao, H. Nakai, 
 T. Vreven, K. Throssell, J. A. Montgomery, Jr., J. E. Peralta, 
 F. Ogliaro, M. J. Bearpark, J. J. Heyd, E. N. Brothers, K. N. Kudin, 
 V. N. Staroverov, T. A. Keith, R. Kobayashi, J. Normand, 
 K. Raghavachari, A. P. Rendell, J. C. Burant, S. S. Iyengar, 
 J. Tomasi, M. Cossi, J. M. Millam, M. Klene, C. Adamo, R. Cammi, 
 J. W. Ochterski, R. L. Martin, K. Morokuma, O. Farkas, 
 J. B. Foresman, and D. J. Fox, Gaussian, Inc., Wallingford CT, 2016.
 
 ******************************************
 Gaussian 16:  EM64L-G16RevA.03 25-Dec-2016
                14-Jul-2021 
 ******************************************
 %chk=IsoP_rdkit_012_gaussian.chk
 %nproc=2
 Will use up to    2 processors via shared memory.
 %mem=4000Mb
 ----------
 #p opt pm3
 ----------
 1/18=20,19=15,26=1,38=1/1,3;
 2/9=110,12=2,17=6,18=5,40=1/2;
 3/5=2,25=1,41=800000,71=1/1,2,3;
 4/35=1/1;
 5/5=2,35=1,38=5/2;
 6/7=2,8=2,9=2,10=2,28=1/1;
 7//1,2,3,16;
 1/18=20,19=15,26=1/3(2);
 2/9=110/2;
 99//99;
 2/9=110/2;
 3/5=2,25=1,41=800000,71=1,135=20/1,2,3;
 4/5=5,16=3,35=1/1;
 5/5=2,35=1,38=5/2;
 7//1,2,3,16;
 1/18=20,19=15,26=1/3(-5);
 2/9=110/2;
 6/7=2,8=2,9=2,10=2,19=2,28=1/1;
 99/9=1/99;
 Leave Link    1 at Wed Jul 14 14:07:08 2021, MaxMem=   524288000 cpu:               0.1 elap:               0.1
 (Enter /opt/gaussian/g16_legacy/l101.exe)
 -------------------------------------------------
 Conformer number 012. Energy MM = 23.287 kcal/mol
 -------------------------------------------------
 Symbolic Z-matrix:
 Charge =  0 Multiplicity = 1
 C                    -0.8541    0.478     0.1504 
 H                    -0.3565    1.4304   -0.0773 
 H                    -1.2954    0.622     1.1439 
 C                    -1.9335    0.2279   -0.8825 
 C                    -1.5882    0.6651   -2.2833 
 H                    -1.3783    1.7395   -2.3046 
 H                    -0.7044    0.1303   -2.6448 
 H                    -2.4023    0.4732   -2.9902 
 C                    -3.1361   -0.3171   -0.6122 
 H                    -3.851    -0.4319   -1.4266 
 C                    -3.6316   -0.8239    0.7051 
 H                    -4.008    -1.845     0.5845 
 H                    -4.4558   -0.1969    1.0584 
 H                    -2.8612   -0.851     1.479 
 C                     3.4276    0.1965    2.2258 
 H                     2.9574   -0.0749    3.1769 
 H                     4.3112   -0.4377    2.0995 
 H                     3.7545    1.2387    2.3022 
 C                     2.4934    0.0264    1.0562 
 C                     3.0982    0.3783   -0.2749 
 H                     3.5356    1.3819   -0.2353 
 H                     2.3744    0.3819   -1.093 
 H                     3.891    -0.333    -0.5278 
 C                     1.2282   -0.3972    1.2439 
 H                     0.8955   -0.6049    2.2611 
 C                     0.1788   -0.6526    0.195 
 H                     0.6281   -0.8037   -0.7916 
 H                    -0.3178   -1.6004    0.4399 
 
 ITRead=  0  0  0  0  0  0  0  0  0  0  0  0  0  0  0  0  0  0  0  0
 ITRead=  0  0  0  0  0  0  0  0
 MicOpt= -1 -1 -1 -1 -1 -1 -1 -1 -1 -1 -1 -1 -1 -1 -1 -1 -1 -1 -1 -1
 MicOpt= -1 -1 -1 -1 -1 -1 -1 -1
 NAtoms=     28 NQM=       28 NQMF=       0 NMMI=      0 NMMIF=      0
                NMic=       0 NMicF=      0.
                    Isotopes and Nuclear Properties:
 (Nuclear quadrupole moments (NQMom) in fm**2, nuclear magnetic moments (NMagM)
  in nuclear magnetons)

  Atom         1           2           3           4           5           6           7           8           9          10
 IAtWgt=          12           1           1          12          12           1           1           1          12           1
 AtmWgt=  12.0000000   1.0078250   1.0078250  12.0000000  12.0000000   1.0078250   1.0078250   1.0078250  12.0000000   1.0078250
 NucSpn=           0           1           1           0           0           1           1           1           0           1
 AtZEff=  -0.0000000  -0.0000000  -0.0000000  -0.0000000  -0.0000000  -0.0000000  -0.0000000  -0.0000000  -0.0000000  -0.0000000
 NQMom=    0.0000000   0.0000000   0.0000000   0.0000000   0.0000000   0.0000000   0.0000000   0.0000000   0.0000000   0.0000000
 NMagM=    0.0000000   2.7928460   2.7928460   0.0000000   0.0000000   2.7928460   2.7928460   2.7928460   0.0000000   2.7928460
 AtZNuc=   6.0000000   1.0000000   1.0000000   6.0000000   6.0000000   1.0000000   1.0000000   1.0000000   6.0000000   1.0000000

  Atom        11          12          13          14          15          16          17          18          19          20
 IAtWgt=          12           1           1           1          12           1           1           1          12          12
 AtmWgt=  12.0000000   1.0078250   1.0078250   1.0078250  12.0000000   1.0078250   1.0078250   1.0078250  12.0000000  12.0000000
 NucSpn=           0           1           1           1           0           1           1           1           0           0
 AtZEff=  -0.0000000  -0.0000000  -0.0000000  -0.0000000  -0.0000000  -0.0000000  -0.0000000  -0.0000000  -0.0000000  -0.0000000
 NQMom=    0.0000000   0.0000000   0.0000000   0.0000000   0.0000000   0.0000000   0.0000000   0.0000000   0.0000000   0.0000000
 NMagM=    0.0000000   2.7928460   2.7928460   2.7928460   0.0000000   2.7928460   2.7928460   2.7928460   0.0000000   0.0000000
 AtZNuc=   6.0000000   1.0000000   1.0000000   1.0000000   6.0000000   1.0000000   1.0000000   1.0000000   6.0000000   6.0000000

  Atom        21          22          23          24          25          26          27          28
 IAtWgt=           1           1           1          12           1          12           1           1
 AtmWgt=   1.0078250   1.0078250   1.0078250  12.0000000   1.0078250  12.0000000   1.0078250   1.0078250
 NucSpn=           1           1           1           0           1           0           1           1
 AtZEff=  -0.0000000  -0.0000000  -0.0000000  -0.0000000  -0.0000000  -0.0000000  -0.0000000  -0.0000000
 NQMom=    0.0000000   0.0000000   0.0000000   0.0000000   0.0000000   0.0000000   0.0000000   0.0000000
 NMagM=    2.7928460   2.7928460   2.7928460   0.0000000   2.7928460   0.0000000   2.7928460   2.7928460
 AtZNuc=   1.0000000   1.0000000   1.0000000   6.0000000   1.0000000   6.0000000   1.0000000   1.0000000
 Leave Link  101 at Wed Jul 14 14:07:09 2021, MaxMem=   524288000 cpu:               0.3 elap:               0.2
 (Enter /opt/gaussian/g16_legacy/l103.exe)

 GradGradGradGradGradGradGradGradGradGradGradGradGradGradGradGradGradGrad
 Berny optimization.
 Initialization pass.
                           ----------------------------
                           !    Initial Parameters    !
                           ! (Angstroms and Degrees)  !
 --------------------------                            --------------------------
 ! Name  Definition              Value          Derivative Info.                !
 --------------------------------------------------------------------------------
 ! R1    R(1,2)                  1.0984         estimate D2E/DX2                !
 ! R2    R(1,3)                  1.0966         estimate D2E/DX2                !
 ! R3    R(1,4)                  1.5148         estimate D2E/DX2                !
 ! R4    R(1,26)                 1.532          estimate D2E/DX2                !
 ! R5    R(4,5)                  1.5075         estimate D2E/DX2                !
 ! R6    R(4,9)                  1.3477         estimate D2E/DX2                !
 ! R7    R(5,6)                  1.0949         estimate D2E/DX2                !
 ! R8    R(5,7)                  1.0944         estimate D2E/DX2                !
 ! R9    R(5,8)                  1.0951         estimate D2E/DX2                !
 ! R10   R(9,10)                 1.0897         estimate D2E/DX2                !
 ! R11   R(9,11)                 1.4959         estimate D2E/DX2                !
 ! R12   R(11,12)                1.0949         estimate D2E/DX2                !
 ! R13   R(11,13)                1.0942         estimate D2E/DX2                !
 ! R14   R(11,14)                1.0923         estimate D2E/DX2                !
 ! R15   R(15,16)                1.0951         estimate D2E/DX2                !
 ! R16   R(15,17)                1.0949         estimate D2E/DX2                !
 ! R17   R(15,18)                1.0949         estimate D2E/DX2                !
 ! R18   R(15,19)                1.5065         estimate D2E/DX2                !
 ! R19   R(19,20)                1.5038         estimate D2E/DX2                !
 ! R20   R(19,24)                1.3474         estimate D2E/DX2                !
 ! R21   R(20,21)                1.0955         estimate D2E/DX2                !
 ! R22   R(20,22)                1.0923         estimate D2E/DX2                !
 ! R23   R(20,23)                1.0947         estimate D2E/DX2                !
 ! R24   R(24,25)                1.0902         estimate D2E/DX2                !
 ! R25   R(24,26)                1.5055         estimate D2E/DX2                !
 ! R26   R(26,27)                1.0946         estimate D2E/DX2                !
 ! R27   R(26,28)                1.0977         estimate D2E/DX2                !
 ! A1    A(2,1,3)              104.848          estimate D2E/DX2                !
 ! A2    A(2,1,4)              108.9423         estimate D2E/DX2                !
 ! A3    A(2,1,26)             109.9063         estimate D2E/DX2                !
 ! A4    A(3,1,4)              110.6523         estimate D2E/DX2                !
 ! A5    A(3,1,26)             109.9896         estimate D2E/DX2                !
 ! A6    A(4,1,26)             112.2365         estimate D2E/DX2                !
 ! A7    A(1,4,5)              114.9932         estimate D2E/DX2                !
 ! A8    A(1,4,9)              124.4622         estimate D2E/DX2                !
 ! A9    A(5,4,9)              120.5327         estimate D2E/DX2                !
 ! A10   A(4,5,6)              110.2773         estimate D2E/DX2                !
 ! A11   A(4,5,7)              110.4981         estimate D2E/DX2                !
 ! A12   A(4,5,8)              112.2538         estimate D2E/DX2                !
 ! A13   A(6,5,7)              108.5578         estimate D2E/DX2                !
 ! A14   A(6,5,8)              107.5718         estimate D2E/DX2                !
 ! A15   A(7,5,8)              107.5461         estimate D2E/DX2                !
 ! A16   A(4,9,10)             118.562          estimate D2E/DX2                !
 ! A17   A(4,9,11)             127.5319         estimate D2E/DX2                !
 ! A18   A(10,9,11)            113.899          estimate D2E/DX2                !
 ! A19   A(9,11,12)            109.4406         estimate D2E/DX2                !
 ! A20   A(9,11,13)            109.8592         estimate D2E/DX2                !
 ! A21   A(9,11,14)            113.4966         estimate D2E/DX2                !
 ! A22   A(12,11,13)           108.1201         estimate D2E/DX2                !
 ! A23   A(12,11,14)           107.2987         estimate D2E/DX2                !
 ! A24   A(13,11,14)           108.4641         estimate D2E/DX2                !
 ! A25   A(16,15,17)           107.6447         estimate D2E/DX2                !
 ! A26   A(16,15,18)           107.6663         estimate D2E/DX2                !
 ! A27   A(16,15,19)           112.3349         estimate D2E/DX2                !
 ! A28   A(17,15,18)           108.568          estimate D2E/DX2                !
 ! A29   A(17,15,19)           110.2099         estimate D2E/DX2                !
 ! A30   A(18,15,19)           110.2903         estimate D2E/DX2                !
 ! A31   A(15,19,20)           114.2915         estimate D2E/DX2                !
 ! A32   A(15,19,24)           120.6392         estimate D2E/DX2                !
 ! A33   A(20,19,24)           125.0668         estimate D2E/DX2                !
 ! A34   A(19,20,21)           110.0573         estimate D2E/DX2                !
 ! A35   A(19,20,22)           113.4041         estimate D2E/DX2                !
 ! A36   A(19,20,23)           110.1022         estimate D2E/DX2                !
 ! A37   A(21,20,22)           106.7754         estimate D2E/DX2                !
 ! A38   A(21,20,23)           108.3274         estimate D2E/DX2                !
 ! A39   A(22,20,23)           107.9983         estimate D2E/DX2                !
 ! A40   A(19,24,25)           118.4533         estimate D2E/DX2                !
 ! A41   A(19,24,26)           127.647          estimate D2E/DX2                !
 ! A42   A(25,24,26)           113.8918         estimate D2E/DX2                !
 ! A43   A(1,26,24)            111.4093         estimate D2E/DX2                !
 ! A44   A(1,26,27)            110.633          estimate D2E/DX2                !
 ! A45   A(1,26,28)            109.7969         estimate D2E/DX2                !
 ! A46   A(24,26,27)           111.4244         estimate D2E/DX2                !
 ! A47   A(24,26,28)           107.8411         estimate D2E/DX2                !
 ! A48   A(27,26,28)           105.5219         estimate D2E/DX2                !
 ! D1    D(2,1,4,5)             36.9609         estimate D2E/DX2                !
 ! D2    D(2,1,4,9)           -141.789          estimate D2E/DX2                !
 ! D3    D(3,1,4,5)            151.7256         estimate D2E/DX2                !
 ! D4    D(3,1,4,9)            -27.0243         estimate D2E/DX2                !
 ! D5    D(26,1,4,5)           -84.9913         estimate D2E/DX2                !
 ! D6    D(26,1,4,9)            96.2588         estimate D2E/DX2                !
 ! D7    D(2,1,26,24)           59.6192         estimate D2E/DX2                !
 ! D8    D(2,1,26,27)          -64.9129         estimate D2E/DX2                !
 ! D9    D(2,1,26,28)          179.0184         estimate D2E/DX2                !
 ! D10   D(3,1,26,24)          -55.3251         estimate D2E/DX2                !
 ! D11   D(3,1,26,27)         -179.8573         estimate D2E/DX2                !
 ! D12   D(3,1,26,28)           64.0741         estimate D2E/DX2                !
 ! D13   D(4,1,26,24)         -178.9794         estimate D2E/DX2                !
 ! D14   D(4,1,26,27)           56.4884         estimate D2E/DX2                !
 ! D15   D(4,1,26,28)          -59.5802         estimate D2E/DX2                !
 ! D16   D(1,4,5,6)            -59.4783         estimate D2E/DX2                !
 ! D17   D(1,4,5,7)             60.5445         estimate D2E/DX2                !
 ! D18   D(1,4,5,8)           -179.4074         estimate D2E/DX2                !
 ! D19   D(9,4,5,6)            119.325          estimate D2E/DX2                !
 ! D20   D(9,4,5,7)           -120.6521         estimate D2E/DX2                !
 ! D21   D(9,4,5,8)             -0.604          estimate D2E/DX2                !
 ! D22   D(1,4,9,10)           178.5584         estimate D2E/DX2                !
 ! D23   D(1,4,9,11)            -2.4754         estimate D2E/DX2                !
 ! D24   D(5,4,9,10)            -0.1261         estimate D2E/DX2                !
 ! D25   D(5,4,9,11)           178.8401         estimate D2E/DX2                !
 ! D26   D(4,9,11,12)         -127.8668         estimate D2E/DX2                !
 ! D27   D(4,9,11,13)          113.5685         estimate D2E/DX2                !
 ! D28   D(4,9,11,14)           -8.0464         estimate D2E/DX2                !
 ! D29   D(10,9,11,12)          51.1401         estimate D2E/DX2                !
 ! D30   D(10,9,11,13)         -67.4246         estimate D2E/DX2                !
 ! D31   D(10,9,11,14)         170.9605         estimate D2E/DX2                !
 ! D32   D(16,15,19,20)       -179.5985         estimate D2E/DX2                !
 ! D33   D(16,15,19,24)          0.9568         estimate D2E/DX2                !
 ! D34   D(17,15,19,20)        -59.5695         estimate D2E/DX2                !
 ! D35   D(17,15,19,24)        120.9858         estimate D2E/DX2                !
 ! D36   D(18,15,19,20)         60.2898         estimate D2E/DX2                !
 ! D37   D(18,15,19,24)       -119.1549         estimate D2E/DX2                !
 ! D38   D(15,19,20,21)        -52.5872         estimate D2E/DX2                !
 ! D39   D(15,19,20,22)       -172.1137         estimate D2E/DX2                !
 ! D40   D(15,19,20,23)         66.7591         estimate D2E/DX2                !
 ! D41   D(24,19,20,21)        126.8291         estimate D2E/DX2                !
 ! D42   D(24,19,20,22)          7.3026         estimate D2E/DX2                !
 ! D43   D(24,19,20,23)       -113.8246         estimate D2E/DX2                !
 ! D44   D(15,19,24,25)          0.5239         estimate D2E/DX2                !
 ! D45   D(15,19,24,26)       -178.3859         estimate D2E/DX2                !
 ! D46   D(20,19,24,25)       -178.8577         estimate D2E/DX2                !
 ! D47   D(20,19,24,26)          2.2324         estimate D2E/DX2                !
 ! D48   D(19,24,26,1)        -103.6581         estimate D2E/DX2                !
 ! D49   D(19,24,26,27)         20.4282         estimate D2E/DX2                !
 ! D50   D(19,24,26,28)        135.7871         estimate D2E/DX2                !
 ! D51   D(25,24,26,1)          77.3901         estimate D2E/DX2                !
 ! D52   D(25,24,26,27)       -158.5235         estimate D2E/DX2                !
 ! D53   D(25,24,26,28)        -43.1647         estimate D2E/DX2                !
 --------------------------------------------------------------------------------
 Trust Radius=3.00D-01 FncErr=1.00D-07 GrdErr=1.00D-07 EigMax=2.50D+02 EigMin=1.00D-04
 Number of steps in this run=    138 maximum allowed number of steps=    168.
 GradGradGradGradGradGradGradGradGradGradGradGradGradGradGradGradGradGrad

 Leave Link  103 at Wed Jul 14 14:07:09 2021, MaxMem=   524288000 cpu:               0.1 elap:               0.1
 (Enter /opt/gaussian/g16_legacy/l202.exe)
                          Input orientation:                          
 ---------------------------------------------------------------------
 Center     Atomic      Atomic             Coordinates (Angstroms)
 Number     Number       Type             X           Y           Z
 ---------------------------------------------------------------------
      1          6           0       -0.854100    0.478000    0.150400
      2          1           0       -0.356500    1.430400   -0.077300
      3          1           0       -1.295400    0.622000    1.143900
      4          6           0       -1.933500    0.227900   -0.882500
      5          6           0       -1.588200    0.665100   -2.283300
      6          1           0       -1.378300    1.739500   -2.304600
      7          1           0       -0.704400    0.130300   -2.644800
      8          1           0       -2.402300    0.473200   -2.990200
      9          6           0       -3.136100   -0.317100   -0.612200
     10          1           0       -3.851000   -0.431900   -1.426600
     11          6           0       -3.631600   -0.823900    0.705100
     12          1           0       -4.008000   -1.845000    0.584500
     13          1           0       -4.455800   -0.196900    1.058400
     14          1           0       -2.861200   -0.851000    1.479000
     15          6           0        3.427600    0.196500    2.225800
     16          1           0        2.957400   -0.074900    3.176900
     17          1           0        4.311200   -0.437700    2.099500
     18          1           0        3.754500    1.238700    2.302200
     19          6           0        2.493400    0.026400    1.056200
     20          6           0        3.098200    0.378300   -0.274900
     21          1           0        3.535600    1.381900   -0.235300
     22          1           0        2.374400    0.381900   -1.093000
     23          1           0        3.891000   -0.333000   -0.527800
     24          6           0        1.228200   -0.397200    1.243900
     25          1           0        0.895500   -0.604900    2.261100
     26          6           0        0.178800   -0.652600    0.195000
     27          1           0        0.628100   -0.803700   -0.791600
     28          1           0       -0.317800   -1.600400    0.439900
 ---------------------------------------------------------------------
                    Distance matrix (angstroms):
                    1          2          3          4          5
     1  C    0.000000
     2  H    1.098417   0.000000
     3  H    1.096597   1.739647   0.000000
     4  C    1.514773   2.140393   2.160737   0.000000
     5  C    2.548883   2.639925   3.439955   1.507520   0.000000
     6  H    2.809483   2.469916   3.625994   2.148383   1.094919
     7  H    2.820718   2.898853   3.865915   2.150794   1.094439
     8  H    3.501473   3.685989   4.282307   2.173096   1.095122
     9  C    2.534022   3.326567   2.711821   1.347714   2.480582
    10  H    3.506602   4.183336   3.774820   2.099568   2.656616
    11  C    3.117233   4.052197   2.782266   2.551529   3.914478
    12  H    3.941048   4.949715   3.709072   3.279109   4.514456
    13  H    3.775208   4.554358   3.265890   3.210848   4.486996
    14  H    2.749522   3.728321   2.175718   2.757052   4.251351
    15  C    4.766496   4.598499   4.863979   6.197089   6.760904
    16  H    4.898258   4.882385   4.764983   6.363279   7.143099
    17  H    5.596233   5.478657   5.785335   6.952095   7.431556
    18  H    5.142772   4.753850   5.217611   6.596770   7.064012
    19  C    3.497166   3.373124   3.836331   4.837004   5.312218
    20  C    3.976367   3.616754   4.623430   5.070483   5.106689
    21  H    4.498363   3.895608   5.081161   5.626868   5.564300
    22  H    3.460996   3.096581   4.304509   4.315788   4.147194
    23  H    4.861445   4.621016   5.532210   5.862186   5.839488
    24  C    2.509520   2.756259   2.723477   3.861175   4.636996
    25  H    2.947682   3.343361   2.748356   4.310338   5.332283
    26  C    1.532034   2.167852   2.167552   2.529446   3.316714
    27  H    2.174175   2.543789   3.078739   2.763016   3.048693
    28  H    2.165912   3.074856   2.527920   2.775231   3.763273
                    6          7          8          9         10
     6  H    0.000000
     7  H    1.777471   0.000000
     8  H    1.766958   1.766280   0.000000
     9  C    3.191188   3.200749   2.611115   0.000000
    10  H    3.405893   3.420698   2.315768   1.089729   0.000000
    11  C    4.550459   4.549816   4.104740   1.495876   2.178519
    12  H    5.301968   5.024337   4.553109   2.127623   2.462930
    13  H    4.952819   5.281454   4.588797   2.132360   2.568313
    14  H    4.819265   4.756097   4.683785   2.175715   3.098041
    15  C    6.782481   6.387531   7.827576   7.169392   8.167798
    16  H    7.220608   6.880631   8.189012   7.179602   8.226419
    17  H    7.517094   6.927283   8.473834   7.926546   8.891284
    18  H    6.915131   6.751529   8.154856   7.641637   8.633567
    19  C    5.405529   4.892251   6.367171   5.881566   6.828305
    20  C    5.100157   4.487505   6.134930   6.282026   7.090431
    21  H    5.343809   5.034858   6.608621   6.894943   7.698761
    22  H    4.170589   3.456934   5.140483   5.575426   6.287222
    23  H    5.934458   5.080752   6.805806   7.027625   7.794625
    24  C    4.893994   4.374378   5.644974   4.743273   5.738558
    25  H    5.613555   5.212298   6.293960   4.959081   6.013179
    26  C    3.794035   3.075295   4.251471   3.428220   4.349435
    27  H    3.575287   2.466224   3.955710   3.799759   4.539141
    28  H    4.451053   3.558111   4.517803   3.270564   4.163258
                   11         12         13         14         15
    11  C    0.000000
    12  H    1.094928   0.000000
    13  H    1.094192   1.772382   0.000000
    14  H    1.092324   1.761623   1.774120   0.000000
    15  C    7.292877   7.883510   7.979071   6.419032   0.000000
    16  H    7.077126   7.640065   7.710931   6.110753   1.095143
    17  H    8.073511   8.572328   8.831883   7.211044   1.094948
    18  H    7.833232   8.527374   8.427159   6.986558   1.094934
    19  C    6.193699   6.781802   6.952787   5.442456   1.506528
    20  C    6.906221   7.495313   7.692299   6.332598   2.528845
    21  H    7.557689   8.245657   8.247954   6.988828   2.733834
    22  H    6.384290   6.964777   7.184369   5.962108   3.486838
    23  H    7.638752   8.118963   8.497272   7.063128   2.842081
    24  C    4.908160   5.472543   5.690552   4.121213   2.480719
    25  H    4.792049   5.328522   5.499942   3.845132   2.656128
    26  C    3.848207   4.370678   4.736311   3.305997   3.924261
    27  H    4.515037   4.946856   5.443964   4.163301   4.235836
    28  H    3.413877   3.701123   4.413094   2.847844   4.521760
                   16         17         18         19         20
    16  H    0.000000
    17  H    1.767820   0.000000
    18  H    1.768054   1.778010   0.000000
    19  C    2.173229   2.146686   2.147687   0.000000
    20  C    3.484270   2.788369   2.795078   1.503810   0.000000
    21  H    3.754955   3.060031   2.550947   2.142786   1.095491
    22  H    4.333659   3.822956   3.763797   2.181651   1.092331
    23  H    3.829233   2.662750   3.240027   2.142781   1.094732
    24  C    2.613522   3.199778   3.190354   1.347368   2.530821
    25  H    2.317546   3.423606   3.402122   2.098478   3.499981
    26  C    4.116562   4.555220   4.561024   2.561265   3.131526
    27  H    4.658946   4.696556   4.849471   2.753684   2.786664
    28  H    4.532687   5.053097   5.302101   3.305926   4.011888
                   21         22         23         24         25
    21  H    0.000000
    22  H    1.756142   0.000000
    23  H    1.775598   1.769353   0.000000
    24  C    3.267618   2.716960   3.198991   0.000000
    25  H    4.141197   3.796170   4.101818   1.090195   0.000000
    26  C    3.948728   2.747689   3.795394   1.505543   2.187396
    27  H    3.679657   2.132148   3.307214   2.160700   3.070831
    28  H    4.919217   3.677939   4.500749   2.117598   2.404139
                   26         27         28
    26  C    0.000000
    27  H    1.094569   0.000000
    28  H    1.097685   1.745294   0.000000
 Stoichiometry    C10H18
 Framework group  C1[X(C10H18)]
 Deg. of freedom    78
 Full point group                 C1      NOp   1
 Largest Abelian subgroup         C1      NOp   1
 Largest concise Abelian subgroup C1      NOp   1
                         Standard orientation:                         
 ---------------------------------------------------------------------
 Center     Atomic      Atomic             Coordinates (Angstroms)
 Number     Number       Type             X           Y           Z
 ---------------------------------------------------------------------
      1          6           0       -0.745853   -0.045479    0.580316
      2          1           0       -0.286581    0.606583    1.335566
      3          1           0       -0.871536   -1.012128    1.082629
      4          6           0       -2.090190    0.530266    0.185587
      5          6           0       -2.144016    2.035396    0.119985
      6          1           0       -1.893323    2.466901    1.094564
      7          1           0       -1.432532    2.412386   -0.621274
      8          1           0       -3.137167    2.403120   -0.158801
      9          6           0       -3.189363   -0.206010   -0.071417
     10          1           0       -4.114897    0.310445   -0.324737
     11          6           0       -3.306943   -1.697253   -0.075126
     12          1           0       -3.755127   -2.025124   -1.018788
     13          1           0       -3.959026   -2.020734    0.741821
     14          1           0       -2.347575   -2.210000    0.024253
     15          6           0        3.933052   -0.920067    0.330467
     16          1           0        3.745672   -1.994179    0.432986
     17          1           0        4.707416   -0.789594   -0.432584
     18          1           0        4.322213   -0.557808    1.287652
     19          6           0        2.691960   -0.156305   -0.051612
     20          6           0        2.901849    1.323938   -0.213701
     21          1           0        3.383885    1.735137    0.679975
     22          1           0        1.972944    1.880930   -0.355411
     23          1           0        3.548659    1.520172   -1.074843
     24          6           0        1.515357   -0.793297   -0.210500
     25          1           0        1.481886   -1.870748   -0.047699
     26          6           0        0.194761   -0.197087   -0.619429
     27          1           0        0.329719    0.762994   -1.127476
     28          1           0       -0.258320   -0.862960   -1.365247
 ---------------------------------------------------------------------
 Rotational constants (GHZ):           2.4779110           0.5324369           0.4581654
 Leave Link  202 at Wed Jul 14 14:07:09 2021, MaxMem=   524288000 cpu:               0.0 elap:               0.1
 (Enter /opt/gaussian/g16_legacy/l301.exe)
 Standard basis: VSTO-6G (5D, 7F)
 Ernie: Thresh=  0.10000D-02 Tol=  0.10000D-05 Strict=F.
  NNHCO=     0 NNPyr=     0 NCTC=     0               EPep=         0.000000000
    EC=       246.537084764  ECS=         3.524454040   EG=         0.891778248
   EHC=         0.000000000  EAt=       -49.524085099  AtH=         4.217842293
 EPDDG=         0.000000000  ECC=       250.953317052 EAtT=        53.741927392
 There are    58 symmetry adapted cartesian basis functions of A   symmetry.
 There are    58 symmetry adapted basis functions of A   symmetry.
    58 basis functions,   348 primitive gaussians,    58 cartesian basis functions
    29 alpha electrons       29 beta electrons
       nuclear repulsion energy       304.6952444439 Hartrees.
 IExCor=    0 DFT=F Ex=HF Corr=None ExCW=0 ScaHFX=  1.000000
 ScaDFX=  1.000000  1.000000  1.000000  1.000000 ScalE2=  1.000000  1.000000
 IRadAn=      5 IRanWt=     -1 IRanGd=            0 ICorTp=0 IEmpDi=  4
 Integral buffers will be    131072 words long.
 Regular integral format.
 Two-electron integral symmetry is turned off.
 Leave Link  301 at Wed Jul 14 14:07:10 2021, MaxMem=   524288000 cpu:               0.1 elap:               0.2
 (Enter /opt/gaussian/g16_legacy/l302.exe)
 Do NDO integrals.
 NPDir=0 NMtPBC=     1 NCelOv=     1 NCel=       1 NClECP=     1 NCelD=      1
         NCelK=      1 NCelE2=     1 NClLst=     1 CellRange=     0.0.
 One-electron integrals computed using PRISM.
 NBasis=    58 RedAO= F EigKep=  0.00D+00  NBF=    58
 NBsUse=    58 1.00D-04 EigRej=  0.00D+00 NBFU=    58
 Leave Link  302 at Wed Jul 14 14:07:10 2021, MaxMem=   524288000 cpu:               0.3 elap:               0.3
 (Enter /opt/gaussian/g16_legacy/l303.exe)
 DipDrv:  MaxL=1.
 Leave Link  303 at Wed Jul 14 14:07:10 2021, MaxMem=   524288000 cpu:               0.1 elap:               0.1
 (Enter /opt/gaussian/g16_legacy/l401.exe)
 Simple Huckel Guess.
 JPrj=0 DoOrth=F DoCkMO=F.
 Leave Link  401 at Wed Jul 14 14:07:11 2021, MaxMem=   524288000 cpu:               0.3 elap:               0.4
 (Enter /opt/gaussian/g16_legacy/l502.exe)
 Keep J ints in memory in canonical form, NReq=866866.
 FoFCou: FMM=F IPFlag=           0 FMFlag=           0 FMFlg1=           0
         NFxFlg=           0 DoJE=F BraDBF=F KetDBF=F FulRan=T
         wScrn=  0.000000 ICntrl=       600 IOpCl=  2 I1Cent=           0 NGrid=           0
         NMat0=    1 NMatS0=    118 NMatT0=    0 NMatD0=    1 NMtDS0=    0 NMtDT0=    0
 Symmetry not used in FoFCou.
 Two-electron integral symmetry not used.
 Closed shell SCF:
 Using DIIS extrapolation, IDIIS=  1040.
 Overlap will be assumed to be unity.
 NGot=   524288000 LenX=   524213697 LenY=   524209892
 Requested convergence on RMS density matrix=1.00D-08 within 128 cycles.
 Requested convergence on MAX density matrix=1.00D-06.
 Requested convergence on             energy=1.00D-06.
 No special actions if energy rises.

 Cycle   1  Pass 1  IDiag  1:
 E= 0.216315845243457    
 DIIS: error= 2.74D-02 at cycle   1 NSaved=   1.
 NSaved= 1 IEnMin= 1 EnMin= 0.216315845243457     IErMin= 1 ErrMin= 2.74D-02
 ErrMax= 2.74D-02  0.00D+00 EMaxC= 1.00D-01 BMatC= 9.45D-02 BMatP= 9.45D-02
 IDIUse=3 WtCom= 7.26D-01 WtEn= 2.74D-01
 Coeff-Com:  0.100D+01
 Coeff-En:   0.100D+01
 Coeff:      0.100D+01
 GapD=    2.000 DampG=2.000 DampE=0.500 DampFc=1.0000 IDamp=-1.
 RMSDP=7.17D-03 MaxDP=8.49D-02              OVMax= 0.00D+00

 Cycle   2  Pass 1  IDiag  1:
 E=-0.379684347620923E-02 Delta-E=       -0.220112688720 Rises=F Damp=F
 DIIS: error= 7.93D-03 at cycle   2 NSaved=   2.
 NSaved= 2 IEnMin= 2 EnMin=-0.379684347620923E-02 IErMin= 2 ErrMin= 7.93D-03
 ErrMax= 7.93D-03  0.00D+00 EMaxC= 1.00D-01 BMatC= 6.06D-03 BMatP= 9.45D-02
 IDIUse=3 WtCom= 9.21D-01 WtEn= 7.93D-02
 Coeff-Com: -0.317D+00 0.132D+01
 Coeff-En:   0.000D+00 0.100D+01
 Coeff:     -0.292D+00 0.129D+01
 RMSDP=2.60D-03 MaxDP=2.87D-02 DE=-2.20D-01 OVMax= 0.00D+00

 Cycle   3  Pass 1  IDiag  3:
 E=-0.211491014642320E-01 Delta-E=       -0.017352257988 Rises=F Damp=F
 DIIS: error= 9.33D-04 at cycle   3 NSaved=   3.
 NSaved= 3 IEnMin= 3 EnMin=-0.211491014642320E-01 IErMin= 3 ErrMin= 9.33D-04
 ErrMax= 9.33D-04  0.00D+00 EMaxC= 1.00D-01 BMatC= 7.26D-05 BMatP= 6.06D-03
 IDIUse=3 WtCom= 9.91D-01 WtEn= 9.33D-03
 Coeff-Com:  0.107D+00-0.502D+00 0.139D+01
 Coeff-En:   0.000D+00 0.000D+00 0.100D+01
 Coeff:      0.106D+00-0.497D+00 0.139D+01
 Gap=     0.377 Goal=   None    Shift=    0.000
 RMSDP=4.22D-04 MaxDP=4.11D-03 DE=-1.74D-02 OVMax= 6.22D-03

 Cycle   4  Pass 1  IDiag  3:
 E=-0.214792554208429E-01 Delta-E=       -0.000330153957 Rises=F Damp=F
 DIIS: error= 1.81D-04 at cycle   4 NSaved=   4.
 NSaved= 4 IEnMin= 4 EnMin=-0.214792554208429E-01 IErMin= 4 ErrMin= 1.81D-04
 ErrMax= 1.81D-04  0.00D+00 EMaxC= 1.00D-01 BMatC= 3.15D-06 BMatP= 7.26D-05
 IDIUse=3 WtCom= 9.98D-01 WtEn= 1.81D-03
 Coeff-Com: -0.474D-01 0.227D+00-0.740D+00 0.156D+01
 Coeff-En:   0.000D+00 0.000D+00 0.000D+00 0.100D+01
 Coeff:     -0.473D-01 0.227D+00-0.738D+00 0.156D+01
 Gap=     0.377 Goal=   None    Shift=    0.000
 RMSDP=1.08D-04 MaxDP=1.17D-03 DE=-3.30D-04 OVMax= 7.76D-04

 Cycle   5  Pass 1  IDiag  3:
 E=-0.214970588276628E-01 Delta-E=       -0.000017803407 Rises=F Damp=F
 DIIS: error= 5.27D-05 at cycle   5 NSaved=   5.
 NSaved= 5 IEnMin= 5 EnMin=-0.214970588276628E-01 IErMin= 5 ErrMin= 5.27D-05
 ErrMax= 5.27D-05  0.00D+00 EMaxC= 1.00D-01 BMatC= 1.78D-07 BMatP= 3.15D-06
 IDIUse=1 WtCom= 1.00D+00 WtEn= 0.00D+00
 Coeff-Com:  0.140D-01-0.673D-01 0.226D+00-0.615D+00 0.144D+01
 Coeff:      0.140D-01-0.673D-01 0.226D+00-0.615D+00 0.144D+01
 Gap=     0.377 Goal=   None    Shift=    0.000
 RMSDP=2.65D-05 MaxDP=3.14D-04 DE=-1.78D-05 OVMax= 2.00D-04

 Cycle   6  Pass 1  IDiag  3:
 E=-0.214981548571700E-01 Delta-E=       -0.000001096030 Rises=F Damp=F
 DIIS: error= 1.80D-05 at cycle   6 NSaved=   6.
 NSaved= 6 IEnMin= 6 EnMin=-0.214981548571700E-01 IErMin= 6 ErrMin= 1.80D-05
 ErrMax= 1.80D-05  0.00D+00 EMaxC= 1.00D-01 BMatC= 1.48D-08 BMatP= 1.78D-07
 IDIUse=1 WtCom= 1.00D+00 WtEn= 0.00D+00
 Coeff-Com: -0.519D-02 0.248D-01-0.820D-01 0.224D+00-0.727D+00 0.157D+01
 Coeff:     -0.519D-02 0.248D-01-0.820D-01 0.224D+00-0.727D+00 0.157D+01
 Gap=     0.377 Goal=   None    Shift=    0.000
 RMSDP=8.95D-06 MaxDP=1.16D-04 DE=-1.10D-06 OVMax= 8.54D-05

 Cycle   7  Pass 1  IDiag  3:
 E=-0.214982565414630E-01 Delta-E=       -0.000000101684 Rises=F Damp=F
 DIIS: error= 4.54D-06 at cycle   7 NSaved=   7.
 NSaved= 7 IEnMin= 7 EnMin=-0.214982565414630E-01 IErMin= 7 ErrMin= 4.54D-06
 ErrMax= 4.54D-06  0.00D+00 EMaxC= 1.00D-01 BMatC= 9.94D-10 BMatP= 1.48D-08
 IDIUse=1 WtCom= 1.00D+00 WtEn= 0.00D+00
 Coeff-Com:  0.120D-02-0.571D-02 0.183D-01-0.494D-01 0.218D+00-0.721D+00
 Coeff-Com:  0.154D+01
 Coeff:      0.120D-02-0.571D-02 0.183D-01-0.494D-01 0.218D+00-0.721D+00
 Coeff:      0.154D+01
 Gap=     0.377 Goal=   None    Shift=    0.000
 RMSDP=2.35D-06 MaxDP=3.25D-05 DE=-1.02D-07 OVMax= 2.66D-05

 Cycle   8  Pass 1  IDiag  3:
 E=-0.214982631398470E-01 Delta-E=       -0.000000006598 Rises=F Damp=F
 DIIS: error= 1.29D-06 at cycle   8 NSaved=   8.
 NSaved= 8 IEnMin= 8 EnMin=-0.214982631398470E-01 IErMin= 8 ErrMin= 1.29D-06
 ErrMax= 1.29D-06  0.00D+00 EMaxC= 1.00D-01 BMatC= 4.73D-11 BMatP= 9.94D-10
 IDIUse=1 WtCom= 1.00D+00 WtEn= 0.00D+00
 Coeff-Com: -0.104D-03 0.482D-03-0.139D-02 0.340D-02-0.307D-01 0.153D+00
 Coeff-Com: -0.512D+00 0.139D+01
 Coeff:     -0.104D-03 0.482D-03-0.139D-02 0.340D-02-0.307D-01 0.153D+00
 Coeff:     -0.512D+00 0.139D+01
 Gap=     0.377 Goal=   None    Shift=    0.000
 RMSDP=4.63D-07 MaxDP=7.67D-06 DE=-6.60D-09 OVMax= 6.29D-06

 Cycle   9  Pass 1  IDiag  3:
 E=-0.214982634403782E-01 Delta-E=       -0.000000000301 Rises=F Damp=F
 DIIS: error= 3.28D-07 at cycle   9 NSaved=   9.
 NSaved= 9 IEnMin= 9 EnMin=-0.214982634403782E-01 IErMin= 9 ErrMin= 3.28D-07
 ErrMax= 3.28D-07  0.00D+00 EMaxC= 1.00D-01 BMatC= 4.22D-12 BMatP= 4.73D-11
 IDIUse=1 WtCom= 1.00D+00 WtEn= 0.00D+00
 Coeff-Com:  0.335D-04-0.152D-03 0.383D-03-0.716D-03 0.107D-01-0.623D-01
 Coeff-Com:  0.231D+00-0.826D+00 0.165D+01
 Coeff:      0.335D-04-0.152D-03 0.383D-03-0.716D-03 0.107D-01-0.623D-01
 Coeff:      0.231D+00-0.826D+00 0.165D+01
 Gap=     0.377 Goal=   None    Shift=    0.000
 RMSDP=1.55D-07 MaxDP=2.47D-06 DE=-3.01D-10 OVMax= 2.07D-06

 Cycle  10  Pass 1  IDiag  3:
 E=-0.214982634697662E-01 Delta-E=       -0.000000000029 Rises=F Damp=F
 DIIS: error= 6.16D-08 at cycle  10 NSaved=  10.
 NSaved=10 IEnMin=10 EnMin=-0.214982634697662E-01 IErMin=10 ErrMin= 6.16D-08
 ErrMax= 6.16D-08  0.00D+00 EMaxC= 1.00D-01 BMatC= 2.45D-13 BMatP= 4.22D-12
 IDIUse=1 WtCom= 1.00D+00 WtEn= 0.00D+00
 Coeff-Com: -0.313D-05 0.120D-04-0.623D-06-0.959D-04-0.238D-02 0.176D-01
 Coeff-Com: -0.717D-01 0.296D+00-0.800D+00 0.156D+01
 Coeff:     -0.313D-05 0.120D-04-0.623D-06-0.959D-04-0.238D-02 0.176D-01
 Coeff:     -0.717D-01 0.296D+00-0.800D+00 0.156D+01
 Gap=     0.377 Goal=   None    Shift=    0.000
 RMSDP=3.81D-08 MaxDP=5.24D-07 DE=-2.94D-11 OVMax= 4.01D-07

 Cycle  11  Pass 1  IDiag  3:
 E=-0.214982634711873E-01 Delta-E=       -0.000000000001 Rises=F Damp=F
 DIIS: error= 1.08D-08 at cycle  11 NSaved=  11.
 NSaved=11 IEnMin=11 EnMin=-0.214982634711873E-01 IErMin=11 ErrMin= 1.08D-08
 ErrMax= 1.08D-08  0.00D+00 EMaxC= 1.00D-01 BMatC= 7.57D-15 BMatP= 2.45D-13
 IDIUse=1 WtCom= 1.00D+00 WtEn= 0.00D+00
 Coeff-Com:  0.184D-06 0.548D-07-0.127D-04 0.665D-04 0.642D-03-0.534D-02
 Coeff-Com:  0.225D-01-0.965D-01 0.279D+00-0.653D+00 0.145D+01
 Coeff:      0.184D-06 0.548D-07-0.127D-04 0.665D-04 0.642D-03-0.534D-02
 Coeff:      0.225D-01-0.965D-01 0.279D+00-0.653D+00 0.145D+01
 Gap=     0.377 Goal=   None    Shift=    0.000
 RMSDP=5.58D-09 MaxDP=7.55D-08 DE=-1.42D-12 OVMax= 3.94D-08

 Cycle  12  Pass 2  IDiag  1:
 SCF Done:  E(RPM3) = -0.214982634712E-01 A.U. after   12 cycles
            NFock= 11  Conv=0.56D-08     -V/T= 0.9997
 KE=-7.902392627000D+01 PE=-4.916881704270D+02 EE= 2.659953539896D+02
 Leave Link  502 at Wed Jul 14 14:07:11 2021, MaxMem=   524288000 cpu:               0.2 elap:               0.4
 (Enter /opt/gaussian/g16_legacy/l601.exe)
 Copying SCF densities to generalized density rwf, IOpCl= 0 IROHF=0.

 **********************************************************************

            Population analysis using the SCF density.

 **********************************************************************

 Orbital symmetries:
       Occupied  (A) (A) (A) (A) (A) (A) (A) (A) (A) (A) (A) (A)
                 (A) (A) (A) (A) (A) (A) (A) (A) (A) (A) (A) (A)
                 (A) (A) (A) (A) (A)
       Virtual   (A) (A) (A) (A) (A) (A) (A) (A) (A) (A) (A) (A)
                 (A) (A) (A) (A) (A) (A) (A) (A) (A) (A) (A) (A)
                 (A) (A) (A) (A) (A)
 The electronic state is 1-A.
 Alpha  occ. eigenvalues --   -1.45655  -1.35028  -1.17466  -1.11159  -1.01325
 Alpha  occ. eigenvalues --   -0.94637  -0.86443  -0.80579  -0.66716  -0.65064
 Alpha  occ. eigenvalues --   -0.60924  -0.58219  -0.57957  -0.55843  -0.54968
 Alpha  occ. eigenvalues --   -0.53178  -0.51336  -0.50976  -0.49366  -0.48629
 Alpha  occ. eigenvalues --   -0.48144  -0.47415  -0.47146  -0.47086  -0.45314
 Alpha  occ. eigenvalues --   -0.43725  -0.42013  -0.35448  -0.34311
 Alpha virt. eigenvalues --    0.03403   0.04219   0.11785   0.12377   0.13147
 Alpha virt. eigenvalues --    0.13741   0.14080   0.14222   0.14893   0.15025
 Alpha virt. eigenvalues --    0.15610   0.15742   0.15844   0.16121   0.16312
 Alpha virt. eigenvalues --    0.16457   0.16529   0.16663   0.16885   0.17032
 Alpha virt. eigenvalues --    0.17092   0.17146   0.17828   0.17958   0.18162
 Alpha virt. eigenvalues --    0.20728   0.21152   0.22196   0.22558
          Condensed to atoms (all electrons):
               1          2          3          4          5          6
     1  C    4.050088   0.000000   0.000000   0.000000   0.000000   0.000000
     2  H    0.000000   0.946074   0.000000   0.000000   0.000000   0.000000
     3  H    0.000000   0.000000   0.945062   0.000000   0.000000   0.000000
     4  C    0.000000   0.000000   0.000000   4.127313   0.000000   0.000000
     5  C    0.000000   0.000000   0.000000   0.000000   4.066429   0.000000
     6  H    0.000000   0.000000   0.000000   0.000000   0.000000   0.955820
     7  H    0.000000   0.000000   0.000000   0.000000   0.000000   0.000000
     8  H    0.000000   0.000000   0.000000   0.000000   0.000000   0.000000
     9  C    0.000000   0.000000   0.000000   0.000000   0.000000   0.000000
    10  H    0.000000   0.000000   0.000000   0.000000   0.000000   0.000000
    11  C    0.000000   0.000000   0.000000   0.000000   0.000000   0.000000
    12  H    0.000000   0.000000   0.000000   0.000000   0.000000   0.000000
    13  H    0.000000   0.000000   0.000000   0.000000   0.000000   0.000000
    14  H    0.000000   0.000000   0.000000   0.000000   0.000000   0.000000
    15  C    0.000000   0.000000   0.000000   0.000000   0.000000   0.000000
    16  H    0.000000   0.000000   0.000000   0.000000   0.000000   0.000000
    17  H    0.000000   0.000000   0.000000   0.000000   0.000000   0.000000
    18  H    0.000000   0.000000   0.000000   0.000000   0.000000   0.000000
    19  C    0.000000   0.000000   0.000000   0.000000   0.000000   0.000000
    20  C    0.000000   0.000000   0.000000   0.000000   0.000000   0.000000
    21  H    0.000000   0.000000   0.000000   0.000000   0.000000   0.000000
    22  H    0.000000   0.000000   0.000000   0.000000   0.000000   0.000000
    23  H    0.000000   0.000000   0.000000   0.000000   0.000000   0.000000
    24  C    0.000000   0.000000   0.000000   0.000000   0.000000   0.000000
    25  H    0.000000   0.000000   0.000000   0.000000   0.000000   0.000000
    26  C    0.000000   0.000000   0.000000   0.000000   0.000000   0.000000
    27  H    0.000000   0.000000   0.000000   0.000000   0.000000   0.000000
    28  H    0.000000   0.000000   0.000000   0.000000   0.000000   0.000000
               7          8          9         10         11         12
     1  C    0.000000   0.000000   0.000000   0.000000   0.000000   0.000000
     2  H    0.000000   0.000000   0.000000   0.000000   0.000000   0.000000
     3  H    0.000000   0.000000   0.000000   0.000000   0.000000   0.000000
     4  C    0.000000   0.000000   0.000000   0.000000   0.000000   0.000000
     5  C    0.000000   0.000000   0.000000   0.000000   0.000000   0.000000
     6  H    0.000000   0.000000   0.000000   0.000000   0.000000   0.000000
     7  H    0.955075   0.000000   0.000000   0.000000   0.000000   0.000000
     8  H    0.000000   0.960220   0.000000   0.000000   0.000000   0.000000
     9  C    0.000000   0.000000   4.150601   0.000000   0.000000   0.000000
    10  H    0.000000   0.000000   0.000000   0.906319   0.000000   0.000000
    11  C    0.000000   0.000000   0.000000   0.000000   4.068275   0.000000
    12  H    0.000000   0.000000   0.000000   0.000000   0.000000   0.958155
    13  H    0.000000   0.000000   0.000000   0.000000   0.000000   0.000000
    14  H    0.000000   0.000000   0.000000   0.000000   0.000000   0.000000
    15  C    0.000000   0.000000   0.000000   0.000000   0.000000   0.000000
    16  H    0.000000   0.000000   0.000000   0.000000   0.000000   0.000000
    17  H    0.000000   0.000000   0.000000   0.000000   0.000000   0.000000
    18  H    0.000000   0.000000   0.000000   0.000000   0.000000   0.000000
    19  C    0.000000   0.000000   0.000000   0.000000   0.000000   0.000000
    20  C    0.000000   0.000000   0.000000   0.000000   0.000000   0.000000
    21  H    0.000000   0.000000   0.000000   0.000000   0.000000   0.000000
    22  H    0.000000   0.000000   0.000000   0.000000   0.000000   0.000000
    23  H    0.000000   0.000000   0.000000   0.000000   0.000000   0.000000
    24  C    0.000000   0.000000   0.000000   0.000000   0.000000   0.000000
    25  H    0.000000   0.000000   0.000000   0.000000   0.000000   0.000000
    26  C    0.000000   0.000000   0.000000   0.000000   0.000000   0.000000
    27  H    0.000000   0.000000   0.000000   0.000000   0.000000   0.000000
    28  H    0.000000   0.000000   0.000000   0.000000   0.000000   0.000000
              13         14         15         16         17         18
     1  C    0.000000   0.000000   0.000000   0.000000   0.000000   0.000000
     2  H    0.000000   0.000000   0.000000   0.000000   0.000000   0.000000
     3  H    0.000000   0.000000   0.000000   0.000000   0.000000   0.000000
     4  C    0.000000   0.000000   0.000000   0.000000   0.000000   0.000000
     5  C    0.000000   0.000000   0.000000   0.000000   0.000000   0.000000
     6  H    0.000000   0.000000   0.000000   0.000000   0.000000   0.000000
     7  H    0.000000   0.000000   0.000000   0.000000   0.000000   0.000000
     8  H    0.000000   0.000000   0.000000   0.000000   0.000000   0.000000
     9  C    0.000000   0.000000   0.000000   0.000000   0.000000   0.000000
    10  H    0.000000   0.000000   0.000000   0.000000   0.000000   0.000000
    11  C    0.000000   0.000000   0.000000   0.000000   0.000000   0.000000
    12  H    0.000000   0.000000   0.000000   0.000000   0.000000   0.000000
    13  H    0.955527   0.000000   0.000000   0.000000   0.000000   0.000000
    14  H    0.000000   0.955676   0.000000   0.000000   0.000000   0.000000
    15  C    0.000000   0.000000   4.068585   0.000000   0.000000   0.000000
    16  H    0.000000   0.000000   0.000000   0.959051   0.000000   0.000000
    17  H    0.000000   0.000000   0.000000   0.000000   0.955810   0.000000
    18  H    0.000000   0.000000   0.000000   0.000000   0.000000   0.955654
    19  C    0.000000   0.000000   0.000000   0.000000   0.000000   0.000000
    20  C    0.000000   0.000000   0.000000   0.000000   0.000000   0.000000
    21  H    0.000000   0.000000   0.000000   0.000000   0.000000   0.000000
    22  H    0.000000   0.000000   0.000000   0.000000   0.000000   0.000000
    23  H    0.000000   0.000000   0.000000   0.000000   0.000000   0.000000
    24  C    0.000000   0.000000   0.000000   0.000000   0.000000   0.000000
    25  H    0.000000   0.000000   0.000000   0.000000   0.000000   0.000000
    26  C    0.000000   0.000000   0.000000   0.000000   0.000000   0.000000
    27  H    0.000000   0.000000   0.000000   0.000000   0.000000   0.000000
    28  H    0.000000   0.000000   0.000000   0.000000   0.000000   0.000000
              19         20         21         22         23         24
     1  C    0.000000   0.000000   0.000000   0.000000   0.000000   0.000000
     2  H    0.000000   0.000000   0.000000   0.000000   0.000000   0.000000
     3  H    0.000000   0.000000   0.000000   0.000000   0.000000   0.000000
     4  C    0.000000   0.000000   0.000000   0.000000   0.000000   0.000000
     5  C    0.000000   0.000000   0.000000   0.000000   0.000000   0.000000
     6  H    0.000000   0.000000   0.000000   0.000000   0.000000   0.000000
     7  H    0.000000   0.000000   0.000000   0.000000   0.000000   0.000000
     8  H    0.000000   0.000000   0.000000   0.000000   0.000000   0.000000
     9  C    0.000000   0.000000   0.000000   0.000000   0.000000   0.000000
    10  H    0.000000   0.000000   0.000000   0.000000   0.000000   0.000000
    11  C    0.000000   0.000000   0.000000   0.000000   0.000000   0.000000
    12  H    0.000000   0.000000   0.000000   0.000000   0.000000   0.000000
    13  H    0.000000   0.000000   0.000000   0.000000   0.000000   0.000000
    14  H    0.000000   0.000000   0.000000   0.000000   0.000000   0.000000
    15  C    0.000000   0.000000   0.000000   0.000000   0.000000   0.000000
    16  H    0.000000   0.000000   0.000000   0.000000   0.000000   0.000000
    17  H    0.000000   0.000000   0.000000   0.000000   0.000000   0.000000
    18  H    0.000000   0.000000   0.000000   0.000000   0.000000   0.000000
    19  C    4.118626   0.000000   0.000000   0.000000   0.000000   0.000000
    20  C    0.000000   4.067698   0.000000   0.000000   0.000000   0.000000
    21  H    0.000000   0.000000   0.956424   0.000000   0.000000   0.000000
    22  H    0.000000   0.000000   0.000000   0.954485   0.000000   0.000000
    23  H    0.000000   0.000000   0.000000   0.000000   0.954857   0.000000
    24  C    0.000000   0.000000   0.000000   0.000000   0.000000   4.158609
    25  H    0.000000   0.000000   0.000000   0.000000   0.000000   0.000000
    26  C    0.000000   0.000000   0.000000   0.000000   0.000000   0.000000
    27  H    0.000000   0.000000   0.000000   0.000000   0.000000   0.000000
    28  H    0.000000   0.000000   0.000000   0.000000   0.000000   0.000000
              25         26         27         28
     1  C    0.000000   0.000000   0.000000   0.000000
     2  H    0.000000   0.000000   0.000000   0.000000
     3  H    0.000000   0.000000   0.000000   0.000000
     4  C    0.000000   0.000000   0.000000   0.000000
     5  C    0.000000   0.000000   0.000000   0.000000
     6  H    0.000000   0.000000   0.000000   0.000000
     7  H    0.000000   0.000000   0.000000   0.000000
     8  H    0.000000   0.000000   0.000000   0.000000
     9  C    0.000000   0.000000   0.000000   0.000000
    10  H    0.000000   0.000000   0.000000   0.000000
    11  C    0.000000   0.000000   0.000000   0.000000
    12  H    0.000000   0.000000   0.000000   0.000000
    13  H    0.000000   0.000000   0.000000   0.000000
    14  H    0.000000   0.000000   0.000000   0.000000
    15  C    0.000000   0.000000   0.000000   0.000000
    16  H    0.000000   0.000000   0.000000   0.000000
    17  H    0.000000   0.000000   0.000000   0.000000
    18  H    0.000000   0.000000   0.000000   0.000000
    19  C    0.000000   0.000000   0.000000   0.000000
    20  C    0.000000   0.000000   0.000000   0.000000
    21  H    0.000000   0.000000   0.000000   0.000000
    22  H    0.000000   0.000000   0.000000   0.000000
    23  H    0.000000   0.000000   0.000000   0.000000
    24  C    0.000000   0.000000   0.000000   0.000000
    25  H    0.904967   0.000000   0.000000   0.000000
    26  C    0.000000   4.052947   0.000000   0.000000
    27  H    0.000000   0.000000   0.944523   0.000000
    28  H    0.000000   0.000000   0.000000   0.947128
 Mulliken charges:
               1
     1  C   -0.050088
     2  H    0.053926
     3  H    0.054938
     4  C   -0.127313
     5  C   -0.066429
     6  H    0.044180
     7  H    0.044925
     8  H    0.039780
     9  C   -0.150601
    10  H    0.093681
    11  C   -0.068275
    12  H    0.041845
    13  H    0.044473
    14  H    0.044324
    15  C   -0.068585
    16  H    0.040949
    17  H    0.044190
    18  H    0.044346
    19  C   -0.118626
    20  C   -0.067698
    21  H    0.043576
    22  H    0.045515
    23  H    0.045143
    24  C   -0.158609
    25  H    0.095033
    26  C   -0.052947
    27  H    0.055477
    28  H    0.052872
 Sum of Mulliken charges =   0.00000
 Mulliken charges with hydrogens summed into heavy atoms:
               1
     1  C    0.058776
     4  C   -0.127313
     5  C    0.062456
     9  C   -0.056920
    11  C    0.062366
    15  C    0.060900
    19  C   -0.118626
    20  C    0.066536
    24  C   -0.063577
    26  C    0.055402
 Charge=              0.0000 electrons
 Dipole moment (field-independent basis, Debye):
    X=              0.2733    Y=              0.1430    Z=              0.0308  Tot=              0.3100
 N-N= 3.046952444439D+02 E-N=-4.916881706489D+02  KE=-7.902392627000D+01
 Leave Link  601 at Wed Jul 14 14:07:12 2021, MaxMem=   524288000 cpu:               0.4 elap:               0.4
 (Enter /opt/gaussian/g16_legacy/l701.exe)
 ... and contract with generalized density number  0.
 Compute integral first derivatives.
 Leave Link  701 at Wed Jul 14 14:07:12 2021, MaxMem=   524288000 cpu:               0.3 elap:               0.4
 (Enter /opt/gaussian/g16_legacy/l702.exe)
 L702 exits ... SP integral derivatives will be done elsewhere.
 Leave Link  702 at Wed Jul 14 14:07:13 2021, MaxMem=   524288000 cpu:               0.0 elap:               0.1
 (Enter /opt/gaussian/g16_legacy/l703.exe)
 Integral derivatives from FoFJK, PRISM(SPDF).
 Compute integral first derivatives, UseDBF=F ICtDFT=           0.
 Calling FoFJK, ICntrl=      2127 FMM=F ISym2X=0 I1Cent= 0 IOpClX= 0 NMat=1 NMatS=1 NMatT=0.
 FoFJK:  IHMeth= 9 ICntrl=    2127 DoSepK=F KAlg= 0 I1Cent=           0 FoldK=F
 IRaf=         0 NMat=       1 IRICut=       1 DoRegI=T DoRafI=F ISym2E= 0 IDoP0=3 IntGTp=3.
 FoFCou: FMM=F IPFlag=           0 FMFlag=      100000 FMFlg1=         800
         NFxFlg=           0 DoJE=F BraDBF=F KetDBF=F FulRan=T
         wScrn=  0.000000 ICntrl=      2127 IOpCl=  0 I1Cent=           0 NGrid=           0
         NMat0=    1 NMatS0=      1 NMatT0=    0 NMatD0=    1 NMtDS0=    0 NMtDT0=    0
 Symmetry not used in FoFCou.
 Leave Link  703 at Wed Jul 14 14:07:13 2021, MaxMem=   524288000 cpu:               0.3 elap:               0.4
 (Enter /opt/gaussian/g16_legacy/l716.exe)
 Dipole        = 1.07538585D-01 5.62435891D-02 1.21084722D-02
 ***** Axes restored to original set *****
 -------------------------------------------------------------------
 Center     Atomic                   Forces (Hartrees/Bohr)
 Number     Number              X              Y              Z
 -------------------------------------------------------------------
      1        6          -0.005013939   -0.009073759   -0.011600250
      2        1           0.003635039    0.005229594   -0.002612292
      3        1          -0.004350221   -0.001082561    0.006947230
      4        6           0.001334056   -0.000814172    0.003403820
      5        6          -0.005826672   -0.004769916    0.014691031
      6        1           0.001246975    0.001692654   -0.000281464
      7        1           0.002589797   -0.000521383   -0.000165239
      8        1          -0.001457602   -0.000389747   -0.001255094
      9        6           0.011570671    0.000609013    0.008734550
     10        1          -0.003681937   -0.000097279   -0.004165281
     11        6           0.007587106    0.005654973   -0.014777304
     12        1          -0.001315633   -0.001944242    0.000209918
     13        1          -0.001480378    0.001161498    0.001276118
     14        1           0.003043066    0.001332212    0.002330739
     15        6          -0.010617122   -0.002488832   -0.010969201
     16        1          -0.000737697   -0.000421747    0.001603539
     17        1           0.001874540   -0.000238471   -0.000347211
     18        1           0.001339567    0.001419227   -0.000052895
     19        6          -0.002687481    0.001163901   -0.003603666
     20        6          -0.006449108   -0.003222518    0.014680001
     21        1           0.001842926    0.001444788    0.000483204
     22        1          -0.004339914   -0.001944057   -0.001852662
     23        1           0.001638602   -0.000966437   -0.000491686
     24        6           0.005099157    0.003138011   -0.011766645
     25        1          -0.001757963   -0.000402148    0.004977302
     26        6           0.006130145    0.010274401    0.011501184
     27        1           0.004495627    0.001051685   -0.008381366
     28        1          -0.003711608   -0.005794686    0.001483620
 -------------------------------------------------------------------
 Cartesian Forces:  Max     0.014777304 RMS     0.005378343
 Leave Link  716 at Wed Jul 14 14:07:13 2021, MaxMem=   524288000 cpu:               0.1 elap:               0.1
 (Enter /opt/gaussian/g16_legacy/l103.exe)

 GradGradGradGradGradGradGradGradGradGradGradGradGradGradGradGradGradGrad
 Berny optimization.
 FormGI is forming the generalized inverse of G from B-inverse, IUseBI=4.
 Internal  Forces:  Max     0.018604859 RMS     0.004780727
 Search for a local minimum.
 Step number   1 out of a maximum of  138
 All quantities printed in internal units (Hartrees-Bohrs-Radians)
 RMS Force = .47807D-02 SwitMx=.10000D-02 MixMth= 1
 Mixed Optimization -- RFO/linear search
 Second derivative matrix not updated -- first step.
 ITU=  0
     Eigenvalues ---    0.00342   0.00571   0.00666   0.00680   0.00693
     Eigenvalues ---    0.00716   0.00820   0.01219   0.01287   0.01570
     Eigenvalues ---    0.01643   0.02780   0.02785   0.04014   0.04133
     Eigenvalues ---    0.05350   0.05403   0.06982   0.07038   0.07087
     Eigenvalues ---    0.07092   0.07265   0.07300   0.07348   0.07505
     Eigenvalues ---    0.09278   0.09366   0.12769   0.12846   0.15999
     Eigenvalues ---    0.15999   0.16000   0.16000   0.16000   0.16000
     Eigenvalues ---    0.16000   0.16000   0.16000   0.16000   0.16000
     Eigenvalues ---    0.16000   0.16000   0.16000   0.21859   0.21867
     Eigenvalues ---    0.22000   0.22000   0.24993   0.24996   0.24998
     Eigenvalues ---    0.24999   0.29236   0.30876   0.31601   0.31702
     Eigenvalues ---    0.31803   0.31981   0.32814   0.33858   0.33939
     Eigenvalues ---    0.34061   0.34186   0.34225   0.34227   0.34247
     Eigenvalues ---    0.34249   0.34249   0.34250   0.34271   0.34290
     Eigenvalues ---    0.34305   0.34333   0.34545   0.34545   0.34790
     Eigenvalues ---    0.34844   0.55511   0.55585
 RFO step:  Lambda=-9.11874396D-03 EMin= 3.42200186D-03
 Linear search not attempted -- first point.
 Iteration  1 RMS(Cart)=  0.09647419 RMS(Int)=  0.00102922
 Iteration  2 RMS(Cart)=  0.00177716 RMS(Int)=  0.00006748
 Iteration  3 RMS(Cart)=  0.00000137 RMS(Int)=  0.00006748
 Iteration  4 RMS(Cart)=  0.00000000 RMS(Int)=  0.00006748
 ITry= 1 IFail=0 DXMaxC= 3.59D-01 DCOld= 1.00D+10 DXMaxT= 3.00D-01 DXLimC= 3.00D+00 Rises=F
 Variable       Old X    -DE/DX   Delta X   Delta X   Delta X     New X
                                 (Linear)    (Quad)   (Total)
    R1        2.07571   0.00672   0.00000   0.01933   0.01933   2.09504
    R2        2.07227   0.00790   0.00000   0.02260   0.02260   2.09486
    R3        2.86251  -0.01683   0.00000  -0.05296  -0.05296   2.80955
    R4        2.89512  -0.00762   0.00000  -0.02526  -0.02526   2.86986
    R5        2.84880  -0.01402   0.00000  -0.04311  -0.04311   2.80569
    R6        2.54681  -0.01803   0.00000  -0.03195  -0.03195   2.51486
    R7        2.06910   0.00191   0.00000   0.00542   0.00542   2.07452
    R8        2.06819   0.00240   0.00000   0.00682   0.00682   2.07501
    R9        2.06948   0.00196   0.00000   0.00558   0.00558   2.07506
   R10        2.05929   0.00554   0.00000   0.01549   0.01549   2.07478
   R11        2.82680  -0.01435   0.00000  -0.04255  -0.04255   2.78425
   R12        2.06911   0.00224   0.00000   0.00638   0.00638   2.07549
   R13        2.06772   0.00219   0.00000   0.00622   0.00622   2.07394
   R14        2.06419   0.00376   0.00000   0.01062   0.01062   2.07481
   R15        2.06952   0.00181   0.00000   0.00516   0.00516   2.07468
   R16        2.06915   0.00169   0.00000   0.00481   0.00481   2.07396
   R17        2.06913   0.00175   0.00000   0.00497   0.00497   2.07410
   R18        2.84693  -0.01283   0.00000  -0.03932  -0.03932   2.80760
   R19        2.84179  -0.01538   0.00000  -0.04677  -0.04677   2.79502
   R20        2.54616  -0.01860   0.00000  -0.03293  -0.03293   2.51323
   R21        2.07018   0.00208   0.00000   0.00592   0.00592   2.07609
   R22        2.06421   0.00426   0.00000   0.01201   0.01201   2.07621
   R23        2.06874   0.00193   0.00000   0.00548   0.00548   2.07422
   R24        2.06017   0.00526   0.00000   0.01473   0.01473   2.07489
   R25        2.84506  -0.01585   0.00000  -0.04846  -0.04846   2.79661
   R26        2.06844   0.00925   0.00000   0.02629   0.02629   2.09473
   R27        2.07432   0.00701   0.00000   0.02012   0.02012   2.09445
    A1        1.82994   0.00056   0.00000   0.02069   0.02065   1.85060
    A2        1.90140   0.00161   0.00000   0.00789   0.00791   1.90931
    A3        1.91823   0.00102   0.00000   0.00543   0.00545   1.92367
    A4        1.93125   0.00085   0.00000  -0.00435  -0.00457   1.92668
    A5        1.91968   0.00104   0.00000  -0.00041  -0.00066   1.91902
    A6        1.95890  -0.00467   0.00000  -0.02585  -0.02599   1.93290
    A7        2.00701   0.00189   0.00000   0.00738   0.00735   2.01436
    A8        2.17228  -0.00420   0.00000  -0.01611  -0.01615   2.15613
    A9        2.10369   0.00231   0.00000   0.00903   0.00900   2.11269
   A10        1.92470   0.00051   0.00000   0.00227   0.00225   1.92696
   A11        1.92856  -0.00066   0.00000  -0.00524  -0.00524   1.92331
   A12        1.95920   0.00027   0.00000   0.00369   0.00368   1.96288
   A13        1.89469  -0.00075   0.00000  -0.00854  -0.00855   1.88614
   A14        1.87748   0.00011   0.00000   0.00327   0.00325   1.88073
   A15        1.87703   0.00050   0.00000   0.00436   0.00437   1.88140
   A16        2.06930   0.00434   0.00000   0.01875   0.01870   2.08800
   A17        2.22585  -0.00907   0.00000  -0.03952  -0.03957   2.18629
   A18        1.98791   0.00473   0.00000   0.02103   0.02099   2.00890
   A19        1.91010   0.00130   0.00000   0.01013   0.01013   1.92023
   A20        1.91741   0.00063   0.00000   0.00222   0.00218   1.91958
   A21        1.98089  -0.00181   0.00000  -0.01172  -0.01173   1.96916
   A22        1.88705  -0.00054   0.00000  -0.00119  -0.00122   1.88583
   A23        1.87272   0.00072   0.00000   0.00689   0.00691   1.87963
   A24        1.89306  -0.00026   0.00000  -0.00596  -0.00600   1.88705
   A25        1.87875   0.00011   0.00000   0.00226   0.00225   1.88101
   A26        1.87913   0.00004   0.00000   0.00177   0.00177   1.88090
   A27        1.96061   0.00019   0.00000   0.00278   0.00277   1.96338
   A28        1.89487  -0.00092   0.00000  -0.00865  -0.00866   1.88621
   A29        1.92353   0.00021   0.00000   0.00045   0.00045   1.92398
   A30        1.92493   0.00031   0.00000   0.00101   0.00101   1.92594
   A31        1.99476   0.00313   0.00000   0.01212   0.01209   2.00686
   A32        2.10555   0.00260   0.00000   0.01008   0.01005   2.11560
   A33        2.18283  -0.00573   0.00000  -0.02208  -0.02211   2.16072
   A34        1.92086   0.00075   0.00000   0.00667   0.00669   1.92755
   A35        1.97927  -0.00355   0.00000  -0.02128  -0.02130   1.95798
   A36        1.92165   0.00060   0.00000   0.00159   0.00155   1.92319
   A37        1.86358   0.00212   0.00000   0.01605   0.01610   1.87968
   A38        1.89067  -0.00057   0.00000  -0.00276  -0.00277   1.88790
   A39        1.88493   0.00077   0.00000   0.00056   0.00048   1.88541
   A40        2.06740   0.00549   0.00000   0.02398   0.02393   2.09133
   A41        2.22786  -0.01108   0.00000  -0.04829  -0.04834   2.17952
   A42        1.98779   0.00560   0.00000   0.02460   0.02455   2.01234
   A43        1.94446  -0.00378   0.00000  -0.02046  -0.02061   1.92385
   A44        1.93091   0.00046   0.00000  -0.00671  -0.00696   1.92395
   A45        1.91632   0.00066   0.00000   0.00579   0.00590   1.92222
   A46        1.94472   0.00069   0.00000  -0.00603  -0.00634   1.93838
   A47        1.88218   0.00195   0.00000   0.01588   0.01594   1.89812
   A48        1.84171   0.00032   0.00000   0.01436   0.01438   1.85608
    D1        0.64509  -0.00074   0.00000  -0.00372  -0.00378   0.64131
    D2       -2.47468  -0.00112   0.00000  -0.01989  -0.01985  -2.49454
    D3        2.64811   0.00132   0.00000   0.02329   0.02318   2.67129
    D4       -0.47166   0.00094   0.00000   0.00712   0.00710  -0.46456
    D5       -1.48338  -0.00007   0.00000   0.00096   0.00099  -1.48239
    D6        1.68003  -0.00044   0.00000  -0.01521  -0.01509   1.66495
    D7        1.04055   0.00006   0.00000  -0.00437  -0.00429   1.03626
    D8       -1.13294   0.00157   0.00000   0.02326   0.02321  -1.10974
    D9        3.12446   0.00052   0.00000   0.00624   0.00625   3.13071
   D10       -0.96561  -0.00178   0.00000  -0.03219  -0.03210  -0.99771
   D11       -3.13910  -0.00027   0.00000  -0.00456  -0.00460   3.13948
   D12        1.11830  -0.00132   0.00000  -0.02158  -0.02155   1.09675
   D13       -3.12378  -0.00033   0.00000  -0.00794  -0.00791  -3.13169
   D14        0.98591   0.00118   0.00000   0.01969   0.01959   1.00550
   D15       -1.03987   0.00013   0.00000   0.00267   0.00264  -1.03723
   D16       -1.03809   0.00034   0.00000  -0.00642  -0.00650  -1.04459
   D17        1.05670  -0.00069   0.00000  -0.01897  -0.01904   1.03766
   D18       -3.13125  -0.00033   0.00000  -0.01456  -0.01465   3.13729
   D19        2.08261   0.00061   0.00000   0.00872   0.00880   2.09141
   D20       -2.10578  -0.00042   0.00000  -0.00383  -0.00374  -2.10952
   D21       -0.01054  -0.00006   0.00000   0.00058   0.00065  -0.00990
   D22        3.11643   0.00029   0.00000   0.00819   0.00815   3.12458
   D23       -0.04320   0.00075   0.00000   0.02646   0.02643  -0.01678
   D24       -0.00220  -0.00010   0.00000  -0.00879  -0.00875  -0.01096
   D25        3.12135   0.00036   0.00000   0.00948   0.00952   3.13087
   D26       -2.23170  -0.00016   0.00000  -0.00325  -0.00322  -2.23492
   D27        1.98214  -0.00066   0.00000  -0.00923  -0.00923   1.97292
   D28       -0.14044   0.00048   0.00000   0.00495   0.00493  -0.13551
   D29        0.89256   0.00028   0.00000   0.01432   0.01434   0.90690
   D30       -1.17678  -0.00021   0.00000   0.00833   0.00833  -1.16845
   D31        2.98382   0.00092   0.00000   0.02252   0.02249   3.00631
   D32       -3.13458   0.00014   0.00000   0.00740   0.00749  -3.12710
   D33        0.01670  -0.00011   0.00000  -0.00530  -0.00538   0.01132
   D34       -1.03968   0.00055   0.00000   0.01241   0.01250  -1.02718
   D35        2.11160   0.00030   0.00000  -0.00028  -0.00037   2.11123
   D36        1.05226  -0.00026   0.00000   0.00260   0.00269   1.05495
   D37       -2.07965  -0.00051   0.00000  -0.01009  -0.01018  -2.08983
   D38       -0.91782  -0.00007   0.00000  -0.01306  -0.01303  -0.93085
   D39       -3.00395  -0.00094   0.00000  -0.02409  -0.02399  -3.02794
   D40        1.16517   0.00007   0.00000  -0.01130  -0.01128   1.15389
   D41        2.21358   0.00025   0.00000   0.00051   0.00043   2.21402
   D42        0.12745  -0.00062   0.00000  -0.01053  -0.01053   0.11693
   D43       -1.98661   0.00039   0.00000   0.00226   0.00218  -1.98443
   D44        0.00914  -0.00011   0.00000   0.00331   0.00327   0.01242
   D45       -3.11342  -0.00060   0.00000  -0.01698  -0.01704  -3.13047
   D46       -3.12166  -0.00044   0.00000  -0.01105  -0.01099  -3.13264
   D47        0.03896  -0.00093   0.00000  -0.03134  -0.03131   0.00766
   D48       -1.80918   0.00042   0.00000   0.00145   0.00135  -1.80783
   D49        0.35654  -0.00127   0.00000  -0.02688  -0.02684   0.32970
   D50        2.36993   0.00064   0.00000  -0.00355  -0.00352   2.36641
   D51        1.35071  -0.00006   0.00000  -0.01810  -0.01819   1.33253
   D52       -2.76676  -0.00175   0.00000  -0.04643  -0.04637  -2.81313
   D53       -0.75337   0.00016   0.00000  -0.02310  -0.02305  -0.77642
         Item               Value     Threshold  Converged?
 Maximum Force            0.018605     0.000450     NO 
 RMS     Force            0.004781     0.000300     NO 
 Maximum Displacement     0.359063     0.001800     NO 
 RMS     Displacement     0.096367     0.001200     NO 
 Predicted change in Energy=-4.746293D-03
 Lowest energy point so far.  Saving SCF results.
 GradGradGradGradGradGradGradGradGradGradGradGradGradGradGradGradGradGrad

 Leave Link  103 at Wed Jul 14 14:07:13 2021, MaxMem=   524288000 cpu:               0.3 elap:               0.2
 (Enter /opt/gaussian/g16_legacy/l202.exe)
                          Input orientation:                          
 ---------------------------------------------------------------------
 Center     Atomic      Atomic             Coordinates (Angstroms)
 Number     Number       Type             X           Y           Z
 ---------------------------------------------------------------------
      1          6           0       -0.849083    0.480528    0.181897
      2          1           0       -0.339161    1.445367   -0.013462
      3          1           0       -1.329287    0.583770    1.175696
      4          6           0       -1.875465    0.243237   -0.867225
      5          6           0       -1.506277    0.693102   -2.233123
      6          1           0       -1.310313    1.773231   -2.240479
      7          1           0       -0.595454    0.179455   -2.568196
      8          1           0       -2.295666    0.490919   -2.969166
      9          6           0       -3.054806   -0.324621   -0.626937
     10          1           0       -3.772136   -0.454500   -1.447918
     11          6           0       -3.510955   -0.815626    0.685174
     12          1           0       -3.860159   -1.853256    0.597716
     13          1           0       -4.348610   -0.204030    1.044000
     14          1           0       -2.720492   -0.792615    1.446827
     15          6           0        3.362294    0.219042    2.174746
     16          1           0        2.922030   -0.033284    3.148311
     17          1           0        4.251665   -0.408941    2.036381
     18          1           0        3.688031    1.266351    2.215798
     19          6           0        2.411089    0.017516    1.051377
     20          6           0        2.954528    0.323214   -0.289834
     21          1           0        3.380535    1.335686   -0.309564
     22          1           0        2.184392    0.269606   -1.071578
     23          1           0        3.750014   -0.387892   -0.547377
     24          6           0        1.170557   -0.410640    1.267031
     25          1           0        0.832179   -0.610001    2.292375
     26          6           0        0.162799   -0.651562    0.210392
     27          1           0        0.644414   -0.760356   -0.782050
     28          1           0       -0.346964   -1.613803    0.416888
 ---------------------------------------------------------------------
                    Distance matrix (angstroms):
                    1          2          3          4          5
     1  C    0.000000
     2  H    1.108648   0.000000
     3  H    1.108554   1.771101   0.000000
     4  C    1.486749   2.129380   2.141914   0.000000
     5  C    2.511854   2.618198   3.415161   1.484708   0.000000
     6  H    2.784191   2.451579   3.617379   2.132160   1.097786
     7  H    2.778126   2.862671   3.836497   2.129741   1.098046
     8  H    3.467262   3.670841   4.257040   2.157793   1.098077
     9  C    2.483483   3.299081   2.655574   1.330806   2.452251
    10  H    3.474883   4.177616   3.732139   2.102713   2.658506
    11  C    3.003142   3.957330   2.637914   2.491176   3.848565
    12  H    3.832236   4.863320   3.560683   3.237336   4.476422
    13  H    3.668587   4.462558   3.123184   3.157416   4.429813
    14  H    2.592896   3.579350   1.975701   2.672433   4.150145
    15  C    4.666424   4.471341   4.810620   6.057085   6.584605
    16  H    4.825443   4.776879   4.727120   6.262343   7.006951
    17  H    5.499809   5.358731   5.733523   6.811606   7.252383
    18  H    5.033853   4.606508   5.169257   6.442381   6.863115
    19  C    3.405745   3.276662   3.785038   4.701758   5.156560
    20  C    3.835979   3.490559   4.535058   4.865039   4.879751
    21  H    4.343098   3.733074   4.995378   5.397218   5.290929
    22  H    3.289021   2.978312   4.182688   4.065082   3.892245
    23  H    4.736843   4.513009   5.450909   5.669800   5.624845
    24  C    2.459805   2.713609   2.691917   3.776354   4.542550
    25  H    2.910328   3.303552   2.709981   4.247637   5.258002
    26  C    1.518666   2.167761   2.164296   2.473144   3.250339
    27  H    2.167838   2.534435   3.087870   2.713713   2.973823
    28  H    2.166464   3.089301   2.523901   2.726510   3.699780
                    6          7          8          9         10
     6  H    0.000000
     7  H    1.777229   0.000000
     8  H    1.773761   1.774404   0.000000
     9  C    3.169819   3.173482   2.593729   0.000000
    10  H    3.413431   3.427569   2.321200   1.097926   0.000000
    11  C    4.483799   4.480485   4.066717   1.473362   2.179154
    12  H    5.263884   4.981286   4.545926   2.117805   2.479695
    13  H    4.891688   5.223141   4.561034   2.116720   2.569964
    14  H    4.708333   4.645548   4.618325   2.152042   3.098359
    15  C    6.613847   6.177446   7.651553   7.023116   8.029785
    16  H    7.086274   6.715385   8.057460   7.075305   8.131088
    17  H    7.347721   6.711401   8.290524   7.777203   8.747788
    18  H    6.715562   6.512771   7.955487   7.488537   8.487534
    19  C    5.269505   4.708167   6.208254   5.727984   6.685921
    20  C    4.908812   4.220660   5.896735   6.053546   6.869789
    21  H    5.091555   4.716649   6.325059   6.653642   7.460651
    22  H    3.979972   3.158407   4.870394   5.291503   6.012170
    23  H    5.757078   4.825835   6.571728   6.805579   7.576156
    24  C    4.819402   4.263329   5.547330   4.631221   5.639422
    25  H    5.551291   5.127039   6.219264   4.869546   5.934112
    26  C    3.749193   2.997681   4.178385   3.340807   4.274639
    27  H    3.516680   2.368720   3.872110   3.728022   4.476923
    28  H    4.411535   3.491167   4.437641   3.175527   4.068573
                   11         12         13         14         15
    11  C    0.000000
    12  H    1.098302   0.000000
    13  H    1.097484   1.776991   0.000000
    14  H    1.097942   1.773356   1.777490   0.000000
    15  C    7.108509   7.677582   7.804845   6.209154   0.000000
    16  H    6.932704   7.471005   7.570963   5.942195   1.097874
    17  H    7.889830   8.364059   8.659765   7.007549   1.097493
    18  H    7.648715   8.326182   8.253650   6.774941   1.097564
    19  C    5.991563   6.560042   6.763332   5.210164   1.485719
    20  C    6.637023   7.208657   7.442642   6.038785   2.500256
    21  H    7.287680   7.963677   7.996408   6.696051   2.723788
    22  H    6.058125   6.620399   6.883321   5.615030   3.453785
    23  H    7.377249   7.834109   8.255543   6.782927   2.815786
    24  C    4.734884   5.276099   5.527534   3.913884   2.454416
    25  H    4.635535   5.141555   5.344513   3.656469   2.665076
    26  C    3.707937   4.216429   4.609554   3.140387   3.854012
    27  H    4.407140   4.836255   5.345488   4.036276   4.133853
    28  H    3.274126   3.525986   4.288811   2.714546   4.495328
                   16         17         18         19         20
    16  H    0.000000
    17  H    1.773538   0.000000
    18  H    1.773525   1.776648   0.000000
    19  C    2.158882   2.130685   2.132146   0.000000
    20  C    3.456731   2.762226   2.775919   1.479062   0.000000
    21  H    3.747159   3.050581   2.544958   2.128275   1.098622
    22  H    4.294567   3.793870   3.749836   2.149855   1.098684
    23  H    3.803868   2.632091   3.221102   2.124404   1.097632
    24  C    2.597935   3.175709   3.170195   1.329941   2.478896
    25  H    2.330817   3.434944   3.417961   2.103999   3.470311
    26  C    4.077620   4.484632   4.486347   2.491933   2.999028
    27  H    4.600424   4.591221   4.728451   2.662270   2.598660
    28  H    4.543680   5.022134   5.273761   3.266594   3.892472
                   21         22         23         24         25
    21  H    0.000000
    22  H    1.774246   0.000000
    23  H    1.778704   1.777150   0.000000
    24  C    3.227895   2.638122   3.153758   0.000000
[...]
    27  H    4.523469   4.735632   5.549093   4.290795   4.131423
    28  H    3.441525   3.390406   4.531570   3.140858   4.407599
                   16         17         18         19         20
    16  H    0.000000
    17  H    1.772312   0.000000
    18  H    1.772184   1.772116   0.000000
    19  C    2.163923   2.138167   2.138431   0.000000
    20  C    3.468732   2.773838   2.793410   1.486010   0.000000
    21  H    3.768135   3.062108   2.573328   2.139609   1.098016
    22  H    4.306665   3.808223   3.769393   2.156289   1.102494
    23  H    3.821374   2.653928   3.244382   2.136193   1.098182
    24  C    2.608483   3.193619   3.181519   1.339724   2.492304
    25  H    2.344675   3.453235   3.429020   2.113765   3.484486
    26  C    4.094773   4.505429   4.503286   2.503194   3.008001
    27  H    4.616219   4.683185   4.634246   2.648114   2.551846
    28  H    4.559320   4.860307   5.209785   3.126334   3.612227
                   21         22         23         24         25
    21  H    0.000000
    22  H    1.777687   0.000000
    23  H    1.773389   1.777129   0.000000
    24  C    3.246176   2.645967   3.171757   0.000000
    25  H    4.151072   3.739226   4.096813   1.098263   0.000000
    26  C    3.829883   2.565432   3.685622   1.486508   2.195848
    27  H    3.318342   1.768189   3.233847   2.150940   3.107504
    28  H    4.581023   3.171863   4.022563   2.119997   2.610296
                   26         27         28
    26  C    0.000000
    27  H    1.114202   0.000000
    28  H    1.108604   1.772234   0.000000
 Stoichiometry    C10H18
 Framework group  C1[X(C10H18)]
 Deg. of freedom    78
 Full point group                 C1      NOp   1
 RotChk:  IX=0 Diff= 4.35D-16
 Largest Abelian subgroup         C1      NOp   1
 Largest concise Abelian subgroup C1      NOp   1
                         Standard orientation:                         
 ---------------------------------------------------------------------
 Center     Atomic      Atomic             Coordinates (Angstroms)
 Number     Number       Type             X           Y           Z
 ---------------------------------------------------------------------
      1          6           0       -0.850230   -0.146954    0.669658
      2          1           0       -0.499260    0.327410    1.606973
      3          1           0       -1.037985   -1.216992    0.917166
      4          6           0       -2.124321    0.498448    0.226224
      5          6           0       -2.174645    1.981484    0.331059
      6          1           0       -2.071946    2.297400    1.378392
      7          1           0       -1.351959    2.441518   -0.234625
      8          1           0       -3.114444    2.401314   -0.051403
      9          6           0       -3.175581   -0.199606   -0.225326
     10          1           0       -4.087588    0.326062   -0.536568
     11          6           0       -3.215342   -1.673203   -0.342358
     12          1           0       -3.192455   -1.976224   -1.397633
     13          1           0       -4.135524   -2.075621    0.100469
     14          1           0       -2.360629   -2.153803    0.162851
     15          6           0        3.914294   -0.880243    0.402397
     16          1           0        3.687222   -1.886925    0.777497
     17          1           0        4.631335   -0.987579   -0.422885
     18          1           0        4.418749   -0.331678    1.209597
     19          6           0        2.700572   -0.147942   -0.050164
     20          6           0        2.949363    1.211254   -0.596894
     21          1           0        3.528192    1.818482    0.111534
     22          1           0        2.010422    1.747844   -0.811263
     23          1           0        3.521878    1.152940   -1.532218
     24          6           0        1.484071   -0.702199    0.038083
     25          1           0        1.371290   -1.711433    0.456304
     26          6           0        0.224781   -0.049025   -0.406055
     27          1           0        0.406217    1.016453   -0.676767
     28          1           0       -0.121293   -0.541247   -1.337158
 ---------------------------------------------------------------------
 Rotational constants (GHZ):           2.5381872           0.5297815           0.4649548
 Leave Link  202 at Wed Jul 14 14:07:26 2021, MaxMem=   524288000 cpu:               0.0 elap:               0.1
 (Enter /opt/gaussian/g16_legacy/l601.exe)
 Copying SCF densities to generalized density rwf, IOpCl= 0 IROHF=0.

 **********************************************************************

            Population analysis using the SCF density.

 **********************************************************************

 Orbital symmetries:
       Occupied  (A) (A) (A) (A) (A) (A) (A) (A) (A) (A) (A) (A)
                 (A) (A) (A) (A) (A) (A) (A) (A) (A) (A) (A) (A)
                 (A) (A) (A) (A) (A)
       Virtual   (A) (A) (A) (A) (A) (A) (A) (A) (A) (A) (A) (A)
                 (A) (A) (A) (A) (A) (A) (A) (A) (A) (A) (A) (A)
                 (A) (A) (A) (A) (A)
 The electronic state is 1-A.
 Alpha  occ. eigenvalues --   -1.47345  -1.36328  -1.17288  -1.11255  -1.01492
 Alpha  occ. eigenvalues --   -0.94425  -0.86176  -0.80121  -0.67393  -0.64418
 Alpha  occ. eigenvalues --   -0.61364  -0.58805  -0.58518  -0.55876  -0.55098
 Alpha  occ. eigenvalues --   -0.53301  -0.51724  -0.50924  -0.49152  -0.48394
 Alpha  occ. eigenvalues --   -0.48072  -0.47644  -0.47168  -0.47054  -0.44910
 Alpha  occ. eigenvalues --   -0.44010  -0.41691  -0.35126  -0.34349
 Alpha virt. eigenvalues --    0.03549   0.04167   0.12058   0.12682   0.13199
 Alpha virt. eigenvalues --    0.13510   0.13908   0.14254   0.14679   0.14956
 Alpha virt. eigenvalues --    0.15690   0.15698   0.15848   0.16043   0.16336
 Alpha virt. eigenvalues --    0.16360   0.16530   0.16588   0.16734   0.17027
 Alpha virt. eigenvalues --    0.17089   0.17151   0.17646   0.17997   0.18080
 Alpha virt. eigenvalues --    0.20998   0.21349   0.22253   0.22544
          Condensed to atoms (all electrons):
               1          2          3          4          5          6
     1  C    4.060603   0.000000   0.000000   0.000000   0.000000   0.000000
     2  H    0.000000   0.942186   0.000000   0.000000   0.000000   0.000000
     3  H    0.000000   0.000000   0.939707   0.000000   0.000000   0.000000
     4  C    0.000000   0.000000   0.000000   4.128355   0.000000   0.000000
     5  C    0.000000   0.000000   0.000000   0.000000   4.068100   0.000000
     6  H    0.000000   0.000000   0.000000   0.000000   0.000000   0.955210
     7  H    0.000000   0.000000   0.000000   0.000000   0.000000   0.000000
     8  H    0.000000   0.000000   0.000000   0.000000   0.000000   0.000000
     9  C    0.000000   0.000000   0.000000   0.000000   0.000000   0.000000
    10  H    0.000000   0.000000   0.000000   0.000000   0.000000   0.000000
    11  C    0.000000   0.000000   0.000000   0.000000   0.000000   0.000000
    12  H    0.000000   0.000000   0.000000   0.000000   0.000000   0.000000
    13  H    0.000000   0.000000   0.000000   0.000000   0.000000   0.000000
    14  H    0.000000   0.000000   0.000000   0.000000   0.000000   0.000000
    15  C    0.000000   0.000000   0.000000   0.000000   0.000000   0.000000
    16  H    0.000000   0.000000   0.000000   0.000000   0.000000   0.000000
    17  H    0.000000   0.000000   0.000000   0.000000   0.000000   0.000000
    18  H    0.000000   0.000000   0.000000   0.000000   0.000000   0.000000
    19  C    0.000000   0.000000   0.000000   0.000000   0.000000   0.000000
    20  C    0.000000   0.000000   0.000000   0.000000   0.000000   0.000000
    21  H    0.000000   0.000000   0.000000   0.000000   0.000000   0.000000
    22  H    0.000000   0.000000   0.000000   0.000000   0.000000   0.000000
    23  H    0.000000   0.000000   0.000000   0.000000   0.000000   0.000000
    24  C    0.000000   0.000000   0.000000   0.000000   0.000000   0.000000
    25  H    0.000000   0.000000   0.000000   0.000000   0.000000   0.000000
    26  C    0.000000   0.000000   0.000000   0.000000   0.000000   0.000000
    27  H    0.000000   0.000000   0.000000   0.000000   0.000000   0.000000
    28  H    0.000000   0.000000   0.000000   0.000000   0.000000   0.000000
               7          8          9         10         11         12
     1  C    0.000000   0.000000   0.000000   0.000000   0.000000   0.000000
     2  H    0.000000   0.000000   0.000000   0.000000   0.000000   0.000000
     3  H    0.000000   0.000000   0.000000   0.000000   0.000000   0.000000
     4  C    0.000000   0.000000   0.000000   0.000000   0.000000   0.000000
     5  C    0.000000   0.000000   0.000000   0.000000   0.000000   0.000000
     6  H    0.000000   0.000000   0.000000   0.000000   0.000000   0.000000
     7  H    0.955257   0.000000   0.000000   0.000000   0.000000   0.000000
     8  H    0.000000   0.958782   0.000000   0.000000   0.000000   0.000000
     9  C    0.000000   0.000000   4.149878   0.000000   0.000000   0.000000
    10  H    0.000000   0.000000   0.000000   0.901635   0.000000   0.000000
    11  C    0.000000   0.000000   0.000000   0.000000   4.079962   0.000000
    12  H    0.000000   0.000000   0.000000   0.000000   0.000000   0.953904
    13  H    0.000000   0.000000   0.000000   0.000000   0.000000   0.000000
    14  H    0.000000   0.000000   0.000000   0.000000   0.000000   0.000000
    15  C    0.000000   0.000000   0.000000   0.000000   0.000000   0.000000
    16  H    0.000000   0.000000   0.000000   0.000000   0.000000   0.000000
    17  H    0.000000   0.000000   0.000000   0.000000   0.000000   0.000000
    18  H    0.000000   0.000000   0.000000   0.000000   0.000000   0.000000
    19  C    0.000000   0.000000   0.000000   0.000000   0.000000   0.000000
    20  C    0.000000   0.000000   0.000000   0.000000   0.000000   0.000000
    21  H    0.000000   0.000000   0.000000   0.000000   0.000000   0.000000
    22  H    0.000000   0.000000   0.000000   0.000000   0.000000   0.000000
    23  H    0.000000   0.000000   0.000000   0.000000   0.000000   0.000000
    24  C    0.000000   0.000000   0.000000   0.000000   0.000000   0.000000
    25  H    0.000000   0.000000   0.000000   0.000000   0.000000   0.000000
    26  C    0.000000   0.000000   0.000000   0.000000   0.000000   0.000000
    27  H    0.000000   0.000000   0.000000   0.000000   0.000000   0.000000
    28  H    0.000000   0.000000   0.000000   0.000000   0.000000   0.000000
              13         14         15         16         17         18
     1  C    0.000000   0.000000   0.000000   0.000000   0.000000   0.000000
     2  H    0.000000   0.000000   0.000000   0.000000   0.000000   0.000000
     3  H    0.000000   0.000000   0.000000   0.000000   0.000000   0.000000
     4  C    0.000000   0.000000   0.000000   0.000000   0.000000   0.000000
     5  C    0.000000   0.000000   0.000000   0.000000   0.000000   0.000000
     6  H    0.000000   0.000000   0.000000   0.000000   0.000000   0.000000
     7  H    0.000000   0.000000   0.000000   0.000000   0.000000   0.000000
     8  H    0.000000   0.000000   0.000000   0.000000   0.000000   0.000000
     9  C    0.000000   0.000000   0.000000   0.000000   0.000000   0.000000
    10  H    0.000000   0.000000   0.000000   0.000000   0.000000   0.000000
    11  C    0.000000   0.000000   0.000000   0.000000   0.000000   0.000000
    12  H    0.000000   0.000000   0.000000   0.000000   0.000000   0.000000
    13  H    0.956902   0.000000   0.000000   0.000000   0.000000   0.000000
    14  H    0.000000   0.951266   0.000000   0.000000   0.000000   0.000000
    15  C    0.000000   0.000000   4.068741   0.000000   0.000000   0.000000
    16  H    0.000000   0.000000   0.000000   0.958458   0.000000   0.000000
    17  H    0.000000   0.000000   0.000000   0.000000   0.956400   0.000000
    18  H    0.000000   0.000000   0.000000   0.000000   0.000000   0.955981
    19  C    0.000000   0.000000   0.000000   0.000000   0.000000   0.000000
    20  C    0.000000   0.000000   0.000000   0.000000   0.000000   0.000000
    21  H    0.000000   0.000000   0.000000   0.000000   0.000000   0.000000
    22  H    0.000000   0.000000   0.000000   0.000000   0.000000   0.000000
    23  H    0.000000   0.000000   0.000000   0.000000   0.000000   0.000000
    24  C    0.000000   0.000000   0.000000   0.000000   0.000000   0.000000
    25  H    0.000000   0.000000   0.000000   0.000000   0.000000   0.000000
    26  C    0.000000   0.000000   0.000000   0.000000   0.000000   0.000000
    27  H    0.000000   0.000000   0.000000   0.000000   0.000000   0.000000
    28  H    0.000000   0.000000   0.000000   0.000000   0.000000   0.000000
              19         20         21         22         23         24
     1  C    0.000000   0.000000   0.000000   0.000000   0.000000   0.000000
     2  H    0.000000   0.000000   0.000000   0.000000   0.000000   0.000000
     3  H    0.000000   0.000000   0.000000   0.000000   0.000000   0.000000
     4  C    0.000000   0.000000   0.000000   0.000000   0.000000   0.000000
     5  C    0.000000   0.000000   0.000000   0.000000   0.000000   0.000000
     6  H    0.000000   0.000000   0.000000   0.000000   0.000000   0.000000
     7  H    0.000000   0.000000   0.000000   0.000000   0.000000   0.000000
     8  H    0.000000   0.000000   0.000000   0.000000   0.000000   0.000000
     9  C    0.000000   0.000000   0.000000   0.000000   0.000000   0.000000
    10  H    0.000000   0.000000   0.000000   0.000000   0.000000   0.000000
    11  C    0.000000   0.000000   0.000000   0.000000   0.000000   0.000000
    12  H    0.000000   0.000000   0.000000   0.000000   0.000000   0.000000
    13  H    0.000000   0.000000   0.000000   0.000000   0.000000   0.000000
    14  H    0.000000   0.000000   0.000000   0.000000   0.000000   0.000000
    15  C    0.000000   0.000000   0.000000   0.000000   0.000000   0.000000
    16  H    0.000000   0.000000   0.000000   0.000000   0.000000   0.000000
    17  H    0.000000   0.000000   0.000000   0.000000   0.000000   0.000000
    18  H    0.000000   0.000000   0.000000   0.000000   0.000000   0.000000
    19  C    4.122813   0.000000   0.000000   0.000000   0.000000   0.000000
    20  C    0.000000   4.076260   0.000000   0.000000   0.000000   0.000000
    21  H    0.000000   0.000000   0.954588   0.000000   0.000000   0.000000
    22  H    0.000000   0.000000   0.000000   0.950106   0.000000   0.000000
    23  H    0.000000   0.000000   0.000000   0.000000   0.953704   0.000000
    24  C    0.000000   0.000000   0.000000   0.000000   0.000000   4.156923
    25  H    0.000000   0.000000   0.000000   0.000000   0.000000   0.000000
    26  C    0.000000   0.000000   0.000000   0.000000   0.000000   0.000000
    27  H    0.000000   0.000000   0.000000   0.000000   0.000000   0.000000
    28  H    0.000000   0.000000   0.000000   0.000000   0.000000   0.000000
              25         26         27         28
     1  C    0.000000   0.000000   0.000000   0.000000
     2  H    0.000000   0.000000   0.000000   0.000000
     3  H    0.000000   0.000000   0.000000   0.000000
     4  C    0.000000   0.000000   0.000000   0.000000
     5  C    0.000000   0.000000   0.000000   0.000000
     6  H    0.000000   0.000000   0.000000   0.000000
     7  H    0.000000   0.000000   0.000000   0.000000
     8  H    0.000000   0.000000   0.000000   0.000000
     9  C    0.000000   0.000000   0.000000   0.000000
    10  H    0.000000   0.000000   0.000000   0.000000
    11  C    0.000000   0.000000   0.000000   0.000000
    12  H    0.000000   0.000000   0.000000   0.000000
    13  H    0.000000   0.000000   0.000000   0.000000
    14  H    0.000000   0.000000   0.000000   0.000000
    15  C    0.000000   0.000000   0.000000   0.000000
    16  H    0.000000   0.000000   0.000000   0.000000
    17  H    0.000000   0.000000   0.000000   0.000000
    18  H    0.000000   0.000000   0.000000   0.000000
    19  C    0.000000   0.000000   0.000000   0.000000
    20  C    0.000000   0.000000   0.000000   0.000000
    21  H    0.000000   0.000000   0.000000   0.000000
    22  H    0.000000   0.000000   0.000000   0.000000
    23  H    0.000000   0.000000   0.000000   0.000000
    24  C    0.000000   0.000000   0.000000   0.000000
    25  H    0.899110   0.000000   0.000000   0.000000
    26  C    0.000000   4.067321   0.000000   0.000000
    27  H    0.000000   0.000000   0.936815   0.000000
    28  H    0.000000   0.000000   0.000000   0.941032
 Mulliken charges:
               1
     1  C   -0.060603
     2  H    0.057814
     3  H    0.060293
     4  C   -0.128355
     5  C   -0.068100
     6  H    0.044790
     7  H    0.044743
     8  H    0.041218
     9  C   -0.149878
    10  H    0.098365
    11  C   -0.079962
    12  H    0.046096
    13  H    0.043098
    14  H    0.048734
    15  C   -0.068741
    16  H    0.041542
    17  H    0.043600
    18  H    0.044019
    19  C   -0.122813
    20  C   -0.076260
    21  H    0.045412
    22  H    0.049894
    23  H    0.046296
    24  C   -0.156923
    25  H    0.100890
    26  C   -0.067321
    27  H    0.063185
    28  H    0.058968
 Sum of Mulliken charges =  -0.00000
 Mulliken charges with hydrogens summed into heavy atoms:
               1
     1  C    0.057503
     4  C   -0.128355
     5  C    0.062651
     9  C   -0.051513
    11  C    0.057966
    15  C    0.060419
    19  C   -0.122813
    20  C    0.065342
    24  C   -0.056033
    26  C    0.054833
 Charge=              0.0000 electrons
 Dipole moment (field-independent basis, Debye):
    X=              0.2593    Y=              0.1189    Z=             -0.0537  Tot=              0.2903
 N-N= 3.060044762642D+02 E-N=-4.941699540342D+02  KE=-7.910679831164D+01
 Leave Link  601 at Wed Jul 14 14:07:27 2021, MaxMem=   524288000 cpu:               0.4 elap:               0.6
 (Enter /opt/gaussian/g16_legacy/l9999.exe)
 1\1\GINC-TRUENO95\FOpt\RPM3\ZDO\C10H18\JRAMOS\14-Jul-2021\0\\#p opt pm
 3\\Conformer number 012. Energy MM = 23.287 kcal/mol\\0,1\C,-0.9898114
 653,0.5522938044,0.2359287187\H,-0.6511797932,1.6054954932,0.182483060
 9\H,-1.4799758053,0.4360873621,1.2297733212\C,-1.9837850911,0.28825547
 44,-0.8497894028\C,-1.6592709196,0.8607077164,-2.1839222968\H,-1.61363
 22061,1.957277478,-2.1319030064\H,-0.6794169933,0.5058185755,-2.533754
 322\H,-2.3999604767,0.5955185141,-2.9499588425\C,-3.1133176804,-0.4050
 361006,-0.6502225269\H,-3.8090268149,-0.5677871917,-1.4835631441\C,-3.
 5200036245,-0.9896259049,0.645781852\H,-3.4410920965,-2.0845340455,0.6
 157984059\H,-4.5623229176,-0.7364636354,0.8787007911\H,-2.8923638504,-
 0.6311617668,1.4790404409\C,3.4127169644,0.2558095345,2.1954363343\H,2
 .884995094,0.2790799917,3.1580563315\H,4.1771798021,-0.5308299554,2.25
 50641569\H,3.934294541,1.2158145786,2.0800323736\C,2.5003117597,0.0134
 070795,1.0452385258\C,3.1627138481,-0.0584552939,-0.2830252709\H,3.783
 4544234,0.8298591895,-0.4597125904\H,2.4315988664,-0.1271069954,-1.105
 3703182\H,3.8158204721,-0.9393370937,-0.3422179737\C,1.1805843761,-0.1
 295735874,1.2261743664\H,0.7560055286,-0.0617186188,2.2367734894\C,0.2
 028872249,-0.3911925184,0.1374269185\H,0.6888069356,-0.2986610992,-0.8
 609550928\H,-0.1365101017,-1.4440409849,0.2103857004\\Version=EM64L-G1
 6RevA.03\State=1-A\HF=-0.0281201\RMSD=4.417e-09\RMSF=2.187e-06\Dipole=
 0.1125119,-0.0009042,-0.0195299\PG=C01 [X(C10H18)]\\@


 ...THOSE SCIENCES ARE VAIN AND FULL OF ERRORS WHICH 
 ARE NOT BORN FROM EXPERIMENT, THE MOTHER OF CERTAINTY...

                          -- LEONARDO DA VINCI, 1452-1519
 Job cpu time:       0 days  0 hours  0 minutes 17.9 seconds.
 Elapsed time:       0 days  0 hours  0 minutes 13.7 seconds.
 File lengths (MBytes):  RWF=      6 Int=      0 D2E=      0 Chk=      2 Scr=      1
 Normal termination of Gaussian 16 at Wed Jul 14 14:07:27 2021.
