 Entering Gaussian System, Link 0=/opt/gaussian/g16_legacy/g16
 Input=IsoP_rdkit_192_gaussian.com
 Output=IsoP_rdkit_192_gaussian.log
 Initial command:
 /opt/gaussian/g16_legacy/l1.exe "/scratch-local/jramos/2643402/Gau-22808.inp" -scrdir="/scratch-local/jramos/2643402/"
 Entering Link 1 = /opt/gaussian/g16_legacy/l1.exe PID=     22809.
  
 Copyright (c) 1988,1990,1992,1993,1995,1998,2003,2009,2016,
            Gaussian, Inc.  All Rights Reserved.
  
 This is part of the Gaussian(R) 16 program.  It is based on
 the Gaussian(R) 09 system (copyright 2009, Gaussian, Inc.),
 the Gaussian(R) 03 system (copyright 2003, Gaussian, Inc.),
 the Gaussian(R) 98 system (copyright 1998, Gaussian, Inc.),
 the Gaussian(R) 94 system (copyright 1995, Gaussian, Inc.),
 the Gaussian 92(TM) system (copyright 1992, Gaussian, Inc.),
 the Gaussian 90(TM) system (copyright 1990, Gaussian, Inc.),
 the Gaussian 88(TM) system (copyright 1988, Gaussian, Inc.),
 the Gaussian 86(TM) system (copyright 1986, Carnegie Mellon
 University), and the Gaussian 82(TM) system (copyright 1983,
 Carnegie Mellon University). Gaussian is a federally registered
 trademark of Gaussian, Inc.
  
 This software contains proprietary and confidential information,
 including trade secrets, belonging to Gaussian, Inc.
  
 This software is provided under written license and may be
 used, copied, transmitted, or stored only in accord with that
 written license.
  
 The following legend is applicable only to US Government
 contracts under FAR:
  
                    RESTRICTED RIGHTS LEGEND
  
 Use, reproduction and disclosure by the US Government is
 subject to restrictions as set forth in subparagraphs (a)
 and (c) of the Commercial Computer Software - Restricted
 Rights clause in FAR 52.227-19.
  
 Gaussian, Inc.
 340 Quinnipiac St., Bldg. 40, Wallingford CT 06492
  
  
 ---------------------------------------------------------------
 Warning -- This program may not be used in any manner that
 competes with the business of Gaussian, Inc. or will provide
 assistance to any competitor of Gaussian, Inc.  The licensee
 of this program is prohibited from giving any competitor of
 Gaussian, Inc. access to this program.  By using this program,
 the user acknowledges that Gaussian, Inc. is engaged in the
 business of creating and licensing software in the field of
 computational chemistry and represents and warrants to the
 licensee that it is not a competitor of Gaussian, Inc. and that
 it will not use this program in any manner prohibited above.
 ---------------------------------------------------------------
  

 Cite this work as:
 Gaussian 16, Revision A.03,
 M. J. Frisch, G. W. Trucks, H. B. Schlegel, G. E. Scuseria, 
 M. A. Robb, J. R. Cheeseman, G. Scalmani, V. Barone, 
 G. A. Petersson, H. Nakatsuji, X. Li, M. Caricato, A. V. Marenich, 
 J. Bloino, B. G. Janesko, R. Gomperts, B. Mennucci, H. P. Hratchian, 
 J. V. Ortiz, A. F. Izmaylov, J. L. Sonnenberg, D. Williams-Young, 
 F. Ding, F. Lipparini, F. Egidi, J. Goings, B. Peng, A. Petrone, 
 T. Henderson, D. Ranasinghe, V. G. Zakrzewski, J. Gao, N. Rega, 
 G. Zheng, W. Liang, M. Hada, M. Ehara, K. Toyota, R. Fukuda, 
 J. Hasegawa, M. Ishida, T. Nakajima, Y. Honda, O. Kitao, H. Nakai, 
 T. Vreven, K. Throssell, J. A. Montgomery, Jr., J. E. Peralta, 
 F. Ogliaro, M. J. Bearpark, J. J. Heyd, E. N. Brothers, K. N. Kudin, 
 V. N. Staroverov, T. A. Keith, R. Kobayashi, J. Normand, 
 K. Raghavachari, A. P. Rendell, J. C. Burant, S. S. Iyengar, 
 J. Tomasi, M. Cossi, J. M. Millam, M. Klene, C. Adamo, R. Cammi, 
 J. W. Ochterski, R. L. Martin, K. Morokuma, O. Farkas, 
 J. B. Foresman, and D. J. Fox, Gaussian, Inc., Wallingford CT, 2016.
 
 ******************************************
 Gaussian 16:  EM64L-G16RevA.03 25-Dec-2016
                14-Jul-2021 
 ******************************************
 %chk=IsoP_rdkit_192_gaussian.chk
 %nproc=2
 Will use up to    2 processors via shared memory.
 %mem=4000Mb
 ----------
 #p opt pm3
 ----------
 1/18=20,19=15,26=1,38=1/1,3;
 2/9=110,12=2,17=6,18=5,40=1/2;
 3/5=2,25=1,41=800000,71=1/1,2,3;
 4/35=1/1;
 5/5=2,35=1,38=5/2;
 6/7=2,8=2,9=2,10=2,28=1/1;
 7//1,2,3,16;
 1/18=20,19=15,26=1/3(2);
 2/9=110/2;
 99//99;
 2/9=110/2;
 3/5=2,25=1,41=800000,71=1,135=20/1,2,3;
 4/5=5,16=3,35=1/1;
 5/5=2,35=1,38=5/2;
 7//1,2,3,16;
 1/18=20,19=15,26=1/3(-5);
 2/9=110/2;
 6/7=2,8=2,9=2,10=2,19=2,28=1/1;
 99/9=1/99;
 Leave Link    1 at Wed Jul 14 14:07:09 2021, MaxMem=   524288000 cpu:               0.1 elap:               0.1
 (Enter /opt/gaussian/g16_legacy/l101.exe)
 -------------------------------------------------
 Conformer number 192. Energy MM = 23.486 kcal/mol
 -------------------------------------------------
 Symbolic Z-matrix:
 Charge =  0 Multiplicity = 1
 C                    -1.1713    1.1371    0.2805 
 H                    -1.7275    2.0753    0.4096 
 H                    -1.2047    0.6582    1.2652 
 C                    -1.892     0.3047   -0.7639 
 C                    -2.3444    1.0651   -1.9853 
 H                    -2.9027    0.4331   -2.6842 
 H                    -1.4844    1.4722   -2.5257 
 H                    -2.9993    1.8935   -1.6961 
 C                    -2.1631   -1.0106   -0.6451 
 H                    -2.7075   -1.5034   -1.4503 
 C                    -1.7869   -1.9296    0.4741 
 H                    -2.6905   -2.2981    0.9692 
 H                    -1.2446   -2.7911    0.0712 
 H                    -1.1487   -1.4667    1.229 
 C                     2.9203   -1.3487    0.5981 
 H                     3.9838   -1.0897    0.6268 
 H                     2.7197   -1.8221   -0.3688 
 H                     2.7207   -2.0902    1.3786 
 C                     2.079    -0.1187    0.8192 
 C                     2.3242    0.5707    2.1325 
 H                     2.2318   -0.1459    2.9559 
 H                     3.3348    0.9911    2.1539 
 H                     1.6186    1.379     2.337 
 C                     1.1859    0.2757   -0.1093 
 H                     1.0826   -0.3216   -1.0157 
 C                     0.2835    1.4808   -0.0717 
 H                     0.3316    1.9753   -1.0496 
 H                     0.6514    2.2247    0.6424 
 
 ITRead=  0  0  0  0  0  0  0  0  0  0  0  0  0  0  0  0  0  0  0  0
 ITRead=  0  0  0  0  0  0  0  0
 MicOpt= -1 -1 -1 -1 -1 -1 -1 -1 -1 -1 -1 -1 -1 -1 -1 -1 -1 -1 -1 -1
 MicOpt= -1 -1 -1 -1 -1 -1 -1 -1
 NAtoms=     28 NQM=       28 NQMF=       0 NMMI=      0 NMMIF=      0
                NMic=       0 NMicF=      0.
                    Isotopes and Nuclear Properties:
 (Nuclear quadrupole moments (NQMom) in fm**2, nuclear magnetic moments (NMagM)
  in nuclear magnetons)

  Atom         1           2           3           4           5           6           7           8           9          10
 IAtWgt=          12           1           1          12          12           1           1           1          12           1
 AtmWgt=  12.0000000   1.0078250   1.0078250  12.0000000  12.0000000   1.0078250   1.0078250   1.0078250  12.0000000   1.0078250
 NucSpn=           0           1           1           0           0           1           1           1           0           1
 AtZEff=  -0.0000000  -0.0000000  -0.0000000  -0.0000000  -0.0000000  -0.0000000  -0.0000000  -0.0000000  -0.0000000  -0.0000000
 NQMom=    0.0000000   0.0000000   0.0000000   0.0000000   0.0000000   0.0000000   0.0000000   0.0000000   0.0000000   0.0000000
 NMagM=    0.0000000   2.7928460   2.7928460   0.0000000   0.0000000   2.7928460   2.7928460   2.7928460   0.0000000   2.7928460
 AtZNuc=   6.0000000   1.0000000   1.0000000   6.0000000   6.0000000   1.0000000   1.0000000   1.0000000   6.0000000   1.0000000

  Atom        11          12          13          14          15          16          17          18          19          20
 IAtWgt=          12           1           1           1          12           1           1           1          12          12
 AtmWgt=  12.0000000   1.0078250   1.0078250   1.0078250  12.0000000   1.0078250   1.0078250   1.0078250  12.0000000  12.0000000
 NucSpn=           0           1           1           1           0           1           1           1           0           0
 AtZEff=  -0.0000000  -0.0000000  -0.0000000  -0.0000000  -0.0000000  -0.0000000  -0.0000000  -0.0000000  -0.0000000  -0.0000000
 NQMom=    0.0000000   0.0000000   0.0000000   0.0000000   0.0000000   0.0000000   0.0000000   0.0000000   0.0000000   0.0000000
 NMagM=    0.0000000   2.7928460   2.7928460   2.7928460   0.0000000   2.7928460   2.7928460   2.7928460   0.0000000   0.0000000
 AtZNuc=   6.0000000   1.0000000   1.0000000   1.0000000   6.0000000   1.0000000   1.0000000   1.0000000   6.0000000   6.0000000

  Atom        21          22          23          24          25          26          27          28
 IAtWgt=           1           1           1          12           1          12           1           1
 AtmWgt=   1.0078250   1.0078250   1.0078250  12.0000000   1.0078250  12.0000000   1.0078250   1.0078250
 NucSpn=           1           1           1           0           1           0           1           1
 AtZEff=  -0.0000000  -0.0000000  -0.0000000  -0.0000000  -0.0000000  -0.0000000  -0.0000000  -0.0000000
 NQMom=    0.0000000   0.0000000   0.0000000   0.0000000   0.0000000   0.0000000   0.0000000   0.0000000
 NMagM=    2.7928460   2.7928460   2.7928460   0.0000000   2.7928460   0.0000000   2.7928460   2.7928460
 AtZNuc=   1.0000000   1.0000000   1.0000000   6.0000000   1.0000000   6.0000000   1.0000000   1.0000000
 Leave Link  101 at Wed Jul 14 14:07:09 2021, MaxMem=   524288000 cpu:               0.2 elap:               0.2
 (Enter /opt/gaussian/g16_legacy/l103.exe)

 GradGradGradGradGradGradGradGradGradGradGradGradGradGradGradGradGradGrad
 Berny optimization.
 Initialization pass.
                           ----------------------------
                           !    Initial Parameters    !
                           ! (Angstroms and Degrees)  !
 --------------------------                            --------------------------
 ! Name  Definition              Value          Derivative Info.                !
 --------------------------------------------------------------------------------
 ! R1    R(1,2)                  1.0983         estimate D2E/DX2                !
 ! R2    R(1,3)                  1.0955         estimate D2E/DX2                !
 ! R3    R(1,4)                  1.5176         estimate D2E/DX2                !
 ! R4    R(1,26)                 1.5358         estimate D2E/DX2                !
 ! R5    R(4,5)                  1.5082         estimate D2E/DX2                !
 ! R6    R(4,9)                  1.3482         estimate D2E/DX2                !
 ! R7    R(5,6)                  1.0953         estimate D2E/DX2                !
 ! R8    R(5,7)                  1.0942         estimate D2E/DX2                !
 ! R9    R(5,8)                  1.0949         estimate D2E/DX2                !
 ! R10   R(9,10)                 1.0898         estimate D2E/DX2                !
 ! R11   R(9,11)                 1.4962         estimate D2E/DX2                !
 ! R12   R(11,12)                1.0943         estimate D2E/DX2                !
 ! R13   R(11,13)                1.0948         estimate D2E/DX2                !
 ! R14   R(11,14)                1.0915         estimate D2E/DX2                !
 ! R15   R(15,16)                1.095          estimate D2E/DX2                !
 ! R16   R(15,17)                1.0951         estimate D2E/DX2                !
 ! R17   R(15,18)                1.0949         estimate D2E/DX2                !
 ! R18   R(15,19)                1.5065         estimate D2E/DX2                !
 ! R19   R(19,20)                1.5034         estimate D2E/DX2                !
 ! R20   R(19,24)                1.3473         estimate D2E/DX2                !
 ! R21   R(20,21)                1.0955         estimate D2E/DX2                !
 ! R22   R(20,22)                1.0948         estimate D2E/DX2                !
 ! R23   R(20,23)                1.0923         estimate D2E/DX2                !
 ! R24   R(24,25)                1.0904         estimate D2E/DX2                !
 ! R25   R(24,26)                1.506          estimate D2E/DX2                !
 ! R26   R(26,27)                1.0969         estimate D2E/DX2                !
 ! R27   R(26,28)                1.0948         estimate D2E/DX2                !
 ! A1    A(2,1,3)              104.6158         estimate D2E/DX2                !
 ! A2    A(2,1,4)              107.9957         estimate D2E/DX2                !
 ! A3    A(2,1,26)             108.3912         estimate D2E/DX2                !
 ! A4    A(3,1,4)              111.3669         estimate D2E/DX2                !
 ! A5    A(3,1,26)             109.442          estimate D2E/DX2                !
 ! A6    A(4,1,26)             114.5058         estimate D2E/DX2                !
 ! A7    A(1,4,5)              115.0391         estimate D2E/DX2                !
 ! A8    A(1,4,9)              124.7483         estimate D2E/DX2                !
 ! A9    A(5,4,9)              120.1932         estimate D2E/DX2                !
 ! A10   A(4,5,6)              112.256          estimate D2E/DX2                !
 ! A11   A(4,5,7)              110.5956         estimate D2E/DX2                !
 ! A12   A(4,5,8)              110.3023         estimate D2E/DX2                !
 ! A13   A(6,5,7)              107.4675         estimate D2E/DX2                !
 ! A14   A(6,5,8)              107.4719         estimate D2E/DX2                !
 ! A15   A(7,5,8)              108.6061         estimate D2E/DX2                !
 ! A16   A(4,9,10)             118.4586         estimate D2E/DX2                !
 ! A17   A(4,9,11)             127.9215         estimate D2E/DX2                !
 ! A18   A(10,9,11)            113.6123         estimate D2E/DX2                !
 ! A19   A(9,11,12)            109.7342         estimate D2E/DX2                !
 ! A20   A(9,11,13)            109.426          estimate D2E/DX2                !
 ! A21   A(9,11,14)            113.8194         estimate D2E/DX2                !
 ! A22   A(12,11,13)           108.0921         estimate D2E/DX2                !
 ! A23   A(12,11,14)           108.2224         estimate D2E/DX2                !
 ! A24   A(13,11,14)           107.374          estimate D2E/DX2                !
 ! A25   A(16,15,17)           107.6567         estimate D2E/DX2                !
 ! A26   A(16,15,18)           108.5761         estimate D2E/DX2                !
 ! A27   A(16,15,19)           110.2079         estimate D2E/DX2                !
 ! A28   A(17,15,18)           107.6524         estimate D2E/DX2                !
 ! A29   A(17,15,19)           112.3481         estimate D2E/DX2                !
 ! A30   A(18,15,19)           110.2734         estimate D2E/DX2                !
 ! A31   A(15,19,20)           114.3007         estimate D2E/DX2                !
 ! A32   A(15,19,24)           120.5329         estimate D2E/DX2                !
 ! A33   A(20,19,24)           125.1619         estimate D2E/DX2                !
 ! A34   A(19,20,21)           110.0525         estimate D2E/DX2                !
 ! A35   A(19,20,22)           110.1043         estimate D2E/DX2                !
 ! A36   A(19,20,23)           113.4246         estimate D2E/DX2                !
 ! A37   A(21,20,22)           108.3229         estimate D2E/DX2                !
 ! A38   A(21,20,23)           106.7904         estimate D2E/DX2                !
 ! A39   A(22,20,23)           107.9688         estimate D2E/DX2                !
 ! A40   A(19,24,25)           118.3785         estimate D2E/DX2                !
 ! A41   A(19,24,26)           127.8961         estimate D2E/DX2                !
 ! A42   A(25,24,26)           113.7233         estimate D2E/DX2                !
 ! A43   A(1,26,24)            113.2196         estimate D2E/DX2                !
 ! A44   A(1,26,27)            110.2971         estimate D2E/DX2                !
 ! A45   A(1,26,28)            108.7109         estimate D2E/DX2                !
 ! A46   A(24,26,27)           108.193          estimate D2E/DX2                !
 ! A47   A(24,26,28)           111.0166         estimate D2E/DX2                !
 ! A48   A(27,26,28)           105.0962         estimate D2E/DX2                !
 ! D1    D(2,1,4,5)             44.1624         estimate D2E/DX2                !
 ! D2    D(2,1,4,9)           -134.2307         estimate D2E/DX2                !
 ! D3    D(3,1,4,5)            158.4919         estimate D2E/DX2                !
 ! D4    D(3,1,4,9)            -19.9013         estimate D2E/DX2                !
 ! D5    D(26,1,4,5)           -76.6781         estimate D2E/DX2                !
 ! D6    D(26,1,4,9)           104.9288         estimate D2E/DX2                !
 ! D7    D(2,1,26,24)          172.9996         estimate D2E/DX2                !
 ! D8    D(2,1,26,27)          -65.6079         estimate D2E/DX2                !
 ! D9    D(2,1,26,28)           49.1285         estimate D2E/DX2                !
 ! D10   D(3,1,26,24)           59.4616         estimate D2E/DX2                !
 ! D11   D(3,1,26,27)         -179.1459         estimate D2E/DX2                !
 ! D12   D(3,1,26,28)          -64.4095         estimate D2E/DX2                !
 ! D13   D(4,1,26,24)          -66.3785         estimate D2E/DX2                !
 ! D14   D(4,1,26,27)           55.0139         estimate D2E/DX2                !
 ! D15   D(4,1,26,28)          169.7504         estimate D2E/DX2                !
 ! D16   D(1,4,5,6)           -177.0799         estimate D2E/DX2                !
 ! D17   D(1,4,5,7)             62.9032         estimate D2E/DX2                !
 ! D18   D(1,4,5,8)            -57.2588         estimate D2E/DX2                !
 ! D19   D(9,4,5,6)              1.3925         estimate D2E/DX2                !
 ! D20   D(9,4,5,7)           -118.6243         estimate D2E/DX2                !
 ! D21   D(9,4,5,8)            121.2136         estimate D2E/DX2                !
 ! D22   D(1,4,9,10)           178.6346         estimate D2E/DX2                !
 ! D23   D(1,4,9,11)            -2.4409         estimate D2E/DX2                !
 ! D24   D(5,4,9,10)             0.319          estimate D2E/DX2                !
 ! D25   D(5,4,9,11)           179.2435         estimate D2E/DX2                !
 ! D26   D(4,9,11,12)          116.1236         estimate D2E/DX2                !
 ! D27   D(4,9,11,13)         -125.4293         estimate D2E/DX2                !
 ! D28   D(4,9,11,14)           -5.3101         estimate D2E/DX2                !
 ! D29   D(10,9,11,12)         -64.9083         estimate D2E/DX2                !
 ! D30   D(10,9,11,13)          53.5388         estimate D2E/DX2                !
 ! D31   D(10,9,11,14)         173.658          estimate D2E/DX2                !
 ! D32   D(16,15,19,20)        -59.6682         estimate D2E/DX2                !
 ! D33   D(16,15,19,24)        121.0696         estimate D2E/DX2                !
 ! D34   D(17,15,19,20)       -179.7197         estimate D2E/DX2                !
 ! D35   D(17,15,19,24)          1.0181         estimate D2E/DX2                !
 ! D36   D(18,15,19,20)         60.1891         estimate D2E/DX2                !
 ! D37   D(18,15,19,24)       -119.0731         estimate D2E/DX2                !
 ! D38   D(15,19,20,21)        -52.7876         estimate D2E/DX2                !
 ! D39   D(15,19,20,22)         66.5516         estimate D2E/DX2                !
 ! D40   D(15,19,20,23)       -172.3435         estimate D2E/DX2                !
 ! D41   D(24,19,20,21)        126.4351         estimate D2E/DX2                !
 ! D42   D(24,19,20,22)       -114.2257         estimate D2E/DX2                !
 ! D43   D(24,19,20,23)          6.8792         estimate D2E/DX2                !
 ! D44   D(15,19,24,25)          0.5659         estimate D2E/DX2                !
 ! D45   D(15,19,24,26)       -178.8634         estimate D2E/DX2                !
 ! D46   D(20,19,24,25)       -178.6116         estimate D2E/DX2                !
 ! D47   D(20,19,24,26)          1.9591         estimate D2E/DX2                !
 ! D48   D(19,24,26,1)        -102.9241         estimate D2E/DX2                !
 ! D49   D(19,24,26,27)        134.5069         estimate D2E/DX2                !
 ! D50   D(19,24,26,28)         19.6756         estimate D2E/DX2                !
 ! D51   D(25,24,26,1)          77.6244         estimate D2E/DX2                !
 ! D52   D(25,24,26,27)        -44.9446         estimate D2E/DX2                !
 ! D53   D(25,24,26,28)       -159.7759         estimate D2E/DX2                !
 --------------------------------------------------------------------------------
 Trust Radius=3.00D-01 FncErr=1.00D-07 GrdErr=1.00D-07 EigMax=2.50D+02 EigMin=1.00D-04
 Number of steps in this run=    138 maximum allowed number of steps=    168.
 GradGradGradGradGradGradGradGradGradGradGradGradGradGradGradGradGradGrad

 Leave Link  103 at Wed Jul 14 14:07:10 2021, MaxMem=   524288000 cpu:               0.0 elap:               0.1
 (Enter /opt/gaussian/g16_legacy/l202.exe)
                          Input orientation:                          
 ---------------------------------------------------------------------
 Center     Atomic      Atomic             Coordinates (Angstroms)
 Number     Number       Type             X           Y           Z
 ---------------------------------------------------------------------
      1          6           0       -1.171300    1.137100    0.280500
      2          1           0       -1.727500    2.075300    0.409600
      3          1           0       -1.204700    0.658200    1.265200
      4          6           0       -1.892000    0.304700   -0.763900
      5          6           0       -2.344400    1.065100   -1.985300
      6          1           0       -2.902700    0.433100   -2.684200
      7          1           0       -1.484400    1.472200   -2.525700
      8          1           0       -2.999300    1.893500   -1.696100
      9          6           0       -2.163100   -1.010600   -0.645100
     10          1           0       -2.707500   -1.503400   -1.450300
     11          6           0       -1.786900   -1.929600    0.474100
     12          1           0       -2.690500   -2.298100    0.969200
     13          1           0       -1.244600   -2.791100    0.071200
     14          1           0       -1.148700   -1.466700    1.229000
     15          6           0        2.920300   -1.348700    0.598100
     16          1           0        3.983800   -1.089700    0.626800
     17          1           0        2.719700   -1.822100   -0.368800
     18          1           0        2.720700   -2.090200    1.378600
     19          6           0        2.079000   -0.118700    0.819200
     20          6           0        2.324200    0.570700    2.132500
     21          1           0        2.231800   -0.145900    2.955900
     22          1           0        3.334800    0.991100    2.153900
     23          1           0        1.618600    1.379000    2.337000
     24          6           0        1.185900    0.275700   -0.109300
     25          1           0        1.082600   -0.321600   -1.015700
     26          6           0        0.283500    1.480800   -0.071700
     27          1           0        0.331600    1.975300   -1.049600
     28          1           0        0.651400    2.224700    0.642400
 ---------------------------------------------------------------------
                    Distance matrix (angstroms):
                    1          2          3          4          5
     1  C    0.000000
     2  H    1.098292   0.000000
     3  H    1.095488   1.735956   0.000000
     4  C    1.517587   2.130537   2.171311   0.000000
     5  C    2.552488   2.671444   3.468463   1.508208   0.000000
     6  H    3.504684   3.694525   4.304838   2.173834   1.095255
     7  H    2.843428   3.006462   3.887384   2.152471   1.094241
     8  H    2.796547   2.466678   3.676391   2.149278   1.094887
     9  C    2.540279   3.290124   2.711581   1.348192   2.477405
    10  H    3.511099   4.150509   3.782177   2.098907   2.648633
    11  C    3.133862   4.005860   2.767942   2.556518   3.915058
    12  H    3.818753   4.512998   3.321886   3.227353   4.489985
    13  H    3.934455   4.901995   3.650329   3.271161   4.506554
    14  H    2.771270   3.681330   2.125946   2.768032   4.262797
    15  C    4.798048   5.775929   4.635547   5.267543   6.341723
    16  H    5.626155   6.533249   5.512100   6.197050   7.177210
    17  H    4.931363   5.964329   4.921662   5.093835   6.049306
    18  H    5.173872   6.170643   4.793259   5.621642   6.850327
    19  C    3.525859   4.412579   3.403700   4.295848   5.369643
    20  C    3.996152   4.652793   3.634969   5.122132   6.244721
    21  H    4.514969   5.205135   3.913384   5.571865   6.842776
    22  H    4.882200   5.463053   4.637636   6.025292   7.027928
    23  H    3.474370   3.923785   3.104727   4.805623   5.872493
    24  C    2.539753   3.463483   2.783976   3.146873   4.074990
    25  H    2.981276   3.958948   3.375538   3.050230   3.821962
    26  C    1.535779   2.151558   2.163033   2.568103   3.277275
    27  H    2.174961   2.525699   3.074617   2.795877   2.977411
    28  H    2.153156   2.394928   2.507371   3.483240   4.150217
                    6          7          8          9         10
     6  H    0.000000
     7  H    1.765340   0.000000
     8  H    1.765911   1.777822   0.000000
     9  C    2.605611   3.187724   3.199629   0.000000
    10  H    2.304484   3.392146   3.418259   1.089757   0.000000
    11  C    4.099051   4.545608   4.560239   1.496227   2.175423
    12  H    4.566379   5.280546   4.976815   2.131143   2.546727
    13  H    4.553789   4.997712   5.305450   2.127653   2.472491
    14  H    4.690297   4.779916   4.824093   2.179286   3.099976
    15  C    6.917777   6.092371   7.128596   5.244122   5.990994
    16  H    7.791375   6.811960   7.940972   6.277608   7.018475
    17  H    6.485244   5.760129   6.947976   4.957480   5.543078
    18  H    7.382142   6.754045   7.618533   5.395591   6.149176
    19  C    6.115197   5.139761   6.013719   4.575486   5.475272
    20  C    7.109150   6.084157   6.689367   5.509213   6.515854
    21  H    7.649121   6.817355   7.291410   5.747178   6.756781
    22  H    7.913595   6.734597   7.467104   6.485993   7.464729
    23  H    6.822707   5.769155   6.152691   5.376278   6.431719
    24  C    4.834412   3.794879   4.759318   3.627320   4.485760
    25  H    4.385896   3.476681   4.693775   3.338657   3.993793
    26  C    4.251435   3.024510   3.685888   3.538603   4.444330
    27  H    3.938400   2.393708   3.394046   3.911873   4.636598
    28  H    5.187266   3.894195   4.348090   4.477302   5.436941
                   11         12         13         14         15
    11  C    0.000000
    12  H    1.094262   0.000000
    13  H    1.094806   1.772027   0.000000
    14  H    1.091535   1.770839   1.761741   0.000000
    15  C    4.744529   5.702644   4.438979   4.119311   0.000000
    16  H    5.833500   6.791447   5.526266   5.181441   1.094960
    17  H    4.586009   5.593486   4.104660   4.200451   1.095100
    18  H    4.600258   5.430646   4.233693   3.922166   1.094917
    19  C    4.282947   5.245990   4.329843   3.521802   1.506510
    20  C    5.089492   5.893259   5.318552   4.126542   2.528599
    21  H    5.048848   5.727825   5.234877   4.019263   2.734955
    22  H    6.130581   6.966103   6.293932   5.195959   2.840244
    23  H    5.100457   5.827545   5.542698   4.121119   3.486910
    24  C    3.747165   4.776409   3.917292   3.205832   2.479362
    25  H    3.610983   4.699219   3.563094   3.365803   2.652626
    26  C    4.026820   4.920186   4.539233   3.525730   3.925228
    27  H    4.696589   5.609865   5.143848   4.385279   4.523854
    28  H    4.819942   5.633011   5.392526   4.148601   4.233091
                   16         17         18         19         20
    16  H    0.000000
    17  H    1.767930   0.000000
    18  H    1.778096   1.767848   0.000000
    19  C    2.146654   2.173341   2.147445   0.000000
    20  C    2.788966   3.484023   2.793916   1.503380   0.000000
    21  H    3.063490   3.755173   2.550922   2.142329   1.095464
    22  H    2.661384   3.828375   3.236143   2.142455   1.094763
    23  H    3.822752   4.333684   3.764107   2.181465   1.092264
    24  C    3.199126   2.611637   3.188564   1.347327   2.531486
    25  H    3.421220   2.313023   3.397645   2.097818   3.499848
    26  C    4.559341   4.114910   4.560192   2.564356   3.138668
    27  H    5.054019   4.537263   5.303984   3.306154   4.008630
    28  H    4.700040   4.655854   4.841731   2.749695   2.784668
                   21         22         23         24         25
    21  H    0.000000
    22  H    1.775551   0.000000
    23  H    1.756238   1.768992   0.000000
    24  C    3.266053   3.201819   2.718250   0.000000
    25  H    4.138253   4.103895   3.797359   1.090412   0.000000
    26  C    3.950745   3.808350   2.755847   1.505990   2.185942
    27  H    4.914700   4.500030   3.671648   2.121941   2.416795
    28  H    3.670108   3.317685   2.126583   2.156234   3.069018
                   26         27         28
    26  C    0.000000
    27  H    1.096874   0.000000
    28  H    1.094841   1.739924   0.000000
 Stoichiometry    C10H18
 Framework group  C1[X(C10H18)]
 Deg. of freedom    78
 Full point group                 C1      NOp   1
 Largest Abelian subgroup         C1      NOp   1
 Largest concise Abelian subgroup C1      NOp   1
                         Standard orientation:                         
 ---------------------------------------------------------------------
 Center     Atomic      Atomic             Coordinates (Angstroms)
 Number     Number       Type             X           Y           Z
 ---------------------------------------------------------------------
      1          6           0        1.027943   -0.895939    0.833094
      2          1           0        1.543009   -1.715322    1.352288
      3          1           0        0.608892   -0.279932    1.636229
      4          6           0        2.060608   -0.128033    0.028735
      5          6           0        3.038627   -0.983653   -0.736827
      6          1           0        3.793060   -0.385414   -1.258866
      7          1           0        2.518016   -1.584529   -1.488674
      8          1           0        3.567603   -1.658146   -0.055636
      9          6           0        2.162057    1.215839   -0.007856
     10          1           0        2.958644    1.660437   -0.603971
     11          6           0        1.284735    2.222939    0.666497
     12          1           0        1.866605    2.785777    1.402737
     13          1           0        0.903134    2.929656   -0.077500
     14          1           0        0.422439    1.786786    1.174105
     15          6           0       -2.981410    0.992287   -1.005643
     16          1           0       -3.936467    0.589284   -1.358336
     17          1           0       -2.426050    1.344850   -1.881152
     18          1           0       -3.182795    1.859829   -0.368731
     19          6           0       -2.226665   -0.058251   -0.233437
     20          6           0       -2.953040   -0.578606    0.975596
     21          1           0       -3.267648    0.255281    1.612538
     22          1           0       -3.845722   -1.133016    0.668587
     23          1           0       -2.343950   -1.238348    1.597520
     24          6           0       -0.999790   -0.449584   -0.629579
     25          1           0       -0.566705    0.018958   -1.513833
     26          6           0       -0.114211   -1.493456   -0.001816
     27          1           0        0.289794   -2.125874   -0.801791
     28          1           0       -0.694980   -2.171532    0.631901
 ---------------------------------------------------------------------
 Rotational constants (GHZ):           1.8849319           0.6991671           0.6020948
 Leave Link  202 at Wed Jul 14 14:07:10 2021, MaxMem=   524288000 cpu:               0.0 elap:               0.2
 (Enter /opt/gaussian/g16_legacy/l301.exe)
 Standard basis: VSTO-6G (5D, 7F)
 Ernie: Thresh=  0.10000D-02 Tol=  0.10000D-05 Strict=F.
  NNHCO=     0 NNPyr=     0 NCTC=     0               EPep=         0.000000000
    EC=       253.568475903  ECS=         3.521402882   EG=         0.892416619
   EHC=         0.000000000  EAt=       -49.524085099  AtH=         4.217842293
 EPDDG=         0.000000000  ECC=       257.982295403 EAtT=        53.741927392
 There are    58 symmetry adapted cartesian basis functions of A   symmetry.
 There are    58 symmetry adapted basis functions of A   symmetry.
    58 basis functions,   348 primitive gaussians,    58 cartesian basis functions
    29 alpha electrons       29 beta electrons
       nuclear repulsion energy       311.7242227954 Hartrees.
 IExCor=    0 DFT=F Ex=HF Corr=None ExCW=0 ScaHFX=  1.000000
 ScaDFX=  1.000000  1.000000  1.000000  1.000000 ScalE2=  1.000000  1.000000
 IRadAn=      5 IRanWt=     -1 IRanGd=            0 ICorTp=0 IEmpDi=  4
 Integral buffers will be    131072 words long.
 Regular integral format.
 Two-electron integral symmetry is turned off.
 Leave Link  301 at Wed Jul 14 14:07:10 2021, MaxMem=   524288000 cpu:               0.2 elap:               0.2
 (Enter /opt/gaussian/g16_legacy/l302.exe)
 Do NDO integrals.
 NPDir=0 NMtPBC=     1 NCelOv=     1 NCel=       1 NClECP=     1 NCelD=      1
         NCelK=      1 NCelE2=     1 NClLst=     1 CellRange=     0.0.
 One-electron integrals computed using PRISM.
 NBasis=    58 RedAO= F EigKep=  0.00D+00  NBF=    58
 NBsUse=    58 1.00D-04 EigRej=  0.00D+00 NBFU=    58
 Leave Link  302 at Wed Jul 14 14:07:11 2021, MaxMem=   524288000 cpu:               0.2 elap:               0.4
 (Enter /opt/gaussian/g16_legacy/l303.exe)
 DipDrv:  MaxL=1.
 Leave Link  303 at Wed Jul 14 14:07:11 2021, MaxMem=   524288000 cpu:               0.0 elap:               0.0
 (Enter /opt/gaussian/g16_legacy/l401.exe)
 Simple Huckel Guess.
 JPrj=0 DoOrth=F DoCkMO=F.
 Leave Link  401 at Wed Jul 14 14:07:12 2021, MaxMem=   524288000 cpu:               0.2 elap:               0.3
 (Enter /opt/gaussian/g16_legacy/l502.exe)
 Keep J ints in memory in canonical form, NReq=866866.
 FoFCou: FMM=F IPFlag=           0 FMFlag=           0 FMFlg1=           0
         NFxFlg=           0 DoJE=F BraDBF=F KetDBF=F FulRan=T
         wScrn=  0.000000 ICntrl=       600 IOpCl=  2 I1Cent=           0 NGrid=           0
         NMat0=    1 NMatS0=    118 NMatT0=    0 NMatD0=    1 NMtDS0=    0 NMtDT0=    0
 Symmetry not used in FoFCou.
 Two-electron integral symmetry not used.
 Closed shell SCF:
 Using DIIS extrapolation, IDIIS=  1040.
 Overlap will be assumed to be unity.
 NGot=   524288000 LenX=   524213697 LenY=   524209892
 Requested convergence on RMS density matrix=1.00D-08 within 128 cycles.
 Requested convergence on MAX density matrix=1.00D-06.
 Requested convergence on             energy=1.00D-06.
 No special actions if energy rises.

 Cycle   1  Pass 1  IDiag  1:
 E= 0.217356973962922    
 DIIS: error= 2.74D-02 at cycle   1 NSaved=   1.
 NSaved= 1 IEnMin= 1 EnMin= 0.217356973962922     IErMin= 1 ErrMin= 2.74D-02
 ErrMax= 2.74D-02  0.00D+00 EMaxC= 1.00D-01 BMatC= 9.41D-02 BMatP= 9.41D-02
 IDIUse=3 WtCom= 7.26D-01 WtEn= 2.74D-01
 Coeff-Com:  0.100D+01
 Coeff-En:   0.100D+01
 Coeff:      0.100D+01
 GapD=    2.000 DampG=2.000 DampE=0.500 DampFc=1.0000 IDamp=-1.
 RMSDP=7.14D-03 MaxDP=8.49D-02              OVMax= 0.00D+00

 Cycle   2  Pass 1  IDiag  1:
 E=-0.156025192814013E-02 Delta-E=       -0.218917225891 Rises=F Damp=F
 DIIS: error= 7.99D-03 at cycle   2 NSaved=   2.
 NSaved= 2 IEnMin= 2 EnMin=-0.156025192814013E-02 IErMin= 2 ErrMin= 7.99D-03
 ErrMax= 7.99D-03  0.00D+00 EMaxC= 1.00D-01 BMatC= 6.06D-03 BMatP= 9.41D-02
 IDIUse=3 WtCom= 9.20D-01 WtEn= 7.99D-02
 Coeff-Com: -0.318D+00 0.132D+01
 Coeff-En:   0.000D+00 0.100D+01
 Coeff:     -0.293D+00 0.129D+01
 RMSDP=2.60D-03 MaxDP=2.87D-02 DE=-2.19D-01 OVMax= 0.00D+00

 Cycle   3  Pass 1  IDiag  3:
 E=-0.189474998269930E-01 Delta-E=       -0.017387247899 Rises=F Damp=F
 DIIS: error= 9.53D-04 at cycle   3 NSaved=   3.
 NSaved= 3 IEnMin= 3 EnMin=-0.189474998269930E-01 IErMin= 3 ErrMin= 9.53D-04
 ErrMax= 9.53D-04  0.00D+00 EMaxC= 1.00D-01 BMatC= 7.50D-05 BMatP= 6.06D-03
 IDIUse=3 WtCom= 9.90D-01 WtEn= 9.53D-03
 Coeff-Com:  0.110D+00-0.514D+00 0.140D+01
 Coeff-En:   0.000D+00 0.000D+00 0.100D+01
 Coeff:      0.109D+00-0.509D+00 0.140D+01
 Gap=     0.377 Goal=   None    Shift=    0.000
 RMSDP=4.35D-04 MaxDP=4.17D-03 DE=-1.74D-02 OVMax= 5.87D-03

 Cycle   4  Pass 1  IDiag  3:
 E=-0.192935160241063E-01 Delta-E=       -0.000346016197 Rises=F Damp=F
 DIIS: error= 1.52D-04 at cycle   4 NSaved=   4.
 NSaved= 4 IEnMin= 4 EnMin=-0.192935160241063E-01 IErMin= 4 ErrMin= 1.52D-04
 ErrMax= 1.52D-04  0.00D+00 EMaxC= 1.00D-01 BMatC= 3.32D-06 BMatP= 7.50D-05
 IDIUse=3 WtCom= 9.98D-01 WtEn= 1.52D-03
 Coeff-Com: -0.486D-01 0.232D+00-0.744D+00 0.156D+01
 Coeff-En:   0.000D+00 0.000D+00 0.000D+00 0.100D+01
 Coeff:     -0.485D-01 0.232D+00-0.743D+00 0.156D+01
 Gap=     0.377 Goal=   None    Shift=    0.000
 RMSDP=1.11D-04 MaxDP=1.14D-03 DE=-3.46D-04 OVMax= 8.28D-04

 Cycle   5  Pass 1  IDiag  3:
 E=-0.193124403823504E-01 Delta-E=       -0.000018924358 Rises=F Damp=F
 DIIS: error= 4.27D-05 at cycle   5 NSaved=   5.
 NSaved= 5 IEnMin= 5 EnMin=-0.193124403823504E-01 IErMin= 5 ErrMin= 4.27D-05
 ErrMax= 4.27D-05  0.00D+00 EMaxC= 1.00D-01 BMatC= 1.89D-07 BMatP= 3.32D-06
 IDIUse=1 WtCom= 1.00D+00 WtEn= 0.00D+00
 Coeff-Com:  0.135D-01-0.646D-01 0.215D+00-0.599D+00 0.144D+01
 Coeff:      0.135D-01-0.646D-01 0.215D+00-0.599D+00 0.144D+01
 Gap=     0.377 Goal=   None    Shift=    0.000
 RMSDP=2.75D-05 MaxDP=3.02D-04 DE=-1.89D-05 OVMax= 2.25D-04

 Cycle   6  Pass 1  IDiag  3:
 E=-0.193136115302082E-01 Delta-E=       -0.000001171148 Rises=F Damp=F
 DIIS: error= 1.54D-05 at cycle   6 NSaved=   6.
 NSaved= 6 IEnMin= 6 EnMin=-0.193136115302082E-01 IErMin= 6 ErrMin= 1.54D-05
 ErrMax= 1.54D-05  0.00D+00 EMaxC= 1.00D-01 BMatC= 1.62D-08 BMatP= 1.89D-07
 IDIUse=1 WtCom= 1.00D+00 WtEn= 0.00D+00
 Coeff-Com: -0.507D-02 0.242D-01-0.793D-01 0.227D+00-0.759D+00 0.159D+01
 Coeff:     -0.507D-02 0.242D-01-0.793D-01 0.227D+00-0.759D+00 0.159D+01
 Gap=     0.377 Goal=   None    Shift=    0.000
 RMSDP=9.44D-06 MaxDP=1.18D-04 DE=-1.17D-06 OVMax= 9.76D-05

 Cycle   7  Pass 1  IDiag  3:
 E=-0.193137238877625E-01 Delta-E=       -0.000000112358 Rises=F Damp=F
 DIIS: error= 4.26D-06 at cycle   7 NSaved=   7.
 NSaved= 7 IEnMin= 7 EnMin=-0.193137238877625E-01 IErMin= 7 ErrMin= 4.26D-06
 ErrMax= 4.26D-06  0.00D+00 EMaxC= 1.00D-01 BMatC= 1.10D-09 BMatP= 1.62D-08
 IDIUse=1 WtCom= 1.00D+00 WtEn= 0.00D+00
 Coeff-Com:  0.130D-02-0.617D-02 0.199D-01-0.590D-01 0.262D+00-0.800D+00
 Coeff-Com:  0.158D+01
 Coeff:      0.130D-02-0.617D-02 0.199D-01-0.590D-01 0.262D+00-0.800D+00
 Coeff:      0.158D+01
 Gap=     0.377 Goal=   None    Shift=    0.000
 RMSDP=2.52D-06 MaxDP=3.12D-05 DE=-1.12D-07 OVMax= 3.23D-05

 Cycle   8  Pass 1  IDiag  3:
 E=-0.193137312679710E-01 Delta-E=       -0.000000007380 Rises=F Damp=F
 DIIS: error= 1.07D-06 at cycle   8 NSaved=   8.
 NSaved= 8 IEnMin= 8 EnMin=-0.193137312679710E-01 IErMin= 8 ErrMin= 1.07D-06
 ErrMax= 1.07D-06  0.00D+00 EMaxC= 1.00D-01 BMatC= 4.71D-11 BMatP= 1.10D-09
 IDIUse=1 WtCom= 1.00D+00 WtEn= 0.00D+00
 Coeff-Com: -0.113D-03 0.528D-03-0.161D-02 0.525D-02-0.412D-01 0.172D+00
 Coeff-Com: -0.505D+00 0.137D+01
 Coeff:     -0.113D-03 0.528D-03-0.161D-02 0.525D-02-0.412D-01 0.172D+00
 Coeff:     -0.505D+00 0.137D+01
 Gap=     0.377 Goal=   None    Shift=    0.000
 RMSDP=4.65D-07 MaxDP=7.30D-06 DE=-7.38D-09 OVMax= 7.21D-06

 Cycle   9  Pass 1  IDiag  3:
 E=-0.193137315726517E-01 Delta-E=       -0.000000000305 Rises=F Damp=F
 DIIS: error= 2.32D-07 at cycle   9 NSaved=   9.
 NSaved= 9 IEnMin= 9 EnMin=-0.193137315726517E-01 IErMin= 9 ErrMin= 2.32D-07
 ErrMax= 2.32D-07  0.00D+00 EMaxC= 1.00D-01 BMatC= 4.59D-12 BMatP= 4.71D-11
 IDIUse=1 WtCom= 1.00D+00 WtEn= 0.00D+00
 Coeff-Com:  0.377D-04-0.172D-03 0.482D-03-0.152D-02 0.160D-01-0.739D-01
 Coeff-Com:  0.234D+00-0.834D+00 0.166D+01
 Coeff:      0.377D-04-0.172D-03 0.482D-03-0.152D-02 0.160D-01-0.739D-01
 Coeff:      0.234D+00-0.834D+00 0.166D+01
 Gap=     0.377 Goal=   None    Shift=    0.000
 RMSDP=1.64D-07 MaxDP=2.24D-06 DE=-3.05D-10 OVMax= 2.41D-06

 Cycle  10  Pass 1  IDiag  3:
 E=-0.193137316036882E-01 Delta-E=       -0.000000000031 Rises=F Damp=F
 DIIS: error= 5.77D-08 at cycle  10 NSaved=  10.
 NSaved=10 IEnMin=10 EnMin=-0.193137316036882E-01 IErMin=10 ErrMin= 5.77D-08
 ErrMax= 5.77D-08  0.00D+00 EMaxC= 1.00D-01 BMatC= 2.62D-13 BMatP= 4.59D-12
 IDIUse=1 WtCom= 1.00D+00 WtEn= 0.00D+00
 Coeff-Com: -0.333D-05 0.132D-04-0.171D-04 0.106D-03-0.389D-02 0.208D-01
 Coeff-Com: -0.705D-01 0.287D+00-0.778D+00 0.155D+01
 Coeff:     -0.333D-05 0.132D-04-0.171D-04 0.106D-03-0.389D-02 0.208D-01
 Coeff:     -0.705D-01 0.287D+00-0.778D+00 0.155D+01
 Gap=     0.377 Goal=   None    Shift=    0.000
 RMSDP=3.97D-08 MaxDP=5.06D-07 DE=-3.10D-11 OVMax= 4.79D-07

 Cycle  11  Pass 1  IDiag  3:
 E=-0.193137316071557E-01 Delta-E=       -0.000000000003 Rises=F Damp=F
 DIIS: error= 9.13D-09 at cycle  11 NSaved=  11.
 NSaved=11 IEnMin=11 EnMin=-0.193137316071557E-01 IErMin=11 ErrMin= 9.13D-09
 ErrMax= 9.13D-09  0.00D+00 EMaxC= 1.00D-01 BMatC= 8.38D-15 BMatP= 2.62D-13
 IDIUse=1 WtCom= 1.00D+00 WtEn= 0.00D+00
 Coeff-Com:  0.188D-06 0.359D-08-0.899D-05 0.966D-05 0.115D-02-0.659D-02
 Coeff-Com:  0.230D-01-0.970D-01 0.283D+00-0.674D+00 0.147D+01
 Coeff:      0.188D-06 0.359D-08-0.899D-05 0.966D-05 0.115D-02-0.659D-02
 Coeff:      0.230D-01-0.970D-01 0.283D+00-0.674D+00 0.147D+01
 Gap=     0.377 Goal=   None    Shift=    0.000
 RMSDP=5.84D-09 MaxDP=7.85D-08 DE=-3.47D-12 OVMax= 4.92D-08

 Cycle  12  Pass 2  IDiag  1:
 SCF Done:  E(RPM3) = -0.193137316072E-01 A.U. after   12 cycles
            NFock= 11  Conv=0.58D-08     -V/T= 0.9998
 KE=-7.900988649621D+01 PE=-5.058169266713D+02 EE= 2.730832766406D+02
 Leave Link  502 at Wed Jul 14 14:07:12 2021, MaxMem=   524288000 cpu:               0.1 elap:               0.5
 (Enter /opt/gaussian/g16_legacy/l601.exe)
 Copying SCF densities to generalized density rwf, IOpCl= 0 IROHF=0.

 **********************************************************************

            Population analysis using the SCF density.

 **********************************************************************

 Orbital symmetries:
       Occupied  (A) (A) (A) (A) (A) (A) (A) (A) (A) (A) (A) (A)
                 (A) (A) (A) (A) (A) (A) (A) (A) (A) (A) (A) (A)
                 (A) (A) (A) (A) (A)
       Virtual   (A) (A) (A) (A) (A) (A) (A) (A) (A) (A) (A) (A)
                 (A) (A) (A) (A) (A) (A) (A) (A) (A) (A) (A) (A)
                 (A) (A) (A) (A) (A)
 The electronic state is 1-A.
 Alpha  occ. eigenvalues --   -1.45697  -1.34168  -1.17892  -1.10493  -1.01205
 Alpha  occ. eigenvalues --   -0.95186  -0.86796  -0.80237  -0.67416  -0.63356
 Alpha  occ. eigenvalues --   -0.60762  -0.58937  -0.56669  -0.56335  -0.55133
 Alpha  occ. eigenvalues --   -0.54047  -0.51168  -0.50074  -0.48885  -0.48531
 Alpha  occ. eigenvalues --   -0.48290  -0.47491  -0.47044  -0.46823  -0.45469
 Alpha  occ. eigenvalues --   -0.43202  -0.42294  -0.35317  -0.34098
 Alpha virt. eigenvalues --    0.03633   0.04329   0.12159   0.12201   0.13299
 Alpha virt. eigenvalues --    0.13550   0.14113   0.14421   0.14966   0.15277
 Alpha virt. eigenvalues --    0.15469   0.15812   0.15984   0.16187   0.16469
 Alpha virt. eigenvalues --    0.16564   0.16610   0.16788   0.16949   0.17108
 Alpha virt. eigenvalues --    0.17258   0.17341   0.17642   0.17975   0.18093
 Alpha virt. eigenvalues --    0.20964   0.21164   0.22512   0.22605
          Condensed to atoms (all electrons):
               1          2          3          4          5          6
     1  C    4.045865   0.000000   0.000000   0.000000   0.000000   0.000000
     2  H    0.000000   0.952435   0.000000   0.000000   0.000000   0.000000
     3  H    0.000000   0.000000   0.943890   0.000000   0.000000   0.000000
     4  C    0.000000   0.000000   0.000000   4.125178   0.000000   0.000000
     5  C    0.000000   0.000000   0.000000   0.000000   4.067576   0.000000
     6  H    0.000000   0.000000   0.000000   0.000000   0.000000   0.960147
     7  H    0.000000   0.000000   0.000000   0.000000   0.000000   0.000000
     8  H    0.000000   0.000000   0.000000   0.000000   0.000000   0.000000
     9  C    0.000000   0.000000   0.000000   0.000000   0.000000   0.000000
    10  H    0.000000   0.000000   0.000000   0.000000   0.000000   0.000000
    11  C    0.000000   0.000000   0.000000   0.000000   0.000000   0.000000
    12  H    0.000000   0.000000   0.000000   0.000000   0.000000   0.000000
    13  H    0.000000   0.000000   0.000000   0.000000   0.000000   0.000000
    14  H    0.000000   0.000000   0.000000   0.000000   0.000000   0.000000
    15  C    0.000000   0.000000   0.000000   0.000000   0.000000   0.000000
    16  H    0.000000   0.000000   0.000000   0.000000   0.000000   0.000000
    17  H    0.000000   0.000000   0.000000   0.000000   0.000000   0.000000
    18  H    0.000000   0.000000   0.000000   0.000000   0.000000   0.000000
    19  C    0.000000   0.000000   0.000000   0.000000   0.000000   0.000000
    20  C    0.000000   0.000000   0.000000   0.000000   0.000000   0.000000
    21  H    0.000000   0.000000   0.000000   0.000000   0.000000   0.000000
    22  H    0.000000   0.000000   0.000000   0.000000   0.000000   0.000000
    23  H    0.000000   0.000000   0.000000   0.000000   0.000000   0.000000
    24  C    0.000000   0.000000   0.000000   0.000000   0.000000   0.000000
    25  H    0.000000   0.000000   0.000000   0.000000   0.000000   0.000000
    26  C    0.000000   0.000000   0.000000   0.000000   0.000000   0.000000
    27  H    0.000000   0.000000   0.000000   0.000000   0.000000   0.000000
    28  H    0.000000   0.000000   0.000000   0.000000   0.000000   0.000000
               7          8          9         10         11         12
     1  C    0.000000   0.000000   0.000000   0.000000   0.000000   0.000000
     2  H    0.000000   0.000000   0.000000   0.000000   0.000000   0.000000
     3  H    0.000000   0.000000   0.000000   0.000000   0.000000   0.000000
     4  C    0.000000   0.000000   0.000000   0.000000   0.000000   0.000000
     5  C    0.000000   0.000000   0.000000   0.000000   0.000000   0.000000
     6  H    0.000000   0.000000   0.000000   0.000000   0.000000   0.000000
     7  H    0.954540   0.000000   0.000000   0.000000   0.000000   0.000000
     8  H    0.000000   0.957011   0.000000   0.000000   0.000000   0.000000
     9  C    0.000000   0.000000   4.148406   0.000000   0.000000   0.000000
    10  H    0.000000   0.000000   0.000000   0.907600   0.000000   0.000000
    11  C    0.000000   0.000000   0.000000   0.000000   4.069941   0.000000
    12  H    0.000000   0.000000   0.000000   0.000000   0.000000   0.957343
    13  H    0.000000   0.000000   0.000000   0.000000   0.000000   0.000000
    14  H    0.000000   0.000000   0.000000   0.000000   0.000000   0.000000
    15  C    0.000000   0.000000   0.000000   0.000000   0.000000   0.000000
    16  H    0.000000   0.000000   0.000000   0.000000   0.000000   0.000000
    17  H    0.000000   0.000000   0.000000   0.000000   0.000000   0.000000
    18  H    0.000000   0.000000   0.000000   0.000000   0.000000   0.000000
    19  C    0.000000   0.000000   0.000000   0.000000   0.000000   0.000000
    20  C    0.000000   0.000000   0.000000   0.000000   0.000000   0.000000
    21  H    0.000000   0.000000   0.000000   0.000000   0.000000   0.000000
    22  H    0.000000   0.000000   0.000000   0.000000   0.000000   0.000000
    23  H    0.000000   0.000000   0.000000   0.000000   0.000000   0.000000
    24  C    0.000000   0.000000   0.000000   0.000000   0.000000   0.000000
    25  H    0.000000   0.000000   0.000000   0.000000   0.000000   0.000000
    26  C    0.000000   0.000000   0.000000   0.000000   0.000000   0.000000
    27  H    0.000000   0.000000   0.000000   0.000000   0.000000   0.000000
    28  H    0.000000   0.000000   0.000000   0.000000   0.000000   0.000000
              13         14         15         16         17         18
     1  C    0.000000   0.000000   0.000000   0.000000   0.000000   0.000000
     2  H    0.000000   0.000000   0.000000   0.000000   0.000000   0.000000
     3  H    0.000000   0.000000   0.000000   0.000000   0.000000   0.000000
     4  C    0.000000   0.000000   0.000000   0.000000   0.000000   0.000000
     5  C    0.000000   0.000000   0.000000   0.000000   0.000000   0.000000
     6  H    0.000000   0.000000   0.000000   0.000000   0.000000   0.000000
     7  H    0.000000   0.000000   0.000000   0.000000   0.000000   0.000000
     8  H    0.000000   0.000000   0.000000   0.000000   0.000000   0.000000
     9  C    0.000000   0.000000   0.000000   0.000000   0.000000   0.000000
    10  H    0.000000   0.000000   0.000000   0.000000   0.000000   0.000000
    11  C    0.000000   0.000000   0.000000   0.000000   0.000000   0.000000
    12  H    0.000000   0.000000   0.000000   0.000000   0.000000   0.000000
    13  H    0.957848   0.000000   0.000000   0.000000   0.000000   0.000000
    14  H    0.000000   0.952100   0.000000   0.000000   0.000000   0.000000
    15  C    0.000000   0.000000   4.067768   0.000000   0.000000   0.000000
    16  H    0.000000   0.000000   0.000000   0.956611   0.000000   0.000000
    17  H    0.000000   0.000000   0.000000   0.000000   0.958575   0.000000
    18  H    0.000000   0.000000   0.000000   0.000000   0.000000   0.956557
    19  C    0.000000   0.000000   0.000000   0.000000   0.000000   0.000000
    20  C    0.000000   0.000000   0.000000   0.000000   0.000000   0.000000
    21  H    0.000000   0.000000   0.000000   0.000000   0.000000   0.000000
    22  H    0.000000   0.000000   0.000000   0.000000   0.000000   0.000000
    23  H    0.000000   0.000000   0.000000   0.000000   0.000000   0.000000
    24  C    0.000000   0.000000   0.000000   0.000000   0.000000   0.000000
    25  H    0.000000   0.000000   0.000000   0.000000   0.000000   0.000000
    26  C    0.000000   0.000000   0.000000   0.000000   0.000000   0.000000
    27  H    0.000000   0.000000   0.000000   0.000000   0.000000   0.000000
    28  H    0.000000   0.000000   0.000000   0.000000   0.000000   0.000000
              19         20         21         22         23         24
     1  C    0.000000   0.000000   0.000000   0.000000   0.000000   0.000000
     2  H    0.000000   0.000000   0.000000   0.000000   0.000000   0.000000
     3  H    0.000000   0.000000   0.000000   0.000000   0.000000   0.000000
     4  C    0.000000   0.000000   0.000000   0.000000   0.000000   0.000000
     5  C    0.000000   0.000000   0.000000   0.000000   0.000000   0.000000
     6  H    0.000000   0.000000   0.000000   0.000000   0.000000   0.000000
     7  H    0.000000   0.000000   0.000000   0.000000   0.000000   0.000000
     8  H    0.000000   0.000000   0.000000   0.000000   0.000000   0.000000
     9  C    0.000000   0.000000   0.000000   0.000000   0.000000   0.000000
    10  H    0.000000   0.000000   0.000000   0.000000   0.000000   0.000000
    11  C    0.000000   0.000000   0.000000   0.000000   0.000000   0.000000
    12  H    0.000000   0.000000   0.000000   0.000000   0.000000   0.000000
    13  H    0.000000   0.000000   0.000000   0.000000   0.000000   0.000000
    14  H    0.000000   0.000000   0.000000   0.000000   0.000000   0.000000
    15  C    0.000000   0.000000   0.000000   0.000000   0.000000   0.000000
    16  H    0.000000   0.000000   0.000000   0.000000   0.000000   0.000000
    17  H    0.000000   0.000000   0.000000   0.000000   0.000000   0.000000
    18  H    0.000000   0.000000   0.000000   0.000000   0.000000   0.000000
    19  C    4.124298   0.000000   0.000000   0.000000   0.000000   0.000000
    20  C    0.000000   4.066334   0.000000   0.000000   0.000000   0.000000
    21  H    0.000000   0.000000   0.956965   0.000000   0.000000   0.000000
    22  H    0.000000   0.000000   0.000000   0.955441   0.000000   0.000000
    23  H    0.000000   0.000000   0.000000   0.000000   0.955971   0.000000
    24  C    0.000000   0.000000   0.000000   0.000000   0.000000   4.152480
    25  H    0.000000   0.000000   0.000000   0.000000   0.000000   0.000000
    26  C    0.000000   0.000000   0.000000   0.000000   0.000000   0.000000
    27  H    0.000000   0.000000   0.000000   0.000000   0.000000   0.000000
    28  H    0.000000   0.000000   0.000000   0.000000   0.000000   0.000000
              25         26         27         28
     1  C    0.000000   0.000000   0.000000   0.000000
     2  H    0.000000   0.000000   0.000000   0.000000
     3  H    0.000000   0.000000   0.000000   0.000000
     4  C    0.000000   0.000000   0.000000   0.000000
     5  C    0.000000   0.000000   0.000000   0.000000
     6  H    0.000000   0.000000   0.000000   0.000000
     7  H    0.000000   0.000000   0.000000   0.000000
     8  H    0.000000   0.000000   0.000000   0.000000
     9  C    0.000000   0.000000   0.000000   0.000000
    10  H    0.000000   0.000000   0.000000   0.000000
    11  C    0.000000   0.000000   0.000000   0.000000
    12  H    0.000000   0.000000   0.000000   0.000000
    13  H    0.000000   0.000000   0.000000   0.000000
    14  H    0.000000   0.000000   0.000000   0.000000
    15  C    0.000000   0.000000   0.000000   0.000000
    16  H    0.000000   0.000000   0.000000   0.000000
    17  H    0.000000   0.000000   0.000000   0.000000
    18  H    0.000000   0.000000   0.000000   0.000000
    19  C    0.000000   0.000000   0.000000   0.000000
    20  C    0.000000   0.000000   0.000000   0.000000
    21  H    0.000000   0.000000   0.000000   0.000000
    22  H    0.000000   0.000000   0.000000   0.000000
    23  H    0.000000   0.000000   0.000000   0.000000
    24  C    0.000000   0.000000   0.000000   0.000000
    25  H    0.901102   0.000000   0.000000   0.000000
    26  C    0.000000   4.049451   0.000000   0.000000
    27  H    0.000000   0.000000   0.948123   0.000000
    28  H    0.000000   0.000000   0.000000   0.950445
 Mulliken charges:
               1
     1  C   -0.045865
     2  H    0.047565
     3  H    0.056110
     4  C   -0.125178
     5  C   -0.067576
     6  H    0.039853
     7  H    0.045460
     8  H    0.042989
     9  C   -0.148406
    10  H    0.092400
    11  C   -0.069941
    12  H    0.042657
    13  H    0.042152
    14  H    0.047900
    15  C   -0.067768
    16  H    0.043389
    17  H    0.041425
    18  H    0.043443
    19  C   -0.124298
    20  C   -0.066334
    21  H    0.043035
    22  H    0.044559
    23  H    0.044029
    24  C   -0.152480
    25  H    0.098898
    26  C   -0.049451
    27  H    0.051877
    28  H    0.049555
 Sum of Mulliken charges =  -0.00000
 Mulliken charges with hydrogens summed into heavy atoms:
               1
     1  C    0.057811
     4  C   -0.125178
     5  C    0.060726
     9  C   -0.056006
    11  C    0.062769
    15  C    0.060488
    19  C   -0.124298
    20  C    0.065290
    24  C   -0.053582
    26  C    0.051981
 Charge=             -0.0000 electrons
 Dipole moment (field-independent basis, Debye):
    X=             -0.2284    Y=             -0.0353    Z=              0.1371  Tot=              0.2687
 N-N= 3.117242227954D+02 E-N=-5.058169269029D+02  KE=-7.900988649621D+01
 Leave Link  601 at Wed Jul 14 14:07:13 2021, MaxMem=   524288000 cpu:               0.3 elap:               0.4
 (Enter /opt/gaussian/g16_legacy/l701.exe)
 ... and contract with generalized density number  0.
 Compute integral first derivatives.
 Leave Link  701 at Wed Jul 14 14:07:13 2021, MaxMem=   524288000 cpu:               0.3 elap:               0.3
 (Enter /opt/gaussian/g16_legacy/l702.exe)
 L702 exits ... SP integral derivatives will be done elsewhere.
 Leave Link  702 at Wed Jul 14 14:07:13 2021, MaxMem=   524288000 cpu:               0.0 elap:               0.0
 (Enter /opt/gaussian/g16_legacy/l703.exe)
 Integral derivatives from FoFJK, PRISM(SPDF).
 Compute integral first derivatives, UseDBF=F ICtDFT=           0.
 Calling FoFJK, ICntrl=      2127 FMM=F ISym2X=0 I1Cent= 0 IOpClX= 0 NMat=1 NMatS=1 NMatT=0.
 FoFJK:  IHMeth= 9 ICntrl=    2127 DoSepK=F KAlg= 0 I1Cent=           0 FoldK=F
 IRaf=         0 NMat=       1 IRICut=       1 DoRegI=T DoRafI=F ISym2E= 0 IDoP0=3 IntGTp=3.
 FoFCou: FMM=F IPFlag=           0 FMFlag=      100000 FMFlg1=         800
         NFxFlg=           0 DoJE=F BraDBF=F KetDBF=F FulRan=T
         wScrn=  0.000000 ICntrl=      2127 IOpCl=  0 I1Cent=           0 NGrid=           0
         NMat0=    1 NMatS0=      1 NMatT0=    0 NMatD0=    1 NMtDS0=    0 NMtDT0=    0
 Symmetry not used in FoFCou.
 Leave Link  703 at Wed Jul 14 14:07:14 2021, MaxMem=   524288000 cpu:               0.1 elap:               0.2
 (Enter /opt/gaussian/g16_legacy/l716.exe)
 Dipole        =-8.98657221D-02-1.38976088D-02 5.39390723D-02
 ***** Axes restored to original set *****
 -------------------------------------------------------------------
 Center     Atomic                   Forces (Hartrees/Bohr)
 Number     Number              X              Y              Z
 -------------------------------------------------------------------
      1        6           0.001989856   -0.008868070   -0.016405482
      2        1          -0.004007700    0.006409381   -0.000659368
      3        1           0.000395372   -0.007809922    0.006014031
      4        6           0.003855619    0.000229853    0.004152976
      5        6           0.003517884   -0.009595894    0.013018719
      6        1          -0.000908638   -0.001247781   -0.001223438
      7        1           0.002032194    0.001743901   -0.000497456
      8        1          -0.000442483    0.002131828    0.000183796
      9        6           0.008965028    0.008282476    0.008949934
     10        1          -0.003353784   -0.002162719   -0.004074772
     11        6          -0.003737324    0.011973699   -0.012719855
     12        1          -0.001675201   -0.000913474    0.001424923
     13        1           0.000961985   -0.002165694   -0.000472834
     14        1           0.001939059    0.003769594    0.002703001
     15        6          -0.008793737    0.012565929    0.000760627
     16        1           0.001732942   -0.000079519    0.000839453
     17        1          -0.000330949   -0.000823194   -0.001625260
     18        1           0.000480197   -0.001110032    0.001553793
     19        6          -0.003723730    0.002812589    0.001784953
     20        6          -0.002692988   -0.007856168   -0.013851856
     21        1           0.000935843   -0.001642011    0.001464633
     22        1           0.001857081    0.000544122    0.000388737
     23        1          -0.003065401    0.003581181   -0.002000075
     24        6           0.000818476    0.006538083    0.010884842
     25        1          -0.001030230   -0.003190765   -0.004083604
     26        6           0.000982713   -0.019841724    0.003115570
     27        1          -0.000402132    0.002177545   -0.007610116
     28        1           0.003700047    0.004546787    0.007984127
 -------------------------------------------------------------------
 Cartesian Forces:  Max     0.019841724 RMS     0.005742409
 Leave Link  716 at Wed Jul 14 14:07:14 2021, MaxMem=   524288000 cpu:               0.1 elap:               0.5
 (Enter /opt/gaussian/g16_legacy/l103.exe)

 GradGradGradGradGradGradGradGradGradGradGradGradGradGradGradGradGradGrad
 Berny optimization.
 FormGI is forming the generalized inverse of G from B-inverse, IUseBI=4.
 Internal  Forces:  Max     0.019780747 RMS     0.005144901
 Search for a local minimum.
 Step number   1 out of a maximum of  138
 All quantities printed in internal units (Hartrees-Bohrs-Radians)
 RMS Force = .51449D-02 SwitMx=.10000D-02 MixMth= 1
 Mixed Optimization -- RFO/linear search
 Second derivative matrix not updated -- first step.
 ITU=  0
     Eigenvalues ---    0.00293   0.00533   0.00657   0.00680   0.00687
     Eigenvalues ---    0.00721   0.00816   0.01200   0.01289   0.01567
     Eigenvalues ---    0.01639   0.02774   0.02786   0.03744   0.03947
     Eigenvalues ---    0.05331   0.05348   0.06983   0.07002   0.07080
     Eigenvalues ---    0.07091   0.07245   0.07301   0.07351   0.07509
     Eigenvalues ---    0.09521   0.09665   0.12946   0.13079   0.15999
     Eigenvalues ---    0.16000   0.16000   0.16000   0.16000   0.16000
     Eigenvalues ---    0.16000   0.16000   0.16000   0.16000   0.16000
     Eigenvalues ---    0.16000   0.16000   0.16000   0.21888   0.21904
     Eigenvalues ---    0.22000   0.22000   0.24989   0.24994   0.24997
     Eigenvalues ---    0.24999   0.28896   0.30600   0.31531   0.31704
     Eigenvalues ---    0.31757   0.32025   0.32776   0.33872   0.34030
     Eigenvalues ---    0.34186   0.34189   0.34212   0.34230   0.34246
     Eigenvalues ---    0.34251   0.34254   0.34259   0.34263   0.34268
     Eigenvalues ---    0.34325   0.34327   0.34552   0.34636   0.34765
     Eigenvalues ---    0.34841   0.55408   0.55594
 RFO step:  Lambda=-1.08474649D-02 EMin= 2.92658083D-03
 Linear search not attempted -- first point.
 Iteration  1 RMS(Cart)=  0.09678788 RMS(Int)=  0.00138158
 Iteration  2 RMS(Cart)=  0.00304319 RMS(Int)=  0.00010926
 Iteration  3 RMS(Cart)=  0.00000436 RMS(Int)=  0.00010924
 Iteration  4 RMS(Cart)=  0.00000000 RMS(Int)=  0.00010924
 ITry= 1 IFail=0 DXMaxC= 3.03D-01 DCOld= 1.00D+10 DXMaxT= 3.00D-01 DXLimC= 3.00D+00 Rises=F
 Variable       Old X    -DE/DX   Delta X   Delta X   Delta X     New X
                                 (Linear)    (Quad)   (Total)
    R1        2.07547   0.00743   0.00000   0.02125   0.02125   2.09672
    R2        2.07017   0.00881   0.00000   0.02497   0.02497   2.09515
    R3        2.86782  -0.01978   0.00000  -0.06243  -0.06243   2.80539
    R4        2.90220  -0.00934   0.00000  -0.03114  -0.03114   2.87106
    R5        2.85010  -0.01407   0.00000  -0.04314  -0.04314   2.80696
    R6        2.54771  -0.01932   0.00000  -0.03420  -0.03420   2.51352
    R7        2.06973   0.00196   0.00000   0.00556   0.00556   2.07530
    R8        2.06782   0.00249   0.00000   0.00704   0.00704   2.07485
    R9        2.06904   0.00193   0.00000   0.00545   0.00545   2.07449
   R10        2.05934   0.00566   0.00000   0.01577   0.01577   2.07511
   R11        2.82746  -0.01519   0.00000  -0.04486  -0.04486   2.78260
   R12        2.06786   0.00234   0.00000   0.00660   0.00660   2.07445
   R13        2.06888   0.00235   0.00000   0.00666   0.00666   2.07554
   R14        2.06270   0.00460   0.00000   0.01288   0.01288   2.07559
   R15        2.06917   0.00169   0.00000   0.00477   0.00477   2.07395
   R16        2.06944   0.00185   0.00000   0.00524   0.00524   2.07468
   R17        2.06909   0.00177   0.00000   0.00501   0.00501   2.07411
   R18        2.84689  -0.01270   0.00000  -0.03873  -0.03873   2.80816
   R19        2.84098  -0.01518   0.00000  -0.04584  -0.04584   2.79514
   R20        2.54608  -0.01872   0.00000  -0.03303  -0.03303   2.51305
   R21        2.07013   0.00210   0.00000   0.00594   0.00594   2.07607
   R22        2.06880   0.00193   0.00000   0.00546   0.00546   2.07426
   R23        2.06408   0.00426   0.00000   0.01194   0.01194   2.07602
   R24        2.06058   0.00524   0.00000   0.01462   0.01462   2.07520
   R25        2.84591  -0.01725   0.00000  -0.05254  -0.05254   2.79337
   R26        2.07279   0.00775   0.00000   0.02207   0.02207   2.09486
   R27        2.06895   0.00954   0.00000   0.02699   0.02699   2.09594
    A1        1.82589   0.00083   0.00000   0.02818   0.02808   1.85397
    A2        1.88488   0.00159   0.00000   0.00860   0.00884   1.89372
    A3        1.89178   0.00181   0.00000   0.01509   0.01508   1.90686
    A4        1.94372  -0.00014   0.00000  -0.01809  -0.01845   1.92527
    A5        1.91012   0.00220   0.00000   0.00442   0.00366   1.91378
    A6        1.99850  -0.00566   0.00000  -0.03158  -0.03187   1.96664
    A7        2.00781   0.00238   0.00000   0.00920   0.00918   2.01699
    A8        2.17727  -0.00588   0.00000  -0.02247  -0.02248   2.15479
    A9        2.09777   0.00350   0.00000   0.01351   0.01350   2.11127
   A10        1.95924   0.00013   0.00000   0.00281   0.00281   1.96204
   A11        1.93026  -0.00059   0.00000  -0.00492  -0.00493   1.92533
   A12        1.92514   0.00055   0.00000   0.00262   0.00260   1.92774
   A13        1.87566   0.00050   0.00000   0.00414   0.00415   1.87981
   A14        1.87574   0.00020   0.00000   0.00395   0.00393   1.87967
   A15        1.89553  -0.00081   0.00000  -0.00876  -0.00877   1.88677
   A16        2.06749   0.00508   0.00000   0.02163   0.02158   2.08907
   A17        2.23265  -0.01083   0.00000  -0.04684  -0.04689   2.18576
   A18        1.98291   0.00575   0.00000   0.02549   0.02544   2.00835
   A19        1.91522   0.00089   0.00000   0.00449   0.00444   1.91967
   A20        1.90984   0.00131   0.00000   0.00975   0.00975   1.91960
   A21        1.98652  -0.00304   0.00000  -0.01922  -0.01921   1.96731
   A22        1.88656  -0.00045   0.00000   0.00033   0.00028   1.88684
   A23        1.88884   0.00033   0.00000  -0.00181  -0.00185   1.88698
   A24        1.87403   0.00104   0.00000   0.00716   0.00721   1.88124
   A25        1.87896   0.00010   0.00000   0.00218   0.00217   1.88113
   A26        1.89501  -0.00093   0.00000  -0.00851  -0.00851   1.88650
   A27        1.92349   0.00030   0.00000   0.00103   0.00103   1.92452
   A28        1.87889   0.00006   0.00000   0.00173   0.00173   1.88061
   A29        1.96084   0.00013   0.00000   0.00233   0.00232   1.96317
   A30        1.92463   0.00029   0.00000   0.00087   0.00086   1.92550
   A31        1.99492   0.00310   0.00000   0.01194   0.01191   2.00683
   A32        2.10370   0.00288   0.00000   0.01110   0.01106   2.11476
   A33        2.18449  -0.00598   0.00000  -0.02286  -0.02289   2.16159
   A34        1.92078   0.00078   0.00000   0.00672   0.00674   1.92752
   A35        1.92168   0.00066   0.00000   0.00204   0.00200   1.92368
   A36        1.97963  -0.00364   0.00000  -0.02166  -0.02168   1.95796
   A37        1.89059  -0.00059   0.00000  -0.00272  -0.00274   1.88786
   A38        1.86384   0.00211   0.00000   0.01559   0.01564   1.87949
   A39        1.88441   0.00080   0.00000   0.00085   0.00078   1.88519
   A40        2.06609   0.00601   0.00000   0.02618   0.02615   2.09224
   A41        2.23221  -0.01186   0.00000  -0.05133  -0.05137   2.18084
   A42        1.98485   0.00585   0.00000   0.02528   0.02524   2.01009
   A43        1.97605  -0.00475   0.00000  -0.02597  -0.02610   1.94995
   A44        1.92505   0.00057   0.00000   0.00147   0.00143   1.92647
   A45        1.89736   0.00188   0.00000   0.00705   0.00680   1.90417
   A46        1.88832   0.00186   0.00000   0.00766   0.00763   1.89595
   A47        1.93761   0.00023   0.00000  -0.00797  -0.00806   1.92955
   A48        1.83427   0.00061   0.00000   0.02126   0.02121   1.85549
    D1        0.77078  -0.00033   0.00000   0.00978   0.00978   0.78056
    D2       -2.34277  -0.00063   0.00000  -0.00053  -0.00043  -2.34320
    D3        2.76621   0.00151   0.00000   0.03887   0.03854   2.80474
    D4       -0.34734   0.00121   0.00000   0.02856   0.02832  -0.31902
    D5       -1.33828  -0.00012   0.00000   0.00483   0.00502  -1.33326
    D6        1.83135  -0.00042   0.00000  -0.00548  -0.00520   1.82616
    D7        3.01941   0.00064   0.00000  -0.00055  -0.00047   3.01895
    D8       -1.14507   0.00016   0.00000  -0.00765  -0.00754  -1.15261
    D9        0.85745   0.00225   0.00000   0.02256   0.02270   0.88015
   D10        1.03780  -0.00243   0.00000  -0.04407  -0.04414   0.99366
   D11       -3.12669  -0.00292   0.00000  -0.05116  -0.05121   3.10529
   D12       -1.12416  -0.00082   0.00000  -0.02095  -0.02098  -1.14513
   D13       -1.15852   0.00028   0.00000   0.00069   0.00060  -1.15792
   D14        0.96017  -0.00020   0.00000  -0.00640  -0.00647   0.95370
   D15        2.96270   0.00189   0.00000   0.02381   0.02377   2.98647
   D16       -3.09063  -0.00027   0.00000  -0.01036  -0.01043  -3.10106
   D17        1.09787  -0.00058   0.00000  -0.01412  -0.01418   1.08369
   D18       -0.99936   0.00045   0.00000  -0.00170  -0.00177  -1.00113
   D19        0.02430  -0.00015   0.00000  -0.00118  -0.00112   0.02318
   D20       -2.07039  -0.00046   0.00000  -0.00494  -0.00487  -2.07525
   D21        2.11558   0.00057   0.00000   0.00747   0.00754   2.12312
   D22        3.11776   0.00022   0.00000   0.00432   0.00428   3.12205
   D23       -0.04260   0.00075   0.00000   0.02417   0.02414  -0.01846
   D24        0.00557  -0.00006   0.00000  -0.00638  -0.00636  -0.00079
   D25        3.12839   0.00047   0.00000   0.01346   0.01350  -3.14130
   D26        2.02674  -0.00071   0.00000  -0.00917  -0.00917   2.01757
   D27       -2.18915   0.00006   0.00000  -0.00024  -0.00020  -2.18936
   D28       -0.09268   0.00031   0.00000   0.00313   0.00310  -0.08958
   D29       -1.13286  -0.00019   0.00000   0.00989   0.00988  -1.12298
   D30        0.93443   0.00057   0.00000   0.01881   0.01885   0.95328
   D31        3.03090   0.00082   0.00000   0.02219   0.02215   3.05305
   D32       -1.04141   0.00057   0.00000   0.01332   0.01343  -1.02797
   D33        2.11306   0.00028   0.00000  -0.00108  -0.00118   2.11188
   D34       -3.13670   0.00015   0.00000   0.00831   0.00842  -3.12828
   D35        0.01777  -0.00014   0.00000  -0.00609  -0.00620   0.01157
   D36        1.05050  -0.00021   0.00000   0.00396   0.00407   1.05457
   D37       -2.07822  -0.00051   0.00000  -0.01044  -0.01055  -2.08876
   D38       -0.92132  -0.00014   0.00000  -0.01404  -0.01400  -0.93532
   D39        1.16154   0.00003   0.00000  -0.01193  -0.01189   1.14966
   D40       -3.00796  -0.00097   0.00000  -0.02427  -0.02416  -3.03213
   D41        2.20671   0.00025   0.00000   0.00144   0.00136   2.20807
   D42       -1.99361   0.00042   0.00000   0.00356   0.00347  -1.99014
   D43        0.12006  -0.00057   0.00000  -0.00879  -0.00880   0.11126
   D44        0.00988  -0.00005   0.00000   0.00421   0.00417   0.01404
   D45       -3.12175  -0.00049   0.00000  -0.01271  -0.01278  -3.13453
   D46       -3.11736  -0.00047   0.00000  -0.01216  -0.01209  -3.12945
   D47        0.03419  -0.00091   0.00000  -0.02907  -0.02903   0.00516
   D48       -1.79636  -0.00025   0.00000  -0.01108  -0.01119  -1.80755
   D49        2.34759   0.00084   0.00000  -0.00121  -0.00123   2.34636
   D50        0.34340  -0.00108   0.00000  -0.02682  -0.02674   0.31667
   D51        1.35480  -0.00068   0.00000  -0.02737  -0.02745   1.32735
   D52       -0.78443   0.00041   0.00000  -0.01750  -0.01749  -0.80192
   D53       -2.78862  -0.00151   0.00000  -0.04311  -0.04300  -2.83162
         Item               Value     Threshold  Converged?
 Maximum Force            0.019781     0.000450     NO 
 RMS     Force            0.005145     0.000300     NO 
 Maximum Displacement     0.302766     0.001800     NO 
 RMS     Displacement     0.095898     0.001200     NO 
 Predicted change in Energy=-5.702704D-03
 Lowest energy point so far.  Saving SCF results.
 GradGradGradGradGradGradGradGradGradGradGradGradGradGradGradGradGradGrad

 Leave Link  103 at Wed Jul 14 14:07:14 2021, MaxMem=   524288000 cpu:               0.1 elap:               0.1
 (Enter /opt/gaussian/g16_legacy/l202.exe)
                          Input orientation:                          
 ---------------------------------------------------------------------
 Center     Atomic      Atomic             Coordinates (Angstroms)
 Number     Number       Type             X           Y           Z
 ---------------------------------------------------------------------
      1          6           0       -1.159839    1.085748    0.310704
      2          1           0       -1.731265    2.020522    0.486025
      3          1           0       -1.174691    0.529162    1.269461
      4          6           0       -1.846910    0.305295   -0.748880
      5          6           0       -2.292779    1.084843   -1.932035
      6          1           0       -2.829425    0.465847   -2.663402
      7          1           0       -1.428920    1.531020   -2.442130
      8          1           0       -2.964676    1.896979   -1.625292
      9          6           0       -2.080171   -1.001348   -0.662680
     10          1           0       -2.610538   -1.514075   -1.476097
     11          6           0       -1.681860   -1.862964    0.463014
     12          1           0       -2.573450   -2.261716    0.964137
     13          1           0       -1.089022   -2.711178    0.095037
     14          1           0       -1.078537   -1.331429    1.211245
     15          6           0        2.827093   -1.370473    0.612596
     16          1           0        3.894896   -1.118040    0.636039
     17          1           0        2.624019   -1.880797   -0.338013
     18          1           0        2.627298   -2.082235    1.423852
     19          6           0        2.004556   -0.145187    0.786779
     20          6           0        2.246953    0.596548    2.043315
     21          1           0        2.143114   -0.071477    2.909283
     22          1           0        3.263861    1.009704    2.049815
     23          1           0        1.541553    1.428103    2.176783
     24          6           0        1.125799    0.231016   -0.137754
     25          1           0        0.990233   -0.376037   -1.042760
     26          6           0        0.272745    1.435379   -0.054989
     27          1           0        0.304960    1.959920   -1.031055
     28          1           0        0.675306    2.146970    0.694504
 ---------------------------------------------------------------------
                    Distance matrix (angstroms):
                    1          2          3          4          5
     1  C    0.000000
     2  H    1.109535   0.000000
     3  H    1.108703   1.774176   0.000000
     4  C    1.484551   2.116688   2.139087   0.000000
     5  C    2.512654   2.652887   3.436346   1.485379   0.000000
     6  H    3.466569   3.679927   4.267266   2.157894   1.098200
     7  H    2.801565   2.984145   3.852825   2.131717   1.097964
     8  H    2.768323   2.448311   3.668047   2.133298   1.097771
     9  C    2.480012   3.251609   2.625934   1.330097   2.451256
    10  H    3.472213   4.137200   3.711410   2.102874   2.657673
    11  C    2.998434   3.883868   2.574849   2.489432   3.846952
    12  H    3.691989   4.390379   3.136678   3.170462   4.434641
    13  H    3.803705   4.791068   3.447668   3.222684   4.468537
    14  H    2.580761   3.491071   1.863984   2.666712   4.146440
    15  C    4.692525   5.682737   4.478210   5.148603   6.222284
    16  H    5.523846   6.444127   5.367980   6.075542   7.052306
    17  H    4.851681   5.904899   4.777246   4.993698   5.959097
    18  H    5.061385   6.058812   4.615014   5.517209   6.745333
    19  C    3.428592   4.328638   3.285626   4.170727   5.231826
    20  C    3.853244   4.503229   3.508709   4.963959   6.054007
    21  H    4.359046   5.025878   3.749348   5.426269   6.667277
    22  H    4.753884   5.330899   4.532176   5.869316   6.836449
    23  H    3.301057   3.731080   3.001551   4.615396   5.630481
    24  C    2.481093   3.428447   2.713189   3.035784   3.954129
    25  H    2.931125   3.935382   3.294335   2.932568   3.701777
    26  C    1.519300   2.156652   2.161126   2.500302   3.198139
    27  H    2.170283   2.539964   3.086876   2.729093   2.885442
    28  H    2.154357   2.418892   2.523958   3.440450   4.103213
                    6          7          8          9         10
     6  H    0.000000
     7  H    1.773407   0.000000
     8  H    1.773162   1.777554   0.000000
     9  C    2.591704   3.162825   3.179508   0.000000
    10  H    2.318986   3.406178   3.432632   1.098100   0.000000
    11  C    4.063833   4.474703   4.488185   1.472488   2.178145
    12  H    4.545784   5.224696   4.914564   2.116219   2.552466
    13  H    4.553183   4.954694   5.264287   2.116608   2.493296
    14  H    4.616135   4.654410   4.693196   2.150307   3.098741
    15  C    6.789730   5.988628   7.016337   5.083682   5.826757
    16  H    7.655815   6.695944   7.826729   6.115694   6.851178
    17  H    6.376067   5.700362   6.867474   4.796691   5.369386
    18  H    7.278337   6.667408   7.510100   5.261388   6.013937
    19  C    5.970300   5.002427   5.889125   4.418024   5.319168
    20  C    6.923863   5.874053   6.504681   5.347867   6.358947
    21  H    7.487968   6.630614   7.108214   5.608896   6.626450
    22  H    7.722586   6.517019   7.286176   6.321444   7.301376
    23  H    6.592327   5.492601   5.914535   5.204005   6.264168
    24  C    4.698706   3.677873   4.660492   3.474552   4.335518
    25  H    4.233797   3.383401   4.598614   3.156399   3.801114
    26  C    4.167405   2.933130   3.627647   3.441387   4.362585
    27  H    3.836819   2.276275   3.323793   3.820165   4.557064
    28  H    5.136618   3.826962   4.323589   4.398467   5.376945
                   11         12         13         14         15
    11  C    0.000000
    12  H    1.097752   0.000000
    13  H    1.098331   1.777886   0.000000
    14  H    1.098353   1.777994   1.774750   0.000000
    15  C    4.538236   5.484867   4.171489   3.951436   0.000000
    16  H    5.628948   6.576865   5.260248   5.011130   1.097486
    17  H    4.379790   5.371628   3.829326   4.051040   1.097874
    18  H    4.420422   5.224111   3.996543   3.787099   1.097570
    19  C    4.079858   5.046711   4.078362   3.330586   1.486012
    20  C    4.897154   5.707064   5.085820   3.932978   2.500538
    21  H    4.880992   5.552181   5.033358   3.853549   2.725800
    22  H    5.935514   6.779019   6.050927   5.004051   2.814536
    23  H    4.915131   5.658491   5.327967   3.925831   3.454174
    24  C    3.553677   4.594814   3.690003   3.019955   2.454016
    25  H    3.408576   4.503694   3.327276   3.205171   2.665176
    26  C    3.868833   4.775767   4.367018   3.329345   3.852683
    27  H    4.560059   5.485275   5.003041   4.216035   4.489350
    28  H    4.657187   5.483031   5.203250   3.929662   4.124233
                   16         17         18         19         20
    16  H    0.000000
    17  H    1.773614   0.000000
    18  H    1.776830   1.773346   0.000000
    19  C    2.131326   2.158989   2.132094   0.000000
    20  C    2.763323   3.456898   2.775657   1.479125   0.000000
    21  H    3.054778   3.748311   2.546386   2.128299   1.098608
    22  H    2.631400   3.803436   3.218250   2.124826   1.097653
    23  H    3.794069   4.294735   3.750762   2.149820   1.098584
    24  C    3.175942   2.597022   3.169265   1.329851   2.479448
    25  H    3.435986   2.330285   3.416909   2.104603   3.471185
    26  C    4.485247   4.074999   4.483804   2.491170   3.000669
    27  H    5.014048   4.539764   5.268666   3.259543   3.883539
    28  H    4.585789   4.592002   4.714700   2.651302   2.587117
                   21         22         23         24         25
    21  H    0.000000
    22  H    1.778683   0.000000
    23  H    1.774027   1.776942   0.000000
    24  C    3.226587   3.156442   2.638740   0.000000
[...]
    27  H    4.667844   5.601678   5.082683   4.416531   4.386674
    28  H    4.925371   5.801896   5.421199   4.283958   4.126399
                   16         17         18         19         20
    16  H    0.000000
    17  H    1.772413   0.000000
    18  H    1.772099   1.772271   0.000000
    19  C    2.137853   2.163206   2.138482   0.000000
    20  C    2.771334   3.469283   2.800361   1.485963   0.000000
    21  H    3.013964   3.756059   2.560883   2.141196   1.097946
    22  H    2.689474   3.840939   3.297618   2.136075   1.098172
    23  H    3.816150   4.302765   3.753542   2.154640   1.102628
    24  C    3.197123   2.608374   3.178404   1.339795   2.490436
    25  H    3.467168   2.352567   3.429403   2.118256   3.486310
    26  C    4.505859   4.093936   4.498488   2.500534   3.000205
    27  H    4.827833   4.562208   5.186106   3.091319   3.534191
    28  H    4.701064   4.608275   4.607483   2.646708   2.556977
                   21         22         23         24         25
    21  H    0.000000
    22  H    1.773304   0.000000
    23  H    1.777922   1.777185   0.000000
    24  C    3.263825   3.147906   2.644438   0.000000
    25  H    4.168317   4.084149   3.737277   1.098757   0.000000
    26  C    3.856078   3.635055   2.562152   1.485828   2.193327
    27  H    4.534335   3.876374   3.109422   2.125647   2.655117
    28  H    3.335563   3.225659   1.776184   2.144706   3.093630
                   26         27         28
    26  C    0.000000
    27  H    1.115074   0.000000
    28  H    1.112902   1.780671   0.000000
 Stoichiometry    C10H18
 Framework group  C1[X(C10H18)]
 Deg. of freedom    78
 Full point group                 C1      NOp   1
 RotChk:  IX=0 Diff= 8.31D-16
 Largest Abelian subgroup         C1      NOp   1
 Largest concise Abelian subgroup C1      NOp   1
                         Standard orientation:                         
 ---------------------------------------------------------------------
 Center     Atomic      Atomic             Coordinates (Angstroms)
 Number     Number       Type             X           Y           Z
 ---------------------------------------------------------------------
      1          6           0        1.004880   -0.669466    0.941410
      2          1           0        1.385383   -1.465942    1.611243
      3          1           0        0.824567    0.217245    1.589083
      4          6           0        2.060788   -0.366686   -0.074578
      5          6           0        2.469340   -1.515944   -0.927589
      6          1           0        3.033266   -1.207591   -1.816812
      7          1           0        1.575304   -2.068292   -1.265701
      8          1           0        3.096694   -2.214678   -0.358174
      9          6           0        2.622618    0.840473   -0.222441
     10          1           0        3.398607    0.988590   -0.984764
     11          6           0        2.281102    2.036484    0.577077
     12          1           0        3.172380    2.433211    1.080632
     13          1           0        1.881949    2.829370   -0.069365
     14          1           0        1.524744    1.823819    1.350764
     15          6           0       -3.088722    1.336581   -0.764643
     16          1           0       -3.859420    1.002080   -1.472328
     17          1           0       -2.405464    2.002356   -1.308285
     18          1           0       -3.588122    1.934633    0.009926
     19          6           0       -2.392245    0.169840   -0.158862
     20          6           0       -3.270119   -0.793809    0.554443
     21          1           0       -3.936034   -0.275106    1.256575
     22          1           0       -3.899284   -1.343978   -0.157910
     23          1           0       -2.686688   -1.533462    1.127428
     24          6           0       -1.065104    0.021583   -0.267330
     25          1           0       -0.465601    0.771685   -0.801381
     26          6           0       -0.299270   -1.121395    0.293728
     27          1           0       -0.072653   -1.839954   -0.528287
     28          1           0       -0.919235   -1.679954    1.030074
 ---------------------------------------------------------------------
 Rotational constants (GHZ):           2.0210702           0.6366713           0.5488782
 Leave Link  202 at Wed Jul 14 14:07:29 2021, MaxMem=   524288000 cpu:               0.0 elap:               0.0
 (Enter /opt/gaussian/g16_legacy/l601.exe)
 Copying SCF densities to generalized density rwf, IOpCl= 0 IROHF=0.

 **********************************************************************

            Population analysis using the SCF density.

 **********************************************************************

 Orbital symmetries:
       Occupied  (A) (A) (A) (A) (A) (A) (A) (A) (A) (A) (A) (A)
                 (A) (A) (A) (A) (A) (A) (A) (A) (A) (A) (A) (A)
                 (A) (A) (A) (A) (A)
       Virtual   (A) (A) (A) (A) (A) (A) (A) (A) (A) (A) (A) (A)
                 (A) (A) (A) (A) (A) (A) (A) (A) (A) (A) (A) (A)
                 (A) (A) (A) (A) (A)
 The electronic state is 1-A.
 Alpha  occ. eigenvalues --   -1.47903  -1.35721  -1.17831  -1.10227  -1.01280
 Alpha  occ. eigenvalues --   -0.94897  -0.86876  -0.79492  -0.67049  -0.64123
 Alpha  occ. eigenvalues --   -0.61247  -0.59909  -0.57803  -0.56517  -0.55214
 Alpha  occ. eigenvalues --   -0.53680  -0.51063  -0.50316  -0.48455  -0.48256
 Alpha  occ. eigenvalues --   -0.47918  -0.47611  -0.47258  -0.46945  -0.45744
 Alpha  occ. eigenvalues --   -0.42773  -0.42397  -0.35103  -0.34030
 Alpha virt. eigenvalues --    0.03678   0.04295   0.12391   0.12449   0.13237
 Alpha virt. eigenvalues --    0.13579   0.13946   0.14237   0.14753   0.14953
 Alpha virt. eigenvalues --    0.15499   0.15819   0.15908   0.16093   0.16348
 Alpha virt. eigenvalues --    0.16442   0.16450   0.16640   0.16960   0.17077
 Alpha virt. eigenvalues --    0.17188   0.17251   0.17803   0.17922   0.18001
 Alpha virt. eigenvalues --    0.21126   0.21398   0.22490   0.22584
          Condensed to atoms (all electrons):
               1          2          3          4          5          6
     1  C    4.060987   0.000000   0.000000   0.000000   0.000000   0.000000
     2  H    0.000000   0.946341   0.000000   0.000000   0.000000   0.000000
     3  H    0.000000   0.000000   0.934235   0.000000   0.000000   0.000000
     4  C    0.000000   0.000000   0.000000   4.126688   0.000000   0.000000
     5  C    0.000000   0.000000   0.000000   0.000000   4.076922   0.000000
     6  H    0.000000   0.000000   0.000000   0.000000   0.000000   0.956398
     7  H    0.000000   0.000000   0.000000   0.000000   0.000000   0.000000
     8  H    0.000000   0.000000   0.000000   0.000000   0.000000   0.000000
     9  C    0.000000   0.000000   0.000000   0.000000   0.000000   0.000000
    10  H    0.000000   0.000000   0.000000   0.000000   0.000000   0.000000
    11  C    0.000000   0.000000   0.000000   0.000000   0.000000   0.000000
    12  H    0.000000   0.000000   0.000000   0.000000   0.000000   0.000000
    13  H    0.000000   0.000000   0.000000   0.000000   0.000000   0.000000
    14  H    0.000000   0.000000   0.000000   0.000000   0.000000   0.000000
    15  C    0.000000   0.000000   0.000000   0.000000   0.000000   0.000000
    16  H    0.000000   0.000000   0.000000   0.000000   0.000000   0.000000
    17  H    0.000000   0.000000   0.000000   0.000000   0.000000   0.000000
    18  H    0.000000   0.000000   0.000000   0.000000   0.000000   0.000000
    19  C    0.000000   0.000000   0.000000   0.000000   0.000000   0.000000
    20  C    0.000000   0.000000   0.000000   0.000000   0.000000   0.000000
    21  H    0.000000   0.000000   0.000000   0.000000   0.000000   0.000000
    22  H    0.000000   0.000000   0.000000   0.000000   0.000000   0.000000
    23  H    0.000000   0.000000   0.000000   0.000000   0.000000   0.000000
    24  C    0.000000   0.000000   0.000000   0.000000   0.000000   0.000000
    25  H    0.000000   0.000000   0.000000   0.000000   0.000000   0.000000
    26  C    0.000000   0.000000   0.000000   0.000000   0.000000   0.000000
    27  H    0.000000   0.000000   0.000000   0.000000   0.000000   0.000000
    28  H    0.000000   0.000000   0.000000   0.000000   0.000000   0.000000
               7          8          9         10         11         12
     1  C    0.000000   0.000000   0.000000   0.000000   0.000000   0.000000
     2  H    0.000000   0.000000   0.000000   0.000000   0.000000   0.000000
     3  H    0.000000   0.000000   0.000000   0.000000   0.000000   0.000000
     4  C    0.000000   0.000000   0.000000   0.000000   0.000000   0.000000
     5  C    0.000000   0.000000   0.000000   0.000000   0.000000   0.000000
     6  H    0.000000   0.000000   0.000000   0.000000   0.000000   0.000000
     7  H    0.949563   0.000000   0.000000   0.000000   0.000000   0.000000
     8  H    0.000000   0.954898   0.000000   0.000000   0.000000   0.000000
     9  C    0.000000   0.000000   4.151759   0.000000   0.000000   0.000000
    10  H    0.000000   0.000000   0.000000   0.902136   0.000000   0.000000
    11  C    0.000000   0.000000   0.000000   0.000000   4.079834   0.000000
    12  H    0.000000   0.000000   0.000000   0.000000   0.000000   0.955977
    13  H    0.000000   0.000000   0.000000   0.000000   0.000000   0.000000
    14  H    0.000000   0.000000   0.000000   0.000000   0.000000   0.000000
    15  C    0.000000   0.000000   0.000000   0.000000   0.000000   0.000000
    16  H    0.000000   0.000000   0.000000   0.000000   0.000000   0.000000
    17  H    0.000000   0.000000   0.000000   0.000000   0.000000   0.000000
    18  H    0.000000   0.000000   0.000000   0.000000   0.000000   0.000000
    19  C    0.000000   0.000000   0.000000   0.000000   0.000000   0.000000
    20  C    0.000000   0.000000   0.000000   0.000000   0.000000   0.000000
    21  H    0.000000   0.000000   0.000000   0.000000   0.000000   0.000000
    22  H    0.000000   0.000000   0.000000   0.000000   0.000000   0.000000
    23  H    0.000000   0.000000   0.000000   0.000000   0.000000   0.000000
    24  C    0.000000   0.000000   0.000000   0.000000   0.000000   0.000000
    25  H    0.000000   0.000000   0.000000   0.000000   0.000000   0.000000
    26  C    0.000000   0.000000   0.000000   0.000000   0.000000   0.000000
    27  H    0.000000   0.000000   0.000000   0.000000   0.000000   0.000000
    28  H    0.000000   0.000000   0.000000   0.000000   0.000000   0.000000
              13         14         15         16         17         18
     1  C    0.000000   0.000000   0.000000   0.000000   0.000000   0.000000
     2  H    0.000000   0.000000   0.000000   0.000000   0.000000   0.000000
     3  H    0.000000   0.000000   0.000000   0.000000   0.000000   0.000000
     4  C    0.000000   0.000000   0.000000   0.000000   0.000000   0.000000
     5  C    0.000000   0.000000   0.000000   0.000000   0.000000   0.000000
     6  H    0.000000   0.000000   0.000000   0.000000   0.000000   0.000000
     7  H    0.000000   0.000000   0.000000   0.000000   0.000000   0.000000
     8  H    0.000000   0.000000   0.000000   0.000000   0.000000   0.000000
     9  C    0.000000   0.000000   0.000000   0.000000   0.000000   0.000000
    10  H    0.000000   0.000000   0.000000   0.000000   0.000000   0.000000
    11  C    0.000000   0.000000   0.000000   0.000000   0.000000   0.000000
    12  H    0.000000   0.000000   0.000000   0.000000   0.000000   0.000000
    13  H    0.955366   0.000000   0.000000   0.000000   0.000000   0.000000
    14  H    0.000000   0.950279   0.000000   0.000000   0.000000   0.000000
    15  C    0.000000   0.000000   4.067336   0.000000   0.000000   0.000000
    16  H    0.000000   0.000000   0.000000   0.957148   0.000000   0.000000
    17  H    0.000000   0.000000   0.000000   0.000000   0.958193   0.000000
    18  H    0.000000   0.000000   0.000000   0.000000   0.000000   0.956792
    19  C    0.000000   0.000000   0.000000   0.000000   0.000000   0.000000
    20  C    0.000000   0.000000   0.000000   0.000000   0.000000   0.000000
    21  H    0.000000   0.000000   0.000000   0.000000   0.000000   0.000000
    22  H    0.000000   0.000000   0.000000   0.000000   0.000000   0.000000
    23  H    0.000000   0.000000   0.000000   0.000000   0.000000   0.000000
    24  C    0.000000   0.000000   0.000000   0.000000   0.000000   0.000000
    25  H    0.000000   0.000000   0.000000   0.000000   0.000000   0.000000
    26  C    0.000000   0.000000   0.000000   0.000000   0.000000   0.000000
    27  H    0.000000   0.000000   0.000000   0.000000   0.000000   0.000000
    28  H    0.000000   0.000000   0.000000   0.000000   0.000000   0.000000
              19         20         21         22         23         24
     1  C    0.000000   0.000000   0.000000   0.000000   0.000000   0.000000
     2  H    0.000000   0.000000   0.000000   0.000000   0.000000   0.000000
     3  H    0.000000   0.000000   0.000000   0.000000   0.000000   0.000000
     4  C    0.000000   0.000000   0.000000   0.000000   0.000000   0.000000
     5  C    0.000000   0.000000   0.000000   0.000000   0.000000   0.000000
     6  H    0.000000   0.000000   0.000000   0.000000   0.000000   0.000000
     7  H    0.000000   0.000000   0.000000   0.000000   0.000000   0.000000
     8  H    0.000000   0.000000   0.000000   0.000000   0.000000   0.000000
     9  C    0.000000   0.000000   0.000000   0.000000   0.000000   0.000000
    10  H    0.000000   0.000000   0.000000   0.000000   0.000000   0.000000
    11  C    0.000000   0.000000   0.000000   0.000000   0.000000   0.000000
    12  H    0.000000   0.000000   0.000000   0.000000   0.000000   0.000000
    13  H    0.000000   0.000000   0.000000   0.000000   0.000000   0.000000
    14  H    0.000000   0.000000   0.000000   0.000000   0.000000   0.000000
    15  C    0.000000   0.000000   0.000000   0.000000   0.000000   0.000000
    16  H    0.000000   0.000000   0.000000   0.000000   0.000000   0.000000
    17  H    0.000000   0.000000   0.000000   0.000000   0.000000   0.000000
    18  H    0.000000   0.000000   0.000000   0.000000   0.000000   0.000000
    19  C    4.128289   0.000000   0.000000   0.000000   0.000000   0.000000
    20  C    0.000000   4.074993   0.000000   0.000000   0.000000   0.000000
    21  H    0.000000   0.000000   0.955291   0.000000   0.000000   0.000000
    22  H    0.000000   0.000000   0.000000   0.954077   0.000000   0.000000
    23  H    0.000000   0.000000   0.000000   0.000000   0.951591   0.000000
    24  C    0.000000   0.000000   0.000000   0.000000   0.000000   4.155982
    25  H    0.000000   0.000000   0.000000   0.000000   0.000000   0.000000
    26  C    0.000000   0.000000   0.000000   0.000000   0.000000   0.000000
    27  H    0.000000   0.000000   0.000000   0.000000   0.000000   0.000000
    28  H    0.000000   0.000000   0.000000   0.000000   0.000000   0.000000
              25         26         27         28
     1  C    0.000000   0.000000   0.000000   0.000000
     2  H    0.000000   0.000000   0.000000   0.000000
     3  H    0.000000   0.000000   0.000000   0.000000
     4  C    0.000000   0.000000   0.000000   0.000000
     5  C    0.000000   0.000000   0.000000   0.000000
     6  H    0.000000   0.000000   0.000000   0.000000
     7  H    0.000000   0.000000   0.000000   0.000000
     8  H    0.000000   0.000000   0.000000   0.000000
     9  C    0.000000   0.000000   0.000000   0.000000
    10  H    0.000000   0.000000   0.000000   0.000000
    11  C    0.000000   0.000000   0.000000   0.000000
    12  H    0.000000   0.000000   0.000000   0.000000
    13  H    0.000000   0.000000   0.000000   0.000000
    14  H    0.000000   0.000000   0.000000   0.000000
    15  C    0.000000   0.000000   0.000000   0.000000
    16  H    0.000000   0.000000   0.000000   0.000000
    17  H    0.000000   0.000000   0.000000   0.000000
    18  H    0.000000   0.000000   0.000000   0.000000
    19  C    0.000000   0.000000   0.000000   0.000000
    20  C    0.000000   0.000000   0.000000   0.000000
    21  H    0.000000   0.000000   0.000000   0.000000
    22  H    0.000000   0.000000   0.000000   0.000000
    23  H    0.000000   0.000000   0.000000   0.000000
    24  C    0.000000   0.000000   0.000000   0.000000
    25  H    0.891597   0.000000   0.000000   0.000000
    26  C    0.000000   4.072178   0.000000   0.000000
    27  H    0.000000   0.000000   0.935119   0.000000
    28  H    0.000000   0.000000   0.000000   0.940033
 Mulliken charges:
               1
     1  C   -0.060987
     2  H    0.053659
     3  H    0.065765
     4  C   -0.126688
     5  C   -0.076922
     6  H    0.043602
     7  H    0.050437
     8  H    0.045102
     9  C   -0.151759
    10  H    0.097864
    11  C   -0.079834
    12  H    0.044023
    13  H    0.044634
    14  H    0.049721
    15  C   -0.067336
    16  H    0.042852
    17  H    0.041807
    18  H    0.043208
    19  C   -0.128289
    20  C   -0.074993
    21  H    0.044709
    22  H    0.045923
    23  H    0.048409
    24  C   -0.155982
    25  H    0.108403
    26  C   -0.072178
    27  H    0.064881
    28  H    0.059967
 Sum of Mulliken charges =   0.00000
 Mulliken charges with hydrogens summed into heavy atoms:
               1
     1  C    0.058438
     4  C   -0.126688
     5  C    0.062219
     9  C   -0.053895
    11  C    0.058544
    15  C    0.060532
    19  C   -0.128289
    20  C    0.064048
    24  C   -0.047578
    26  C    0.052670
 Charge=              0.0000 electrons
 Dipole moment (field-independent basis, Debye):
    X=             -0.2247    Y=             -0.1560    Z=              0.1064  Tot=              0.2935
 N-N= 3.104078150593D+02 E-N=-5.029943498937D+02  KE=-7.912379239730D+01
 Leave Link  601 at Wed Jul 14 14:07:29 2021, MaxMem=   524288000 cpu:               0.2 elap:               0.3
 (Enter /opt/gaussian/g16_legacy/l9999.exe)
 1\1\GINC-TRUENO93\FOpt\RPM3\ZDO\C10H18\JRAMOS\14-Jul-2021\0\\#p opt pm
 3\\Conformer number 192. Energy MM = 23.486 kcal/mol\\0,1\C,-1.3271424
 181,0.7630916111,0.4864846072\H,-1.9224740225,1.636200465,0.8197927518
 \H,-1.4062405811,0.0080091731,1.3000223082\C,-1.9341597736,0.235361845
 3,-0.7752122776\C,-1.9890385254,1.2016339441,-1.9059826544\H,-2.186024
 5838,0.7179487037,-2.8708953518\H,-1.029142372,1.7411439496,-1.9849615
 52\H,-2.7772444841,1.9475644191,-1.737591067\C,-2.4105700668,-1.010107
 1785,-0.9040149929\H,-2.8502957542,-1.3272957923,-1.8586176397\C,-2.39
 85165414,-2.0351613565,0.1615471066\H,-3.4159080809,-2.3938767185,0.36
 54446995\H,-1.794492966,-2.8997765725,-0.1441894219\H,-1.9807376832,-1
 .6536819715,1.1080306685\C,3.0916757206,-1.2574136818,0.7763548727\H,4
 .0721558223,-1.0007917602,0.3526950933\H,2.6531534902,-2.0425777126,0.
 146386001\H,3.2642146738,-1.6887923496,1.7719277108\C,2.2293881866,-0.
 0487294525,0.8705775554\C,2.7881626611,1.0690894128,1.6745298415\H,3.1
 428071697,0.7134647092,2.6508718483\H,3.6405558261,1.5290498406,1.1569
 930323\H,2.0397497678,1.8584389831,1.8550680055\C,1.0378909127,0.00232
 47077,0.2600224984\H,0.672971814,-0.8594117554,-0.3157484992\C,0.12755
 28206,1.1761803279,0.2921705228\H,0.2268948939,1.7341338954,-0.6681463
 31\H,0.4351140938,1.8840803142,1.0939406638\\Version=EM64L-G16RevA.03\
 State=1-A\HF=-0.0276486\RMSD=2.897e-09\RMSF=2.556e-06\Dipole=0.0670891
 ,0.0724802,0.0598463\PG=C01 [X(C10H18)]\\@


 CHEMISTRY BEGAN BY SAYING IT WOULD CHANGE THE BASER
 METALS INTO GOLD.  BY NOT DOING THAT IT HAS DONE MUCH
 GREATER THINGS.  --  RALPH WALDO EMERSON
 Job cpu time:       0 days  0 hours  0 minutes 15.7 seconds.
 Elapsed time:       0 days  0 hours  0 minutes 13.8 seconds.
 File lengths (MBytes):  RWF=      6 Int=      0 D2E=      0 Chk=      2 Scr=      1
 Normal termination of Gaussian 16 at Wed Jul 14 14:07:30 2021.
