 Entering Gaussian System, Link 0=/opt/gaussian/g16_legacy/g16
 Input=Model01_EVOH.gjf
 Output=Model01_EVOH.log
 Initial command:
 /opt/gaussian/g16_legacy/l1.exe "/scratch-global/jramos/Gau-10152.inp" -scrdir="/scratch-global/jramos/"
 Entering Link 1 = /opt/gaussian/g16_legacy/l1.exe PID=     10153.
  
 Copyright (c) 1988,1990,1992,1993,1995,1998,2003,2009,2016,
            Gaussian, Inc.  All Rights Reserved.
  
 This is part of the Gaussian(R) 16 program.  It is based on
 the Gaussian(R) 09 system (copyright 2009, Gaussian, Inc.),
 the Gaussian(R) 03 system (copyright 2003, Gaussian, Inc.),
 the Gaussian(R) 98 system (copyright 1998, Gaussian, Inc.),
 the Gaussian(R) 94 system (copyright 1995, Gaussian, Inc.),
 the Gaussian 92(TM) system (copyright 1992, Gaussian, Inc.),
 the Gaussian 90(TM) system (copyright 1990, Gaussian, Inc.),
 the Gaussian 88(TM) system (copyright 1988, Gaussian, Inc.),
 the Gaussian 86(TM) system (copyright 1986, Carnegie Mellon
 University), and the Gaussian 82(TM) system (copyright 1983,
 Carnegie Mellon University). Gaussian is a federally registered
 trademark of Gaussian, Inc.
  
 This software contains proprietary and confidential information,
 including trade secrets, belonging to Gaussian, Inc.
  
 This software is provided under written license and may be
 used, copied, transmitted, or stored only in accord with that
 written license.
  
 The following legend is applicable only to US Government
 contracts under FAR:
  
                    RESTRICTED RIGHTS LEGEND
  
 Use, reproduction and disclosure by the US Government is
 subject to restrictions as set forth in subparagraphs (a)
 and (c) of the Commercial Computer Software - Restricted
 Rights clause in FAR 52.227-19.
  
 Gaussian, Inc.
 340 Quinnipiac St., Bldg. 40, Wallingford CT 06492
  
  
 ---------------------------------------------------------------
 Warning -- This program may not be used in any manner that
 competes with the business of Gaussian, Inc. or will provide
 assistance to any competitor of Gaussian, Inc.  The licensee
 of this program is prohibited from giving any competitor of
 Gaussian, Inc. access to this program.  By using this program,
 the user acknowledges that Gaussian, Inc. is engaged in the
 business of creating and licensing software in the field of
 computational chemistry and represents and warrants to the
 licensee that it is not a competitor of Gaussian, Inc. and that
 it will not use this program in any manner prohibited above.
 ---------------------------------------------------------------
  

 Cite this work as:
 Gaussian 16, Revision A.03,
 M. J. Frisch, G. W. Trucks, H. B. Schlegel, G. E. Scuseria, 
 M. A. Robb, J. R. Cheeseman, G. Scalmani, V. Barone, 
 G. A. Petersson, H. Nakatsuji, X. Li, M. Caricato, A. V. Marenich, 
 J. Bloino, B. G. Janesko, R. Gomperts, B. Mennucci, H. P. Hratchian, 
 J. V. Ortiz, A. F. Izmaylov, J. L. Sonnenberg, D. Williams-Young, 
 F. Ding, F. Lipparini, F. Egidi, J. Goings, B. Peng, A. Petrone, 
 T. Henderson, D. Ranasinghe, V. G. Zakrzewski, J. Gao, N. Rega, 
 G. Zheng, W. Liang, M. Hada, M. Ehara, K. Toyota, R. Fukuda, 
 J. Hasegawa, M. Ishida, T. Nakajima, Y. Honda, O. Kitao, H. Nakai, 
 T. Vreven, K. Throssell, J. A. Montgomery, Jr., J. E. Peralta, 
 F. Ogliaro, M. J. Bearpark, J. J. Heyd, E. N. Brothers, K. N. Kudin, 
 V. N. Staroverov, T. A. Keith, R. Kobayashi, J. Normand, 
 K. Raghavachari, A. P. Rendell, J. C. Burant, S. S. Iyengar, 
 J. Tomasi, M. Cossi, J. M. Millam, M. Klene, C. Adamo, R. Cammi, 
 J. W. Ochterski, R. L. Martin, K. Morokuma, O. Farkas, 
 J. B. Foresman, and D. J. Fox, Gaussian, Inc., Wallingford CT, 2016.
 
 ******************************************
 Gaussian 16:  EM64L-G16RevA.03 25-Dec-2016
                 8-Feb-2022 
 ******************************************
 %chk=Model01_EVOH.chk
 %nprocshared=4
 Will use up to    4 processors via shared memory.
 %mem=4GB
 ------------------------------------------------
 #p opt 6-31g(d,p) pop=mk geom=connectivity m062x
 ------------------------------------------------
 1/18=20,19=15,26=3,38=1,57=2/1,3;
 2/9=110,12=2,17=6,18=5,40=1/2;
 3/5=1,6=6,7=101,11=2,25=1,30=1,71=1,74=-55/1,2,3;
 4//1;
 5/5=2,38=5/2;
 6/7=2,8=2,9=2,10=2,15=8,20=1,28=1/1,2;
 7//1,2,3,16;
 1/18=20,19=15,26=3/3(2);
 2/9=110/2;
 99//99;
 2/9=110/2;
 3/5=1,6=6,7=101,11=2,25=1,30=1,71=1,74=-55/1,2,3;
 4/5=5,16=3,69=1/1;
 5/5=2,38=5/2;
 7//1,2,3,16;
 1/18=20,19=15,26=3/3(-5);
 2/9=110/2;
 6/7=2,8=2,9=2,10=2,15=8,19=2,20=1,28=1/1,2;
 99/9=1/99;
 Leave Link    1 at Tue Feb  8 21:15:16 2022, MaxMem=   536870912 cpu:               0.3 elap:               0.1
 (Enter /opt/gaussian/g16_legacy/l101.exe)
 ------------------
 EVOH model CC(O)CC
 ------------------
 Symbolic Z-matrix:
 Charge =  0 Multiplicity = 1
 C                    -3.255     0.976    -0.031 
 H                    -3.64      1.974    -0.019 
 H                    -3.58      0.479    -0.921 
 H                    -3.613     0.444     0.825 
 C                    -1.716     1.02     -0.002 
 H                    -1.39      1.517     0.888 
 H                    -1.357     1.552    -0.858 
 C                    -1.16     -0.416    -0.02 
 O                    -1.639    -1.126     1.125 
 H                    -2.598    -1.154     1.107 
 H                    -1.486    -0.913    -0.91 
 C                     0.379    -0.372     0.01 
 H                     0.737     0.16     -0.847 
 H                     0.704     0.125     0.9 
 C                     0.934    -1.808    -0.008 
 H                     0.609    -2.305    -0.898 
 H                     2.004    -1.777     0.012 
 H                     0.576    -2.34      0.848 
 
 ITRead=  0  0  0  0  0  0  0  0  0  0  0  0  0  0  0  0  0  0
 MicOpt= -1 -1 -1 -1 -1 -1 -1 -1 -1 -1 -1 -1 -1 -1 -1 -1 -1 -1
 NAtoms=     18 NQM=       18 NQMF=       0 NMMI=      0 NMMIF=      0
                NMic=       0 NMicF=      0.
                    Isotopes and Nuclear Properties:
 (Nuclear quadrupole moments (NQMom) in fm**2, nuclear magnetic moments (NMagM)
  in nuclear magnetons)

  Atom         1           2           3           4           5           6           7           8           9          10
 IAtWgt=          12           1           1           1          12           1           1          12          16           1
 AtmWgt=  12.0000000   1.0078250   1.0078250   1.0078250  12.0000000   1.0078250   1.0078250  12.0000000  15.9949146   1.0078250
 NucSpn=           0           1           1           1           0           1           1           0           0           1
 AtZEff=  -0.0000000  -0.0000000  -0.0000000  -0.0000000  -0.0000000  -0.0000000  -0.0000000  -0.0000000  -0.0000000  -0.0000000
 NQMom=    0.0000000   0.0000000   0.0000000   0.0000000   0.0000000   0.0000000   0.0000000   0.0000000   0.0000000   0.0000000
 NMagM=    0.0000000   2.7928460   2.7928460   2.7928460   0.0000000   2.7928460   2.7928460   0.0000000   0.0000000   2.7928460
 AtZNuc=   6.0000000   1.0000000   1.0000000   1.0000000   6.0000000   1.0000000   1.0000000   6.0000000   8.0000000   1.0000000

  Atom        11          12          13          14          15          16          17          18
 IAtWgt=           1          12           1           1          12           1           1           1
 AtmWgt=   1.0078250  12.0000000   1.0078250   1.0078250  12.0000000   1.0078250   1.0078250   1.0078250
 NucSpn=           1           0           1           1           0           1           1           1
 AtZEff=  -0.0000000  -0.0000000  -0.0000000  -0.0000000  -0.0000000  -0.0000000  -0.0000000  -0.0000000
 NQMom=    0.0000000   0.0000000   0.0000000   0.0000000   0.0000000   0.0000000   0.0000000   0.0000000
 NMagM=    2.7928460   0.0000000   2.7928460   2.7928460   0.0000000   2.7928460   2.7928460   2.7928460
 AtZNuc=   1.0000000   6.0000000   1.0000000   1.0000000   6.0000000   1.0000000   1.0000000   1.0000000
 Leave Link  101 at Tue Feb  8 21:15:16 2022, MaxMem=   536870912 cpu:               0.8 elap:               0.2
 (Enter /opt/gaussian/g16_legacy/l103.exe)

 GradGradGradGradGradGradGradGradGradGradGradGradGradGradGradGradGradGrad
 Berny optimization.
 Initialization pass.
                           ----------------------------
                           !    Initial Parameters    !
                           ! (Angstroms and Degrees)  !
 --------------------------                            --------------------------
 ! Name  Definition              Value          Derivative Info.                !
 --------------------------------------------------------------------------------
 ! R1    R(1,2)                  1.0698         estimate D2E/DX2                !
 ! R2    R(1,3)                  1.0699         estimate D2E/DX2                !
 ! R3    R(1,4)                  1.0695         estimate D2E/DX2                !
 ! R4    R(1,5)                  1.5399         estimate D2E/DX2                !
 ! R5    R(5,6)                  1.0702         estimate D2E/DX2                !
 ! R6    R(5,7)                  1.0699         estimate D2E/DX2                !
 ! R7    R(5,8)                  1.54           estimate D2E/DX2                !
 ! R8    R(8,9)                  1.4299         estimate D2E/DX2                !
 ! R9    R(8,11)                 1.0702         estimate D2E/DX2                !
 ! R10   R(8,12)                 1.5399         estimate D2E/DX2                !
 ! R11   R(9,10)                 0.9596         estimate D2E/DX2                !
 ! R12   R(12,13)                1.0703         estimate D2E/DX2                !
 ! R13   R(12,14)                1.0699         estimate D2E/DX2                !
 ! R14   R(12,15)                1.5396         estimate D2E/DX2                !
 ! R15   R(15,16)                1.0699         estimate D2E/DX2                !
 ! R16   R(15,17)                1.0706         estimate D2E/DX2                !
 ! R17   R(15,18)                1.0695         estimate D2E/DX2                !
 ! A1    A(2,1,3)              109.4735         estimate D2E/DX2                !
 ! A2    A(2,1,4)              109.5483         estimate D2E/DX2                !
 ! A3    A(2,1,5)              109.4399         estimate D2E/DX2                !
 ! A4    A(3,1,4)              109.4523         estimate D2E/DX2                !
 ! A5    A(3,1,5)              109.4218         estimate D2E/DX2                !
 ! A6    A(4,1,5)              109.4915         estimate D2E/DX2                !
 ! A7    A(1,5,6)              109.4728         estimate D2E/DX2                !
 ! A8    A(1,5,7)              109.5419         estimate D2E/DX2                !
 ! A9    A(1,5,8)              109.5097         estimate D2E/DX2                !
 ! A10   A(6,5,7)              109.4039         estimate D2E/DX2                !
 ! A11   A(6,5,8)              109.4372         estimate D2E/DX2                !
 ! A12   A(7,5,8)              109.4617         estimate D2E/DX2                !
 ! A13   A(5,8,9)              109.4333         estimate D2E/DX2                !
 ! A14   A(5,8,11)             109.4372         estimate D2E/DX2                !
 ! A15   A(5,8,12)             109.509          estimate D2E/DX2                !
 ! A16   A(9,8,11)             109.4683         estimate D2E/DX2                !
 ! A17   A(9,8,12)             109.474          estimate D2E/DX2                !
 ! A18   A(11,8,12)            109.5054         estimate D2E/DX2                !
 ! A19   A(8,9,10)             109.5275         estimate D2E/DX2                !
 ! A20   A(8,12,13)            109.4434         estimate D2E/DX2                !
 ! A21   A(8,12,14)            109.4544         estimate D2E/DX2                !
 ! A22   A(8,12,15)            109.4743         estimate D2E/DX2                !
 ! A23   A(13,12,14)           109.4844         estimate D2E/DX2                !
 ! A24   A(13,12,15)           109.4906         estimate D2E/DX2                !
 ! A25   A(14,12,15)           109.4802         estimate D2E/DX2                !
 ! A26   A(12,15,16)           109.4802         estimate D2E/DX2                !
 ! A27   A(12,15,17)           109.4533         estimate D2E/DX2                !
 ! A28   A(12,15,18)           109.5065         estimate D2E/DX2                !
 ! A29   A(16,15,17)           109.4248         estimate D2E/DX2                !
 ! A30   A(16,15,18)           109.4523         estimate D2E/DX2                !
 ! A31   A(17,15,18)           109.5102         estimate D2E/DX2                !
 ! D1    D(2,1,5,6)             60.0475         estimate D2E/DX2                !
 ! D2    D(2,1,5,7)            -59.9143         estimate D2E/DX2                !
 ! D3    D(2,1,5,8)           -179.9696         estimate D2E/DX2                !
 ! D4    D(3,1,5,6)           -179.9991         estimate D2E/DX2                !
 ! D5    D(3,1,5,7)             60.0391         estimate D2E/DX2                !
 ! D6    D(3,1,5,8)            -60.0162         estimate D2E/DX2                !
 ! D7    D(4,1,5,6)            -60.0402         estimate D2E/DX2                !
 ! D8    D(4,1,5,7)            179.9981         estimate D2E/DX2                !
 ! D9    D(4,1,5,8)             59.9428         estimate D2E/DX2                !
 ! D10   D(1,5,8,9)            -59.9572         estimate D2E/DX2                !
 ! D11   D(1,5,8,11)            59.9953         estimate D2E/DX2                !
 ! D12   D(1,5,8,12)          -179.9605         estimate D2E/DX2                !
 ! D13   D(6,5,8,9)             60.0475         estimate D2E/DX2                !
 ! D14   D(6,5,8,11)          -180.0            estimate D2E/DX2                !
 ! D15   D(6,5,8,12)           -59.9558         estimate D2E/DX2                !
 ! D16   D(7,5,8,9)            179.9385         estimate D2E/DX2                !
 ! D17   D(7,5,8,11)           -60.1091         estimate D2E/DX2                !
 ! D18   D(7,5,8,12)            59.9351         estimate D2E/DX2                !
 ! D19   D(5,8,9,10)            59.9841         estimate D2E/DX2                !
 ! D20   D(11,8,9,10)          -59.9493         estimate D2E/DX2                !
 ! D21   D(12,8,9,10)         -179.9911         estimate D2E/DX2                !
 ! D22   D(5,8,12,13)          -59.9921         estimate D2E/DX2                !
 ! D23   D(5,8,12,14)           59.9966         estimate D2E/DX2                !
 ! D24   D(5,8,12,15)          179.9993         estimate D2E/DX2                !
 ! D25   D(9,8,12,13)         -179.9706         estimate D2E/DX2                !
 ! D26   D(9,8,12,14)          -59.9818         estimate D2E/DX2                !
 ! D27   D(9,8,12,15)           60.0208         estimate D2E/DX2                !
 ! D28   D(11,8,12,13)          60.0104         estimate D2E/DX2                !
 ! D29   D(11,8,12,14)         179.9991         estimate D2E/DX2                !
 ! D30   D(11,8,12,15)         -59.9983         estimate D2E/DX2                !
 ! D31   D(8,12,15,16)          60.0132         estimate D2E/DX2                !
 ! D32   D(8,12,15,17)         179.9509         estimate D2E/DX2                !
 ! D33   D(8,12,15,18)         -59.9907         estimate D2E/DX2                !
 ! D34   D(13,12,15,16)        -59.9665         estimate D2E/DX2                !
 ! D35   D(13,12,15,17)         59.9712         estimate D2E/DX2                !
 ! D36   D(13,12,15,18)       -179.9704         estimate D2E/DX2                !
 ! D37   D(14,12,15,16)       -180.0            estimate D2E/DX2                !
 ! D38   D(14,12,15,17)        -60.0623         estimate D2E/DX2                !
 ! D39   D(14,12,15,18)         59.9961         estimate D2E/DX2                !
 --------------------------------------------------------------------------------
 Trust Radius=3.00D-01 FncErr=1.00D-07 GrdErr=1.00D-06 EigMax=2.50D+02 EigMin=1.00D-04
 Number of steps in this run=     97 maximum allowed number of steps=    108.
 GradGradGradGradGradGradGradGradGradGradGradGradGradGradGradGradGradGrad

 Leave Link  103 at Tue Feb  8 21:15:16 2022, MaxMem=   536870912 cpu:               0.2 elap:               0.1
 (Enter /opt/gaussian/g16_legacy/l202.exe)
                          Input orientation:                          
 ---------------------------------------------------------------------
 Center     Atomic      Atomic             Coordinates (Angstroms)
 Number     Number       Type             X           Y           Z
 ---------------------------------------------------------------------
      1          6           0       -3.255000    0.976000   -0.031000
      2          1           0       -3.640000    1.974000   -0.019000
      3          1           0       -3.580000    0.479000   -0.921000
      4          1           0       -3.613000    0.444000    0.825000
      5          6           0       -1.716000    1.020000   -0.002000
      6          1           0       -1.390000    1.517000    0.888000
      7          1           0       -1.357000    1.552000   -0.858000
      8          6           0       -1.160000   -0.416000   -0.020000
      9          8           0       -1.639000   -1.126000    1.125000
     10          1           0       -2.598000   -1.154000    1.107000
     11          1           0       -1.486000   -0.913000   -0.910000
     12          6           0        0.379000   -0.372000    0.010000
     13          1           0        0.737000    0.160000   -0.847000
     14          1           0        0.704000    0.125000    0.900000
     15          6           0        0.934000   -1.808000   -0.008000
     16          1           0        0.609000   -2.305000   -0.898000
     17          1           0        2.004000   -1.777000    0.012000
     18          1           0        0.576000   -2.340000    0.848000
 ---------------------------------------------------------------------
                    Distance matrix (angstroms):
                    1          2          3          4          5
     1  C    0.000000
     2  H    1.069754   0.000000
     3  H    1.069922   1.747063   0.000000
     4  H    1.069544   1.747560   1.746663   0.000000
     5  C    1.539902   2.147599   2.147496   2.148095   0.000000
     6  H    2.148364   2.468602   3.024240   2.469216   1.070227
     7  H    2.148979   2.468622   2.469216   3.024845   1.069879
     8  C    2.515315   3.444198   2.732988   2.733283   1.539986
     9  O    2.892438   3.862996   3.244938   2.539995   2.425154
    10  H    2.502717   3.483967   2.782768   1.913989   2.595011
    11  H    2.733189   3.710575   2.514482   3.061993   2.147988
    12  C    3.876176   4.653699   4.155074   4.155255   2.515320
    13  H    4.155451   4.809814   4.329402   4.668912   2.733283
    14  H    4.155074   4.809750   4.668406   4.329420   2.733318
    15  C    5.029802   5.935075   5.141997   5.142043   3.875580
    16  H    5.142679   6.093971   5.029802   5.324567   4.155005
    17  H    5.936155   6.776850   6.094348   6.094629   4.654224
    18  H    5.142476   6.094009   5.324327   5.029802   4.155161
                    6          7          8          9         10
     6  H    0.000000
     7  H    1.746663   0.000000
     8  C    2.147988   2.148040   0.000000
     9  O    2.665262   3.344174   1.429883   0.000000
    10  H    2.939637   3.567035   1.970436   0.959578   0.000000
    11  H    3.024388   2.468921   1.070227   2.051829   2.315797
    12  C    2.732868   2.732928   1.539921   2.425709   3.267639
    13  H    3.061993   2.514482   2.148095   3.344840   4.082516
    14  H    2.514487   3.061799   2.147924   2.665572   3.547097
    15  C    4.154445   4.154610   2.514487   2.892947   3.761112
    16  H    4.668349   4.329342   2.732868   3.245932   3.953438
    17  H    4.810099   4.809934   3.444451   3.864456   4.771327
    18  H    4.329342   4.668468   2.732928   2.541014   3.398228
                   11         12         13         14         15
    11  H    0.000000
    12  C    2.148792   0.000000
    13  H    2.469216   1.070344   0.000000
    14  H    3.024838   1.069922   1.747662   0.000000
    15  C    2.733318   1.539625   2.148431   2.147988   0.000000
    16  H    2.515320   2.147988   2.468848   3.024356   1.069922
    17  H    3.711695   2.148175   2.468834   2.469038   1.070636
    18  H    3.062472   2.148040   3.024722   2.468869   1.069544
                   16         17         18
    16  H    0.000000
    17  H    1.747258   0.000000
    18  H    1.746663   1.747870   0.000000
 Stoichiometry    C5H12O
 Framework group  C1[X(C5H12O)]
 Deg. of freedom    48
 Full point group                 C1      NOp   1
 Largest Abelian subgroup         C1      NOp   1
 Largest concise Abelian subgroup C1      NOp   1
                         Standard orientation:                         
 ---------------------------------------------------------------------
 Center     Atomic      Atomic             Coordinates (Angstroms)
 Number     Number       Type             X           Y           Z
 ---------------------------------------------------------------------
      1          6           0       -2.499343   -0.013631    0.236257
      2          1           0       -3.365881   -0.552222   -0.085309
      3          1           0       -2.499644    0.057928    1.303784
      4          1           0       -2.511205    0.968711   -0.186575
      5          6           0       -1.232757   -0.757055   -0.226751
      6          1           0       -1.231618   -0.829086   -1.294551
      7          1           0       -1.220057   -1.739869    0.195808
      8          6           0        0.015790    0.016588    0.236025
      9          8           0       -0.001066    1.329475   -0.330198
     10          1           0       -0.789999    1.793185   -0.041501
     11          1           0        0.014651    0.088618    1.303825
     12          6           0        1.282375   -0.726339   -0.227850
     13          1           0        1.294238   -1.709179    0.195849
     14          1           0        1.282676   -0.797897   -1.295377
     15          6           0        2.530084    0.047776    0.235199
     16          1           0        2.529783    0.119334    1.302726
     17          1           0        3.410464   -0.469473   -0.086740
     18          1           0        2.518222    1.030118   -0.187633
 ---------------------------------------------------------------------
 Rotational constants (GHZ):           7.4042140           1.9513049           1.6843892
 Leave Link  202 at Tue Feb  8 21:15:16 2022, MaxMem=   536870912 cpu:               0.1 elap:               0.0
 (Enter /opt/gaussian/g16_legacy/l301.exe)
 Standard basis: 6-31G(d,p) (6D, 7F)
 Ernie: Thresh=  0.10000D-02 Tol=  0.10000D-05 Strict=F.
 There are   150 symmetry adapted cartesian basis functions of A   symmetry.
 There are   150 symmetry adapted basis functions of A   symmetry.
   150 basis functions,   252 primitive gaussians,   150 cartesian basis functions
    25 alpha electrons       25 beta electrons
       nuclear repulsion energy       260.6080603009 Hartrees.
 IExCor= 4336 DFT=T Ex+Corr=M062X ExCW=0 ScaHFX=  0.540000
 ScaDFX=  1.000000  1.000000  1.000000  1.000000 ScalE2=  1.000000  1.000000
 IRadAn=      5 IRanWt=     -1 IRanGd=            0 ICorTp=0 IEmpDi=  4
 NAtoms=   18 NActive=   18 NUniq=   18 SFac= 1.00D+00 NAtFMM=   60 NAOKFM=F Big=F
 Integral buffers will be    131072 words long.
 Raffenetti 2 integral format.
 Two-electron integral symmetry is turned on.
 Leave Link  301 at Tue Feb  8 21:15:17 2022, MaxMem=   536870912 cpu:               0.6 elap:               0.3
 (Enter /opt/gaussian/g16_legacy/l302.exe)
 NPDir=0 NMtPBC=     1 NCelOv=     1 NCel=       1 NClECP=     1 NCelD=      1
         NCelK=      1 NCelE2=     1 NClLst=     1 CellRange=     0.0.
 One-electron integrals computed using PRISM.
 One-electron integral symmetry used in STVInt
 NBasis=   150 RedAO= T EigKep=  3.09D-03  NBF=   150
 NBsUse=   150 1.00D-06 EigRej= -1.00D+00 NBFU=   150
 Precomputing XC quadrature grid using
 IXCGrd= 4 IRadAn=           5 IRanWt=          -1 IRanGd=           0 AccXCQ= 0.00D+00.
 Generated NRdTot=       0 NPtTot=           0 NUsed=           0 NTot=          32
 NSgBfM=   150   150   150   150   150 MxSgAt=    18 MxSgA2=    18.
 Leave Link  302 at Tue Feb  8 21:15:18 2022, MaxMem=   536870912 cpu:               3.2 elap:               1.0
 (Enter /opt/gaussian/g16_legacy/l303.exe)
 DipDrv:  MaxL=1.
 Leave Link  303 at Tue Feb  8 21:15:18 2022, MaxMem=   536870912 cpu:               0.1 elap:               0.1
 (Enter /opt/gaussian/g16_legacy/l401.exe)
 ExpMin= 1.61D-01 ExpMax= 5.48D+03 ExpMxC= 8.25D+02 IAcc=3 IRadAn=         5 AccDes= 0.00D+00
 Harris functional with IExCor= 1009 and IRadAn=       5 diagonalized for initial guess.
 HarFok:  IExCor= 1009 AccDes= 0.00D+00 IRadAn=         5 IDoV= 1 UseB2=F ITyADJ=14
 ICtDFT=  3500011 ScaDFX=  1.000000  1.000000  1.000000  1.000000
 FoFCou: FMM=F IPFlag=           0 FMFlag=      100000 FMFlg1=           0
         NFxFlg=           0 DoJE=T BraDBF=F KetDBF=T FulRan=T
         wScrn=  0.000000 ICntrl=       500 IOpCl=  0 I1Cent=   200000004 NGrid=           0
         NMat0=    1 NMatS0=      1 NMatT0=    0 NMatD0=    1 NMtDS0=    0 NMtDT0=    0
 Petite list used in FoFCou.
 Harris En= -272.830742438622    
 JPrj=0 DoOrth=F DoCkMO=F.
 Leave Link  401 at Tue Feb  8 21:15:22 2022, MaxMem=   536870912 cpu:              15.3 elap:               4.0
 (Enter /opt/gaussian/g16_legacy/l502.exe)
 Keep R1 ints in memory in canonical form, NReq=68039519.
 FoFCou: FMM=F IPFlag=           0 FMFlag=           0 FMFlg1=           0
         NFxFlg=           0 DoJE=F BraDBF=F KetDBF=F FulRan=T
         wScrn=  0.000000 ICntrl=       600 IOpCl=  0 I1Cent=           0 NGrid=           0
         NMat0=    1 NMatS0=  11325 NMatT0=    0 NMatD0=    1 NMtDS0=    0 NMtDT0=    0
 Symmetry not used in FoFCou.
 Two-electron integral symmetry not used.
 Closed shell SCF:
 Using DIIS extrapolation, IDIIS=  1040.
 NGot=   536870912 LenX=   472689697 LenY=   472666756
 Requested convergence on RMS density matrix=1.00D-08 within 128 cycles.
 Requested convergence on MAX density matrix=1.00D-06.
 Requested convergence on             energy=1.00D-06.
 No special actions if energy rises.
 Integral accuracy reduced to 1.0D-05 until final iterations.

 Cycle   1  Pass 0  IDiag  1:
 E= -272.591005810574    
 DIIS: error= 3.18D-02 at cycle   1 NSaved=   1.
 NSaved= 1 IEnMin= 1 EnMin= -272.591005810574     IErMin= 1 ErrMin= 3.18D-02
 ErrMax= 3.18D-02  0.00D+00 EMaxC= 1.00D-01 BMatC= 2.63D-01 BMatP= 2.63D-01
 IDIUse=3 WtCom= 6.82D-01 WtEn= 3.18D-01
 Coeff-Com:  0.100D+01
 Coeff-En:   0.100D+01
 Coeff:      0.100D+01
 Gap=     0.393 Goal=   None    Shift=    0.000
 GapD=    0.393 DampG=1.000 DampE=0.500 DampFc=0.5000 IDamp=-1.
 Damping current iteration by 5.00D-01
 RMSDP=5.54D-03 MaxDP=1.19D-01              OVMax= 1.39D-01

 Cycle   2  Pass 0  IDiag  1:
 E= -272.726605478234     Delta-E=       -0.135599667659 Rises=F Damp=T
 DIIS: error= 1.14D-02 at cycle   2 NSaved=   2.
 NSaved= 2 IEnMin= 2 EnMin= -272.726605478234     IErMin= 2 ErrMin= 1.14D-02
 ErrMax= 1.14D-02  0.00D+00 EMaxC= 1.00D-01 BMatC= 1.45D-02 BMatP= 2.63D-01
 IDIUse=3 WtCom= 8.86D-01 WtEn= 1.14D-01
 Coeff-Com: -0.112D+00 0.111D+01
 Coeff-En:   0.000D+00 0.100D+01
 Coeff:     -0.992D-01 0.110D+01
 Gap=     0.453 Goal=   None    Shift=    0.000
 RMSDP=9.19D-04 MaxDP=1.67D-02 DE=-1.36D-01 OVMax= 5.94D-02

 Cycle   3  Pass 0  IDiag  1:
 E= -272.846462456254     Delta-E=       -0.119856978020 Rises=F Damp=F
 DIIS: error= 2.44D-03 at cycle   3 NSaved=   3.
 NSaved= 3 IEnMin= 3 EnMin= -272.846462456254     IErMin= 3 ErrMin= 2.44D-03
 ErrMax= 2.44D-03  0.00D+00 EMaxC= 1.00D-01 BMatC= 1.34D-03 BMatP= 1.45D-02
 IDIUse=3 WtCom= 9.76D-01 WtEn= 2.44D-02
 Coeff-Com: -0.371D-01 0.211D+00 0.826D+00
 Coeff-En:   0.000D+00 0.000D+00 0.100D+01
 Coeff:     -0.362D-01 0.206D+00 0.831D+00
 Gap=     0.446 Goal=   None    Shift=    0.000
 RMSDP=2.98D-04 MaxDP=1.09D-02 DE=-1.20D-01 OVMax= 9.81D-03

 Cycle   4  Pass 0  IDiag  1:
 E= -272.847017646304     Delta-E=       -0.000555190050 Rises=F Damp=F
 DIIS: error= 1.67D-03 at cycle   4 NSaved=   4.
 NSaved= 4 IEnMin= 4 EnMin= -272.847017646304     IErMin= 4 ErrMin= 1.67D-03
 ErrMax= 1.67D-03  0.00D+00 EMaxC= 1.00D-01 BMatC= 5.97D-04 BMatP= 1.34D-03
 IDIUse=3 WtCom= 9.83D-01 WtEn= 1.67D-02
 Coeff-Com: -0.761D-02 0.305D-01 0.409D+00 0.568D+00
 Coeff-En:   0.000D+00 0.000D+00 0.290D+00 0.710D+00
 Coeff:     -0.748D-02 0.300D-01 0.407D+00 0.570D+00
 Gap=     0.447 Goal=   None    Shift=    0.000
 RMSDP=1.37D-04 MaxDP=4.83D-03 DE=-5.55D-04 OVMax= 4.19D-03

 Cycle   5  Pass 0  IDiag  1:
 E= -272.847458887064     Delta-E=       -0.000441240760 Rises=F Damp=F
 DIIS: error= 1.25D-04 at cycle   5 NSaved=   5.
 NSaved= 5 IEnMin= 5 EnMin= -272.847458887064     IErMin= 5 ErrMin= 1.25D-04
 ErrMax= 1.25D-04  0.00D+00 EMaxC= 1.00D-01 BMatC= 7.67D-06 BMatP= 5.97D-04
 IDIUse=3 WtCom= 9.99D-01 WtEn= 1.25D-03
 Coeff-Com:  0.655D-03-0.289D-02 0.655D-01 0.153D+00 0.784D+00
 Coeff-En:   0.000D+00 0.000D+00 0.000D+00 0.000D+00 0.100D+01
 Coeff:      0.655D-03-0.288D-02 0.654D-01 0.153D+00 0.784D+00
 Gap=     0.447 Goal=   None    Shift=    0.000
 RMSDP=1.92D-05 MaxDP=3.67D-04 DE=-4.41D-04 OVMax= 4.78D-04

 Cycle   6  Pass 0  IDiag  1:
 E= -272.847465399154     Delta-E=       -0.000006512091 Rises=F Damp=F
 DIIS: error= 2.35D-05 at cycle   6 NSaved=   6.
 NSaved= 6 IEnMin= 6 EnMin= -272.847465399154     IErMin= 6 ErrMin= 2.35D-05
 ErrMax= 2.35D-05  0.00D+00 EMaxC= 1.00D-01 BMatC= 2.31D-07 BMatP= 7.67D-06
 IDIUse=1 WtCom= 1.00D+00 WtEn= 0.00D+00
 Coeff-Com:  0.594D-03-0.195D-02-0.422D-02 0.792D-02 0.144D+00 0.854D+00
 Coeff:      0.594D-03-0.195D-02-0.422D-02 0.792D-02 0.144D+00 0.854D+00
 Gap=     0.447 Goal=   None    Shift=    0.000
 RMSDP=4.58D-06 MaxDP=1.46D-04 DE=-6.51D-06 OVMax= 1.27D-04

 Initial convergence to 1.0D-05 achieved.  Increase integral accuracy.
 Cycle   7  Pass 1  IDiag  1:
 E= -272.847500621900     Delta-E=       -0.000035222746 Rises=F Damp=F
 DIIS: error= 1.75D-05 at cycle   1 NSaved=   1.
 NSaved= 1 IEnMin= 1 EnMin= -272.847500621900     IErMin= 1 ErrMin= 1.75D-05
 ErrMax= 1.75D-05  0.00D+00 EMaxC= 1.00D-01 BMatC= 1.14D-07 BMatP= 1.14D-07
 IDIUse=1 WtCom= 1.00D+00 WtEn= 0.00D+00
 Coeff-Com:  0.100D+01
 Coeff:      0.100D+01
 Gap=     0.447 Goal=   None    Shift=    0.000
 RMSDP=4.58D-06 MaxDP=1.46D-04 DE=-3.52D-05 OVMax= 9.50D-05

 Cycle   8  Pass 1  IDiag  1:
 E= -272.847500684504     Delta-E=       -0.000000062605 Rises=F Damp=F
 DIIS: error= 1.09D-05 at cycle   2 NSaved=   2.
 NSaved= 2 IEnMin= 2 EnMin= -272.847500684504     IErMin= 2 ErrMin= 1.09D-05
 ErrMax= 1.09D-05  0.00D+00 EMaxC= 1.00D-01 BMatC= 4.80D-08 BMatP= 1.14D-07
 IDIUse=1 WtCom= 1.00D+00 WtEn= 0.00D+00
 Coeff-Com:  0.370D+00 0.630D+00
 Coeff:      0.370D+00 0.630D+00
 Gap=     0.447 Goal=   None    Shift=    0.000
 RMSDP=1.59D-06 MaxDP=4.47D-05 DE=-6.26D-08 OVMax= 4.60D-05

 Cycle   9  Pass 1  IDiag  1:
 E= -272.847500728065     Delta-E=       -0.000000043561 Rises=F Damp=F
 DIIS: error= 3.04D-06 at cycle   3 NSaved=   3.
 NSaved= 3 IEnMin= 3 EnMin= -272.847500728065     IErMin= 3 ErrMin= 3.04D-06
 ErrMax= 3.04D-06  0.00D+00 EMaxC= 1.00D-01 BMatC= 3.18D-09 BMatP= 4.80D-08
 IDIUse=1 WtCom= 1.00D+00 WtEn= 0.00D+00
 Coeff-Com: -0.297D-01 0.179D+00 0.851D+00
 Coeff:     -0.297D-01 0.179D+00 0.851D+00
 Gap=     0.447 Goal=   None    Shift=    0.000
 RMSDP=4.29D-07 MaxDP=9.26D-06 DE=-4.36D-08 OVMax= 1.25D-05

 Cycle  10  Pass 1  IDiag  1:
 E= -272.847500731135     Delta-E=       -0.000000003070 Rises=F Damp=F
 DIIS: error= 8.08D-07 at cycle   4 NSaved=   4.
 NSaved= 4 IEnMin= 4 EnMin= -272.847500731135     IErMin= 4 ErrMin= 8.08D-07
 ErrMax= 8.08D-07  0.00D+00 EMaxC= 1.00D-01 BMatC= 1.46D-10 BMatP= 3.18D-09
 IDIUse=1 WtCom= 1.00D+00 WtEn= 0.00D+00
 Coeff-Com: -0.202D-01 0.594D-01 0.343D+00 0.617D+00
 Coeff:     -0.202D-01 0.594D-01 0.343D+00 0.617D+00
 Gap=     0.447 Goal=   None    Shift=    0.000
 RMSDP=7.98D-08 MaxDP=3.30D-06 DE=-3.07D-09 OVMax= 2.57D-06

 Cycle  11  Pass 1  IDiag  1:
 E= -272.847500731240     Delta-E=       -0.000000000105 Rises=F Damp=F
 DIIS: error= 2.57D-07 at cycle   5 NSaved=   5.
 NSaved= 5 IEnMin= 5 EnMin= -272.847500731240     IErMin= 5 ErrMin= 2.57D-07
 ErrMax= 2.57D-07  0.00D+00 EMaxC= 1.00D-01 BMatC= 1.31D-11 BMatP= 1.46D-10
 IDIUse=1 WtCom= 1.00D+00 WtEn= 0.00D+00
 Coeff-Com: -0.141D-02-0.971D-02-0.264D-01 0.204D+00 0.833D+00
 Coeff:     -0.141D-02-0.971D-02-0.264D-01 0.204D+00 0.833D+00
 Gap=     0.447 Goal=   None    Shift=    0.000
 RMSDP=3.48D-08 MaxDP=1.04D-06 DE=-1.05D-10 OVMax= 1.07D-06

 Cycle  12  Pass 1  IDiag  1:
 E= -272.847500731254     Delta-E=       -0.000000000014 Rises=F Damp=F
 DIIS: error= 3.34D-08 at cycle   6 NSaved=   6.
 NSaved= 6 IEnMin= 6 EnMin= -272.847500731254     IErMin= 6 ErrMin= 3.34D-08
 ErrMax= 3.34D-08  0.00D+00 EMaxC= 1.00D-01 BMatC= 3.68D-13 BMatP= 1.31D-11
 IDIUse=1 WtCom= 1.00D+00 WtEn= 0.00D+00
 Coeff-Com:  0.793D-03-0.492D-02-0.229D-01 0.225D-02 0.163D+00 0.862D+00
 Coeff:      0.793D-03-0.492D-02-0.229D-01 0.225D-02 0.163D+00 0.862D+00
 Gap=     0.447 Goal=   None    Shift=    0.000
 RMSDP=8.19D-09 MaxDP=1.70D-07 DE=-1.44D-11 OVMax= 2.65D-07

 SCF Done:  E(RM062X) =  -272.847500731     A.U. after   12 cycles
            NFock= 12  Conv=0.82D-08     -V/T= 2.0075
 KE= 2.708195759983D+02 PE=-1.155549612234D+03 EE= 3.512744752036D+02
 Leave Link  502 at Tue Feb  8 21:16:33 2022, MaxMem=   536870912 cpu:             276.2 elap:              71.0
 (Enter /opt/gaussian/g16_legacy/l601.exe)
 Copying SCF densities to generalized density rwf, IOpCl= 0 IROHF=0.

 **********************************************************************

            Population analysis using the SCF density.

 **********************************************************************

 Orbital symmetries:
       Occupied  (A) (A) (A) (A) (A) (A) (A) (A) (A) (A) (A) (A)
                 (A) (A) (A) (A) (A) (A) (A) (A) (A) (A) (A) (A)
                 (A)
       Virtual   (A) (A) (A) (A) (A) (A) (A) (A) (A) (A) (A) (A)
                 (A) (A) (A) (A) (A) (A) (A) (A) (A) (A) (A) (A)
                 (A) (A) (A) (A) (A) (A) (A) (A) (A) (A) (A) (A)
                 (A) (A) (A) (A) (A) (A) (A) (A) (A) (A) (A) (A)
                 (A) (A) (A) (A) (A) (A) (A) (A) (A) (A) (A) (A)
                 (A) (A) (A) (A) (A) (A) (A) (A) (A) (A) (A) (A)
                 (A) (A) (A) (A) (A) (A) (A) (A) (A) (A) (A) (A)
                 (A) (A) (A) (A) (A) (A) (A) (A) (A) (A) (A) (A)
                 (A) (A) (A) (A) (A) (A) (A) (A) (A) (A) (A) (A)
                 (A) (A) (A) (A) (A) (A) (A) (A) (A) (A) (A) (A)
                 (A) (A) (A) (A) (A)
 The electronic state is 1-A.
 Alpha  occ. eigenvalues --  -19.62540 -10.58488 -10.53180 -10.53146 -10.52922
 Alpha  occ. eigenvalues --  -10.51424  -1.12960  -0.88916  -0.85128  -0.76520
 Alpha  occ. eigenvalues --   -0.68651  -0.66012  -0.59202  -0.53940  -0.50885
 Alpha  occ. eigenvalues --   -0.48851  -0.47958  -0.45764  -0.43357  -0.41767
 Alpha  occ. eigenvalues --   -0.40899  -0.40424  -0.39692  -0.35743  -0.32959
 Alpha virt. eigenvalues --    0.11726   0.15721   0.17038   0.17959   0.19747
 Alpha virt. eigenvalues --    0.20730   0.21862   0.23114   0.23800   0.25121
 Alpha virt. eigenvalues --    0.25559   0.26521   0.27925   0.29818   0.30393
 Alpha virt. eigenvalues --    0.31823   0.32423   0.53647   0.56669   0.57767
 Alpha virt. eigenvalues --    0.59805   0.60145   0.62817   0.64501   0.68582
 Alpha virt. eigenvalues --    0.69880   0.73492   0.74135   0.79776   0.84966
 Alpha virt. eigenvalues --    0.85542   0.86687   0.91283   0.93585   0.93916
 Alpha virt. eigenvalues --    0.96140   0.97002   0.99223   0.99812   1.00474
 Alpha virt. eigenvalues --    1.00646   1.02414   1.04290   1.05121   1.06225
 Alpha virt. eigenvalues --    1.11149   1.18957   1.23267   1.33247   1.34548
 Alpha virt. eigenvalues --    1.38736   1.41972   1.48363   1.53788   1.59949
 Alpha virt. eigenvalues --    1.64344   1.66685   1.69128   1.72894   1.74828
 Alpha virt. eigenvalues --    1.76737   1.84375   1.85035   1.89630   1.92713
 Alpha virt. eigenvalues --    1.94703   2.00182   2.05223   2.09098   2.10960
 Alpha virt. eigenvalues --    2.12861   2.14550   2.15167   2.17277   2.18695
 Alpha virt. eigenvalues --    2.19828   2.20326   2.23094   2.28301   2.30708
 Alpha virt. eigenvalues --    2.33496   2.34082   2.36092   2.42328   2.44452
 Alpha virt. eigenvalues --    2.45443   2.48530   2.49107   2.54107   2.63610
 Alpha virt. eigenvalues --    2.65232   2.68390   2.69848   2.72659   2.74257
 Alpha virt. eigenvalues --    2.75114   2.80935   2.81663   2.87780   2.91575
 Alpha virt. eigenvalues --    2.92301   2.95004   2.96743   2.97912   2.98582
 Alpha virt. eigenvalues --    3.00298   3.05101   3.24728   3.27214   3.33268
 Alpha virt. eigenvalues --    3.34150   3.37994   3.42963   3.48493   3.49803
 Alpha virt. eigenvalues --    3.51235   3.54950   3.58473   3.60919   3.97119
 Alpha virt. eigenvalues --    4.35478   4.43605   4.54836   4.64363   4.75926
          Condensed to atoms (all electrons):
               1          2          3          4          5          6
     1  C    4.992092   0.393892   0.394410   0.383753   0.347287  -0.040663
     2  H    0.393892   0.558197  -0.027116  -0.025648  -0.029822  -0.003067
     3  H    0.394410  -0.027116   0.580467  -0.034160  -0.039318   0.005353
     4  H    0.383753  -0.025648  -0.034160   0.603956  -0.040788  -0.004106
     5  C    0.347287  -0.029822  -0.039318  -0.040788   5.034831   0.391015
     6  H   -0.040663  -0.003067   0.005353  -0.004106   0.391015   0.585090
     7  H   -0.036327  -0.002906  -0.004651   0.006273   0.371840  -0.030295
     8  C   -0.043458   0.004405  -0.004062  -0.009386   0.370112  -0.032656
     9  O   -0.007831   0.000266  -0.000500   0.006824  -0.053821   0.000350
    10  H    0.006554  -0.000226   0.000012   0.005614  -0.007259  -0.000445
    11  H   -0.007702  -0.000046   0.005462   0.000847  -0.059840   0.006422
    12  C    0.005451  -0.000131   0.000035   0.000072  -0.055086  -0.007418
    13  H    0.000015  -0.000003   0.000003   0.000003  -0.002709   0.000063
    14  H   -0.000003   0.000000   0.000009   0.000027  -0.008383   0.004801
    15  C   -0.000194   0.000002  -0.000002  -0.000007   0.005855  -0.000009
    16  H   -0.000001   0.000000  -0.000002   0.000001   0.000046   0.000007
    17  H    0.000002  -0.000000   0.000000   0.000000  -0.000144  -0.000001
    18  H   -0.000004   0.000000   0.000000  -0.000003   0.000340   0.000012
               7          8          9         10         11         12
     1  C   -0.036327  -0.043458  -0.007831   0.006554  -0.007702   0.005451
     2  H   -0.002906   0.004405   0.000266  -0.000226  -0.000046  -0.000131
     3  H   -0.004651  -0.004062  -0.000500   0.000012   0.005462   0.000035
     4  H    0.006273  -0.009386   0.006824   0.005614   0.000847   0.000072
     5  C    0.371840   0.370112  -0.053821  -0.007259  -0.059840  -0.055086
     6  H   -0.030295  -0.032656   0.000350  -0.000445   0.006422  -0.007418
     7  H    0.611047  -0.031741   0.003982  -0.000056   0.000675  -0.002921
     8  C   -0.031741   4.744890   0.221824  -0.026321   0.388779   0.385849
     9  O    0.003982   0.221824   8.205094   0.294198  -0.042690  -0.052390
    10  H   -0.000056  -0.026321   0.294198   0.399021  -0.004810   0.006257
    11  H    0.000675   0.388779  -0.042690  -0.004810   0.670496  -0.050334
    12  C   -0.002921   0.385849  -0.052390   0.006257  -0.050334   4.966790
    13  H    0.002619  -0.034881   0.002892  -0.000228  -0.000988   0.389429
    14  H    0.000257  -0.032770   0.000407  -0.000149   0.006392   0.390028
    15  C   -0.000105  -0.045753  -0.003009   0.000083  -0.007397   0.354334
    16  H    0.000005  -0.005076  -0.000384  -0.000052   0.004995  -0.038742
    17  H   -0.000005   0.004708   0.000118   0.000007  -0.000051  -0.032274
    18  H   -0.000010  -0.009125   0.008895  -0.000379   0.000146  -0.034139
              13         14         15         16         17         18
     1  C    0.000015  -0.000003  -0.000194  -0.000001   0.000002  -0.000004
     2  H   -0.000003   0.000000   0.000002   0.000000  -0.000000   0.000000
     3  H    0.000003   0.000009  -0.000002  -0.000002   0.000000   0.000000
     4  H    0.000003   0.000027  -0.000007   0.000001   0.000000  -0.000003
     5  C   -0.002709  -0.008383   0.005855   0.000046  -0.000144   0.000340
     6  H    0.000063   0.004801  -0.000009   0.000007  -0.000001   0.000012
     7  H    0.002619   0.000257  -0.000105   0.000005  -0.000005  -0.000010
     8  C   -0.034881  -0.032770  -0.045753  -0.005076   0.004708  -0.009125
     9  O    0.002892   0.000407  -0.003009  -0.000384   0.000118   0.008895
    10  H   -0.000228  -0.000149   0.000083  -0.000052   0.000007  -0.000379
    11  H   -0.000988   0.006392  -0.007397   0.004995  -0.000051   0.000146
    12  C    0.389429   0.390028   0.354334  -0.038742  -0.032274  -0.034139
    13  H    0.601459  -0.031436  -0.037414  -0.004471  -0.003474   0.005032
    14  H   -0.031436   0.587467  -0.038767   0.005268  -0.003299  -0.003942
    15  C   -0.037414  -0.038767   4.955281   0.394993   0.390374   0.400277
    16  H   -0.004471   0.005268   0.394993   0.588545  -0.030192  -0.028319
    17  H   -0.003474  -0.003299   0.390374  -0.030192   0.587687  -0.028536
    18  H    0.005032  -0.003942   0.400277  -0.028319  -0.028536   0.540732
 Mulliken charges:
               1
     1  C   -0.387272
     2  H    0.132203
     3  H    0.124061
     4  H    0.106728
     5  C   -0.224155
     6  H    0.125547
     7  H    0.112320
     8  C    0.154660
     9  O   -0.584225
    10  H    0.328180
    11  H    0.089645
    12  C   -0.224808
    13  H    0.114088
    14  H    0.124092
    15  C   -0.368542
    16  H    0.113380
    17  H    0.115078
    18  H    0.149022
 Sum of Mulliken charges =  -0.00000
 Mulliken charges with hydrogens summed into heavy atoms:
               1
     1  C   -0.024281
     5  C    0.013711
     8  C    0.244306
     9  O   -0.256046
    12  C    0.013372
    15  C    0.008938
 Electronic spatial extent (au):  <R**2>=            783.7876
 Charge=             -0.0000 electrons
 Dipole moment (field-independent basis, Debye):
    X=             -1.2081    Y=             -0.6226    Z=              0.8010  Tot=              1.5776
 Quadrupole moment (field-independent basis, Debye-Ang):
   XX=            -38.9474   YY=            -39.0557   ZZ=            -39.6548
   XY=             -2.3267   XZ=             -0.1192   YZ=              1.0523
 Traceless Quadrupole moment (field-independent basis, Debye-Ang):
   XX=              0.2719   YY=              0.1636   ZZ=             -0.4355
   XY=             -2.3267   XZ=             -0.1192   YZ=              1.0523
 Octapole moment (field-independent basis, Debye-Ang**2):
  XXX=             -2.2939  YYY=              8.8472  ZZZ=             -0.6718  XYY=             -5.1004
  XXY=              1.7519  XXZ=             -2.5578  XZZ=             -0.1625  YZZ=              0.9293
  YYZ=              1.2703  XYZ=             -0.0168
 Hexadecapole moment (field-independent basis, Debye-Ang**3):
 XXXX=           -786.9675 YYYY=           -173.5125 ZZZZ=            -86.0908 XXXY=              0.7263
 XXXZ=             -0.4934 YYYX=            -10.6660 YYYZ=             -2.4506 ZZZX=             -0.2980
 ZZZY=              0.2394 XXYY=           -155.5500 XXZZ=           -144.9294 YYZZ=            -47.6184
 XXYZ=             -0.5743 YYXZ=              0.0596 ZZXY=             -0.2731
 N-N= 2.606080603009D+02 E-N=-1.155549610089D+03  KE= 2.708195759983D+02
 No NMR shielding tensors so no spin-rotation constants.
 Leave Link  601 at Tue Feb  8 21:16:33 2022, MaxMem=   536870912 cpu:               1.7 elap:               0.6
 (Enter /opt/gaussian/g16_legacy/l602.exe)
 FitSet:  NAtFit=    18 NAtPot=    18 NAtFrz=     0 MDM=    22 TotChg=   0.00000
 Merz-Kollman atomic radii used.

 **********************************************************************

            Electrostatic Properties Using The SCF Density

 **********************************************************************

       Atomic Center    1 is at  -2.499343 -0.013631  0.236257
       Atomic Center    2 is at  -3.365881 -0.552222 -0.085309
       Atomic Center    3 is at  -2.499644  0.057928  1.303784
       Atomic Center    4 is at  -2.511205  0.968711 -0.186575
       Atomic Center    5 is at  -1.232757 -0.757055 -0.226751
       Atomic Center    6 is at  -1.231618 -0.829086 -1.294551
       Atomic Center    7 is at  -1.220057 -1.739869  0.195808
       Atomic Center    8 is at   0.015790  0.016588  0.236025
       Atomic Center    9 is at  -0.001066  1.329475 -0.330198
       Atomic Center   10 is at  -0.789999  1.793185 -0.041501
       Atomic Center   11 is at   0.014651  0.088618  1.303825
       Atomic Center   12 is at   1.282375 -0.726339 -0.227850
       Atomic Center   13 is at   1.294238 -1.709179  0.195849
       Atomic Center   14 is at   1.282676 -0.797897 -1.295377
       Atomic Center   15 is at   2.530084  0.047776  0.235199
       Atomic Center   16 is at   2.529783  0.119334  1.302726
       Atomic Center   17 is at   3.410464 -0.469473 -0.086740
       Atomic Center   18 is at   2.518222  1.030118 -0.187633
     781 points will be used for fitting atomic charges
 Fitting point charges to electrostatic potential
 Charges from ESP fit, RMS=   0.00171 RRMS=   0.17441:
 ESP charges:
               1
     1  C   -0.185474
     2  H    0.066012
     3  H    0.041236
     4  H    0.040414
     5  C   -0.029878
     6  H    0.030488
     7  H    0.013873
     8  C    0.189184
     9  O   -0.602674
    10  H    0.388410
    11  H    0.025736
    12  C    0.014969
    13  H    0.002114
    14  H    0.036659
    15  C   -0.177801
    16  H    0.038046
    17  H    0.045736
    18  H    0.062949
 Sum of ESP charges =  -0.00000
 ESP charges with hydrogens summed into heavy atoms:
               1
     1  C   -0.037811
     5  C    0.014484
     8  C    0.214919
     9  O   -0.214264
    12  C    0.053742
    15  C   -0.031069
 Charge=  -0.00000 Dipole=    -1.2191    -0.5900     0.8135 Tot=     1.5799
 -----------------------------------------------------------------

              Electrostatic Properties (Atomic Units)

 -----------------------------------------------------------------
    Center     Electric         -------- Electric Field --------
               Potential          X             Y             Z
 -----------------------------------------------------------------
    1 Atom    -14.751293
    2 Atom     -1.123226
    3 Atom     -1.122323
    4 Atom     -1.118985
    5 Atom    -14.751581
    6 Atom     -1.131716
    7 Atom     -1.128034
    8 Atom    -14.694747
    9 Atom    -22.320134
   10 Atom     -1.008659
   11 Atom     -1.134138
   12 Atom    -14.753224
   13 Atom     -1.130410
   14 Atom     -1.135973
   15 Atom    -14.768447
   16 Atom     -1.138966
   17 Atom     -1.140096
   18 Atom     -1.144141
 -----------------------------------------------------------------
 Leave Link  602 at Tue Feb  8 21:16:34 2022, MaxMem=   536870912 cpu:               1.1 elap:               0.7
 (Enter /opt/gaussian/g16_legacy/l701.exe)
 ... and contract with generalized density number  0.
 Compute integral first derivatives.
 Leave Link  701 at Tue Feb  8 21:16:35 2022, MaxMem=   536870912 cpu:               1.1 elap:               0.5
 (Enter /opt/gaussian/g16_legacy/l702.exe)
 L702 exits ... SP integral derivatives will be done elsewhere.
 Leave Link  702 at Tue Feb  8 21:16:35 2022, MaxMem=   536870912 cpu:               0.1 elap:               0.1
 (Enter /opt/gaussian/g16_legacy/l703.exe)
 Integral derivatives from FoFJK, PRISM(SPDF).
 Compute integral first derivatives, UseDBF=F ICtDFT=           0.
 Calling FoFJK, ICntrl=      2127 FMM=F ISym2X=0 I1Cent= 0 IOpClX= 0 NMat=1 NMatS=1 NMatT=0.
 FoFJK:  IHMeth= 1 ICntrl=    2127 DoSepK=F KAlg= 0 I1Cent=           0 FoldK=F
 IRaf=         0 NMat=       1 IRICut=       1 DoRegI=T DoRafI=F ISym2E= 0 IDoP0=0 IntGTp=1.
 FoFCou: FMM=F IPFlag=           0 FMFlag=      100000 FMFlg1=         800
         NFxFlg=           0 DoJE=F BraDBF=F KetDBF=F FulRan=T
         wScrn=  0.000000 ICntrl=      2127 IOpCl=  0 I1Cent=           0 NGrid=           0
         NMat0=    1 NMatS0=      1 NMatT0=    0 NMatD0=    1 NMtDS0=    0 NMtDT0=    0
 Symmetry not used in FoFCou.
 Leave Link  703 at Tue Feb  8 21:16:51 2022, MaxMem=   536870912 cpu:              61.8 elap:              15.9
 (Enter /opt/gaussian/g16_legacy/l716.exe)
 Dipole        =-4.75291558D-01-2.44954533D-01 3.15150626D-01
 ***** Axes restored to original set *****
 -------------------------------------------------------------------
 Center     Atomic                   Forces (Hartrees/Bohr)
 Number     Number              X              Y              Z
 -------------------------------------------------------------------
      1        6           0.027042053    0.007076745   -0.001351019
      2        1          -0.010400800    0.012655043    0.000900291
      3        1          -0.008043254   -0.007261066   -0.013583629
      4        1          -0.009643314   -0.004645923    0.013179776
      5        6          -0.022850846   -0.027484652   -0.003770420
      6        1           0.007773028    0.007225165    0.013481668
      7        1           0.007123964    0.009601192   -0.013056465
      8        6           0.009111957    0.027375806    0.025125275
      9        8           0.015785506   -0.000312852   -0.002007405
     10        1          -0.001443856   -0.000544374   -0.003414892
     11        1          -0.005345567   -0.009528972   -0.019040933
     12        6          -0.020590713   -0.038033795    0.002490940
     13        1           0.003475424    0.010915860   -0.012554160
     14        1           0.003801577    0.010392013    0.013656347
     15        6          -0.003011636    0.024690624    0.002102357
     16        1          -0.003680633   -0.009911382   -0.013234902
     17        1           0.015885215   -0.003307500   -0.000306358
     18        1          -0.004988105   -0.008901931    0.011383530
 -------------------------------------------------------------------
 Cartesian Forces:  Max     0.038033795 RMS     0.013358870
 Leave Link  716 at Tue Feb  8 21:16:51 2022, MaxMem=   536870912 cpu:               0.3 elap:               0.2
 (Enter /opt/gaussian/g16_legacy/l103.exe)

 GradGradGradGradGradGradGradGradGradGradGradGradGradGradGradGradGradGrad
 Berny optimization.
 FormGI is forming the generalized inverse of G from B-inverse, IUseBI=4.
 Internal  Forces:  Max     0.021887781 RMS     0.007221958
 Search for a local minimum.
 Step number   1 out of a maximum of   97
 All quantities printed in internal units (Hartrees-Bohrs-Radians)
 RMS Force = .72220D-02 SwitMx=.10000D-02 MixMth= 1
 Mixed Optimization -- RFO/linear search
 Second derivative matrix not updated -- first step.
 ITU=  0
     Eigenvalues ---    0.00237   0.00238   0.00238   0.00242   0.01296
     Eigenvalues ---    0.03834   0.03842   0.04526   0.04894   0.04899
     Eigenvalues ---    0.04907   0.05718   0.05719   0.05725   0.05729
     Eigenvalues ---    0.06932   0.07656   0.07664   0.11702   0.11708
     Eigenvalues ---    0.16000   0.16000   0.16000   0.16000   0.16000
     Eigenvalues ---    0.16000   0.16000   0.16080   0.19693   0.21946
     Eigenvalues ---    0.21948   0.28520   0.28526   0.28528   0.28552
     Eigenvalues ---    0.37150   0.37187   0.37201   0.37201   0.37240
     Eigenvalues ---    0.37240   0.37240   0.37245   0.37261   0.37288
     Eigenvalues ---    0.37288   0.41006   0.55564
 RFO step:  Lambda=-1.56080084D-02 EMin= 2.37013184D-03
 Linear search not attempted -- first point.
 Iteration  1 RMS(Cart)=  0.06363272 RMS(Int)=  0.00154394
 Iteration  2 RMS(Cart)=  0.00177988 RMS(Int)=  0.00045349
 Iteration  3 RMS(Cart)=  0.00000196 RMS(Int)=  0.00045349
 Iteration  4 RMS(Cart)=  0.00000000 RMS(Int)=  0.00045349
 ITry= 1 IFail=0 DXMaxC= 2.17D-01 DCOld= 1.00D+10 DXMaxT= 3.00D-01 DXLimC= 3.00D+00 Rises=F
 Variable       Old X    -DE/DX   Delta X   Delta X   Delta X     New X
                                 (Linear)    (Quad)   (Total)
    R1        2.02154   0.01556   0.00000   0.04008   0.04008   2.06162
    R2        2.02186   0.01712   0.00000   0.04411   0.04411   2.06597
    R3        2.02114   0.01609   0.00000   0.04141   0.04141   2.06255
    R4        2.90999   0.00084   0.00000   0.00278   0.00278   2.91277
    R5        2.02244   0.01693   0.00000   0.04369   0.04369   2.06612
    R6        2.02178   0.01761   0.00000   0.04538   0.04538   2.06716
    R7        2.91015   0.00056   0.00000   0.00185   0.00185   2.91201
    R8        2.70209  -0.00872   0.00000  -0.02049  -0.02049   2.68160
    R9        2.02244   0.02189   0.00000   0.05647   0.05647   2.07890
   R10        2.91003  -0.00944   0.00000  -0.03137  -0.03137   2.87866
   R11        1.81334   0.00152   0.00000   0.00267   0.00267   1.81600
   R12        2.02266   0.01664   0.00000   0.04294   0.04294   2.06560
   R13        2.02186   0.01734   0.00000   0.04469   0.04469   2.06655
   R14        2.90947  -0.00088   0.00000  -0.00292  -0.00292   2.90655
   R15        2.02186   0.01673   0.00000   0.04312   0.04312   2.06498
   R16        2.02321   0.01577   0.00000   0.04075   0.04075   2.06396
   R17        2.02114   0.01521   0.00000   0.03915   0.03915   2.06029
    A1        1.91067  -0.00395   0.00000  -0.02190  -0.02218   1.88850
    A2        1.91198  -0.00594   0.00000  -0.03985  -0.04004   1.87194
    A3        1.91009   0.00543   0.00000   0.02817   0.02793   1.93802
    A4        1.91030  -0.00276   0.00000  -0.01027  -0.01065   1.89965
    A5        1.90977   0.00267   0.00000   0.01825   0.01790   1.92768
    A6        1.91099   0.00456   0.00000   0.02566   0.02536   1.93634
    A7        1.91066  -0.00275   0.00000   0.00389   0.00387   1.91453
    A8        1.91187  -0.00455   0.00000  -0.01463  -0.01436   1.89750
    A9        1.91131   0.01619   0.00000   0.07719   0.07695   1.98825
   A10        1.90946   0.00179   0.00000  -0.01913  -0.01981   1.88964
   A11        1.91004  -0.00579   0.00000  -0.02453  -0.02570   1.88434
   A12        1.91047  -0.00492   0.00000  -0.02290  -0.02327   1.88719
   A13        1.90997   0.00723   0.00000   0.05166   0.05249   1.96246
   A14        1.91004  -0.00419   0.00000  -0.00858  -0.00856   1.90148
   A15        1.91129   0.00741   0.00000   0.03725   0.03801   1.94931
   A16        1.91058   0.00224   0.00000   0.00695   0.00529   1.91587
   A17        1.91068  -0.01233   0.00000  -0.06913  -0.07026   1.84043
   A18        1.91123  -0.00036   0.00000  -0.01808  -0.01864   1.89259
   A19        1.91161  -0.00479   0.00000  -0.02727  -0.02727   1.88434
   A20        1.91015  -0.00424   0.00000  -0.02546  -0.02618   1.88396
   A21        1.91034  -0.00381   0.00000  -0.02328  -0.02387   1.88647
   A22        1.91069   0.00909   0.00000   0.04428   0.04421   1.95490
   A23        1.91086   0.00071   0.00000  -0.01499  -0.01566   1.89521
   A24        1.91097  -0.00057   0.00000   0.01256   0.01287   1.92384
   A25        1.91079  -0.00119   0.00000   0.00688   0.00718   1.91797
   A26        1.91079   0.00254   0.00000   0.01314   0.01301   1.92380
   A27        1.91032   0.00478   0.00000   0.02924   0.02904   1.93936
   A28        1.91125   0.00055   0.00000   0.00249   0.00243   1.91368
   A29        1.90982  -0.00345   0.00000  -0.01831  -0.01856   1.89126
   A30        1.91030  -0.00217   0.00000  -0.01632  -0.01631   1.89399
   A31        1.91131  -0.00226   0.00000  -0.01024  -0.01038   1.90094
    D1        1.04803  -0.00114   0.00000   0.00112   0.00077   1.04880
    D2       -1.04570   0.00114   0.00000   0.03114   0.03120  -1.01450
    D3       -3.14106   0.00000   0.00000   0.02074   0.02096  -3.12011
    D4       -3.14158  -0.00103   0.00000   0.00266   0.00230  -3.13927
    D5        1.04788   0.00125   0.00000   0.03268   0.03273   1.08061
    D6       -1.04748   0.00012   0.00000   0.02228   0.02249  -1.02499
    D7       -1.04790   0.00001   0.00000   0.01693   0.01666  -1.03124
    D8        3.14156   0.00229   0.00000   0.04696   0.04709  -3.09454
    D9        1.04620   0.00116   0.00000   0.03655   0.03685   1.08305
   D10       -1.04645  -0.00430   0.00000  -0.03801  -0.03750  -1.08395
   D11        1.04711   0.00031   0.00000  -0.00320  -0.00318   1.04394
   D12       -3.14090   0.00184   0.00000  -0.00779  -0.00813   3.13415
   D13        1.04803  -0.00130   0.00000  -0.00104  -0.00097   1.04706
   D14        3.14159   0.00331   0.00000   0.03377   0.03336  -3.10824
   D15       -1.04643   0.00484   0.00000   0.02918   0.02840  -1.01802
   D16        3.14052  -0.00564   0.00000  -0.05340  -0.05265   3.08787
   D17       -1.04910  -0.00104   0.00000  -0.01859  -0.01832  -1.06742
   D18        1.04607   0.00050   0.00000  -0.02318  -0.02327   1.02279
   D19        1.04692  -0.00053   0.00000   0.04020   0.04113   1.08805
   D20       -1.04631  -0.00119   0.00000   0.01489   0.01466  -1.03165
   D21       -3.14144   0.00543   0.00000   0.07514   0.07444  -3.06699
   D22       -1.04706   0.00430   0.00000   0.03774   0.03705  -1.01001
   D23        1.04714   0.00025   0.00000  -0.01042  -0.01036   1.03678
   D24        3.14158   0.00202   0.00000   0.01085   0.01058  -3.13102
   D25       -3.14108  -0.00154   0.00000  -0.00599  -0.00555   3.13656
   D26       -1.04688  -0.00559   0.00000  -0.05415  -0.05296  -1.09984
   D27        1.04756  -0.00381   0.00000  -0.03288  -0.03202   1.01554
   D28        1.04738   0.00349   0.00000   0.03898   0.03806   1.08544
   D29        3.14158  -0.00056   0.00000  -0.00917  -0.00935   3.13223
   D30       -1.04717   0.00122   0.00000   0.01210   0.01159  -1.03558
   D31        1.04743  -0.00032   0.00000  -0.00047  -0.00049   1.04694
   D32        3.14074  -0.00006   0.00000   0.00303   0.00311  -3.13934
   D33       -1.04704   0.00044   0.00000   0.00995   0.01004  -1.03700
   D34       -1.04661  -0.00035   0.00000  -0.00410  -0.00438  -1.05099
   D35        1.04669  -0.00009   0.00000  -0.00060  -0.00078   1.04591
   D36       -3.14108   0.00041   0.00000   0.00632   0.00614  -3.13493
   D37        3.14159  -0.00014   0.00000   0.00235   0.00245  -3.13915
   D38       -1.04828   0.00011   0.00000   0.00585   0.00605  -1.04224
   D39        1.04713   0.00062   0.00000   0.01277   0.01297   1.06010
         Item               Value     Threshold  Converged?
 Maximum Force            0.021888     0.000450     NO 
 RMS     Force            0.007222     0.000300     NO 
 Maximum Displacement     0.216580     0.001800     NO 
 RMS     Displacement     0.063235     0.001200     NO 
 Predicted change in Energy=-8.369995D-03
 Lowest energy point so far.  Saving SCF results.
 GradGradGradGradGradGradGradGradGradGradGradGradGradGradGradGradGradGrad

 Leave Link  103 at Tue Feb  8 21:16:52 2022, MaxMem=   536870912 cpu:               0.5 elap:               0.2
 (Enter /opt/gaussian/g16_legacy/l202.exe)
                          Input orientation:                          
 ---------------------------------------------------------------------
 Center     Atomic      Atomic             Coordinates (Angstroms)
 Number     Number       Type             X           Y           Z
 ---------------------------------------------------------------------
      1          6           0       -3.290176    1.040067   -0.040198
      2          1           0       -3.656912    2.067433   -0.055198
      3          1           0       -3.662415    0.531490   -0.933516
      4          1           0       -3.714145    0.557835    0.842400
      5          6           0       -1.749727    1.002873   -0.001909
      6          1           0       -1.391076    1.512244    0.896596
      7          1           0       -1.363866    1.536220   -0.875555
      8          6           0       -1.158765   -0.420253   -0.009356
      9          8           0       -1.546748   -1.173864    1.128722
     10          1           0       -2.502863   -1.268609    1.109609
     11          1           0       -1.482096   -0.936496   -0.925427
     12          6           0        0.364123   -0.397548    0.018897
     13          1           0        0.708565    0.171763   -0.848308
     14          1           0        0.679094    0.125026    0.926429
     15          6           0        0.962187   -1.814414   -0.003412
     16          1           0        0.652782   -2.340848   -0.909622
     17          1           0        2.053641   -1.781227    0.019529
     18          1           0        0.607398   -2.375692    0.861319
 ---------------------------------------------------------------------
                    Distance matrix (angstroms):
                    1          2          3          4          5
     1  C    0.000000
     2  H    1.090963   0.000000
     3  H    1.093266   1.769348   0.000000
     4  H    1.091456   1.757226   1.776865   0.000000
     5  C    1.541374   2.184830   2.179098   2.183999   0.000000
     6  H    2.169589   2.519555   3.077365   2.512068   1.093344
     7  H    2.157467   2.492636   2.509217   3.071225   1.093895
     8  C    2.583874   3.525822   2.833399   2.865678   1.540967
     9  O    3.050804   4.044807   3.411320   2.788973   2.461241
    10  H    2.696647   3.717227   2.959607   2.207828   2.638620
    11  H    2.821274   3.809292   2.628466   3.215630   2.164639
    12  C    3.927357   4.717027   4.240661   4.268862   2.535739
    13  H    4.170962   4.824932   4.386585   4.750569   2.729530
    14  H    4.186499   4.851544   4.740602   4.415306   2.744375
    15  C    5.121719   6.033862   5.268330   5.311407   3.910445
    16  H    5.266252   6.223861   5.183804   5.526482   4.216215
    17  H    6.043149   6.886812   6.239411   6.278191   4.713521
    18  H    5.260345   6.226211   5.468496   5.223186   4.209026
                    6          7          8          9         10
     6  H    0.000000
     7  H    1.772522   0.000000
     8  C    2.146920   2.149455   0.000000
     9  O    2.700610   3.375667   1.419042   0.000000
    10  H    3.002431   3.620119   1.943808   0.960988   0.000000
    11  H    3.053585   2.476043   1.100108   2.068829   2.300790
    12  C    2.738318   2.743255   1.523319   2.342179   3.188731
    13  H    3.041393   2.481421   2.131019   3.287217   4.027577
    14  H    2.492161   3.067947   2.133248   2.585035   3.478595
    15  C    4.173070   4.171079   2.538140   2.826091   3.680121
    16  H    4.720816   4.370319   2.789421   3.217862   3.896805
    17  H    4.845851   4.846234   3.488930   3.816019   4.713044
    18  H    4.371635   4.712289   2.775094   2.481178   3.310741
                   11         12         13         14         15
    11  H    0.000000
    12  C    2.142601   0.000000
    13  H    2.456254   1.093070   0.000000
    14  H    3.037588   1.093574   1.775596   0.000000
    15  C    2.755971   1.538079   2.173263   2.169371   0.000000
    16  H    2.555419   2.172991   2.513979   3.074461   1.092740
    17  H    3.756056   2.183813   2.525182   2.519057   1.092199
    18  H    3.103182   2.163772   3.069623   2.502593   1.090261
                   16         17         18
    16  H    0.000000
    17  H    1.771695   0.000000
    18  H    1.771865   1.775843   0.000000
 Stoichiometry    C5H12O
 Framework group  C1[X(C5H12O)]
 Deg. of freedom    48
 Full point group                 C1      NOp   1
 RotChk:  IX=0 Diff= 3.39D-02
 Largest Abelian subgroup         C1      NOp   1
 Largest concise Abelian subgroup C1      NOp   1
                         Standard orientation:                         
 ---------------------------------------------------------------------
 Center     Atomic      Atomic             Coordinates (Angstroms)
 Number     Number       Type             X           Y           Z
 ---------------------------------------------------------------------
      1          6           0       -2.574157   -0.006578    0.221444
      2          1           0       -3.450874   -0.567802   -0.105046
      3          1           0       -2.608905    0.077794    1.310895
      4          1           0       -2.649295    0.992283   -0.212039
      5          6           0       -1.273501   -0.703864   -0.223438
      6          1           0       -1.250432   -0.779591   -1.313913
      7          1           0       -1.258386   -1.716105    0.190984
      8          6           0        0.009575    0.019092    0.230029
      9          8           0        0.117887    1.324215   -0.316417
     10          1           0       -0.623752    1.843165    0.006322
     11          1           0        0.019498    0.073678    1.328736
     12          6           0        1.262199   -0.717444   -0.227078
     13          1           0        1.222950   -1.731977    0.177869
     14          1           0        1.241723   -0.776866   -1.318844
     15          6           0        2.547544   -0.009969    0.234498
     16          1           0        2.574806    0.050188    1.325240
     17          1           0        3.435911   -0.548494   -0.102689
     18          1           0        2.573703    1.002580   -0.168899
 ---------------------------------------------------------------------
 Rotational constants (GHZ):           7.5393700           1.8886171           1.6436880
 Leave Link  202 at Tue Feb  8 21:16:52 2022, MaxMem=   536870912 cpu:               0.1 elap:               0.0
 (Enter /opt/gaussian/g16_legacy/l301.exe)
 Standard basis: 6-31G(d,p) (6D, 7F)
 Ernie: Thresh=  0.10000D-02 Tol=  0.10000D-05 Strict=F.
 There are   150 symmetry adapted cartesian basis functions of A   symmetry.
 There are   150 symmetry adapted basis functions of A   symmetry.
   150 basis functions,   252 primitive gaussians,   150 cartesian basis functions
    25 alpha electrons       25 beta electrons
       nuclear repulsion energy       258.6743694700 Hartrees.
 IExCor= 4336 DFT=T Ex+Corr=M062X ExCW=0 ScaHFX=  0.540000
 ScaDFX=  1.000000  1.000000  1.000000  1.000000 ScalE2=  1.000000  1.000000
 IRadAn=      5 IRanWt=     -1 IRanGd=            0 ICorTp=0 IEmpDi=  4
 NAtoms=   18 NActive=   18 NUniq=   18 SFac= 1.00D+00 NAtFMM=   60 NAOKFM=F Big=F
 Integral buffers will be    131072 words long.
 Raffenetti 2 integral format.
 Two-electron integral symmetry is turned on.
 Leave Link  301 at Tue Feb  8 21:16:52 2022, MaxMem=   536870912 cpu:               0.3 elap:               0.1
 (Enter /opt/gaussian/g16_legacy/l302.exe)
 NPDir=0 NMtPBC=     1 NCelOv=     1 NCel=       1 NClECP=     1 NCelD=      1
         NCelK=      1 NCelE2=     1 NClLst=     1 CellRange=     0.0.
 One-electron integrals computed using PRISM.
 One-electron integral symmetry used in STVInt
 NBasis=   150 RedAO= T EigKep=  3.18D-03  NBF=   150
 NBsUse=   150 1.00D-06 EigRej= -1.00D+00 NBFU=   150
 Precomputing XC quadrature grid using
 IXCGrd= 4 IRadAn=           5 IRanWt=          -1 IRanGd=           0 AccXCQ= 0.00D+00.
 Generated NRdTot=       0 NPtTot=           0 NUsed=           0 NTot=          32
 NSgBfM=   150   150   150   150   150 MxSgAt=    18 MxSgA2=    18.
 Leave Link  302 at Tue Feb  8 21:16:53 2022, MaxMem=   536870912 cpu:               2.5 elap:               0.7
 (Enter /opt/gaussian/g16_legacy/l303.exe)
 DipDrv:  MaxL=1.
 Leave Link  303 at Tue Feb  8 21:16:53 2022, MaxMem=   536870912 cpu:               0.2 elap:               0.2
 (Enter /opt/gaussian/g16_legacy/l401.exe)
 Initial guess from the checkpoint file:  "Model01_EVOH.chk"
 B after Tr=     0.000000   -0.000000    0.000000
         Rot=    0.999915   -0.006862    0.001900    0.010878 Ang=  -1.49 deg.
 Guess basis will be translated and rotated to current coordinates.
 JPrj=2 DoOrth=T DoCkMO=T.
 Generating alternative initial guess.
 ExpMin= 1.61D-01 ExpMax= 5.48D+03 ExpMxC= 8.25D+02 IAcc=2 IRadAn=         4 AccDes= 0.00D+00
 Harris functional with IExCor= 1009 and IRadAn=       4 diagonalized for initial guess.
 HarFok:  IExCor= 1009 AccDes= 0.00D+00 IRadAn=         4 IDoV= 1 UseB2=F ITyADJ=14
 ICtDFT=  3500011 ScaDFX=  1.000000  1.000000  1.000000  1.000000
 FoFCou: FMM=F IPFlag=           0 FMFlag=      100000 FMFlg1=           0
         NFxFlg=           0 DoJE=T BraDBF=F KetDBF=T FulRan=T
         wScrn=  0.000000 ICntrl=       500 IOpCl=  0 I1Cent=   200000004 NGrid=           0
         NMat0=    1 NMatS0=      1 NMatT0=    0 NMatD0=    1 NMtDS0=    0 NMtDT0=    0
 Petite list used in FoFCou.
 Harris En= -272.821947231475    
 Leave Link  401 at Tue Feb  8 21:16:55 2022, MaxMem=   536870912 cpu:               7.7 elap:               2.0
 (Enter /opt/gaussian/g16_legacy/l502.exe)
 Keep R1 ints in memory in canonical form, NReq=68039519.
 FoFCou: FMM=F IPFlag=           0 FMFlag=           0 FMFlg1=           0
         NFxFlg=           0 DoJE=F BraDBF=F KetDBF=F FulRan=T
         wScrn=  0.000000 ICntrl=       600 IOpCl=  0 I1Cent=           0 NGrid=           0
         NMat0=    1 NMatS0=  11325 NMatT0=    0 NMatD0=    1 NMtDS0=    0 NMtDT0=    0
 Symmetry not used in FoFCou.
 Two-electron integral symmetry not used.
 Closed shell SCF:
 Using DIIS extrapolation, IDIIS=  1040.
 NGot=   536870912 LenX=   472689697 LenY=   472666756
 Requested convergence on RMS density matrix=1.00D-08 within 128 cycles.
 Requested convergence on MAX density matrix=1.00D-06.
 Requested convergence on             energy=1.00D-06.
 No special actions if energy rises.
 Integral accuracy reduced to 1.0D-05 until final iterations.

 Cycle   1  Pass 0  IDiag  1:
 E= -272.850026736241    
 DIIS: error= 2.57D-03 at cycle   1 NSaved=   1.
 NSaved= 1 IEnMin= 1 EnMin= -272.850026736241     IErMin= 1 ErrMin= 2.57D-03
 ErrMax= 2.57D-03  0.00D+00 EMaxC= 1.00D-01 BMatC= 2.85D-03 BMatP= 2.85D-03
 IDIUse=3 WtCom= 9.74D-01 WtEn= 2.57D-02
 Coeff-Com:  0.100D+01
 Coeff-En:   0.100D+01
 Coeff:      0.100D+01
 Gap=     1.952 Goal=   None    Shift=    0.000
 GapD=    1.952 DampG=2.000 DampE=1.000 DampFc=2.0000 IDamp=-1.
 RMSDP=5.14D-04 MaxDP=9.23D-03              OVMax= 1.53D-02

 Cycle   2  Pass 0  IDiag  1:
 E= -272.854488196383     Delta-E=       -0.004461460143 Rises=F Damp=F
 DIIS: error= 7.54D-04 at cycle   2 NSaved=   2.
 NSaved= 2 IEnMin= 2 EnMin= -272.854488196383     IErMin= 2 ErrMin= 7.54D-04
 ErrMax= 7.54D-04  0.00D+00 EMaxC= 1.00D-01 BMatC= 2.01D-04 BMatP= 2.85D-03
 IDIUse=3 WtCom= 9.92D-01 WtEn= 7.54D-03
 Coeff-Com: -0.125D-01 0.101D+01
 Coeff-En:   0.000D+00 0.100D+01
 Coeff:     -0.125D-01 0.101D+01
 Gap=     0.443 Goal=   None    Shift=    0.000
 RMSDP=1.52D-04 MaxDP=3.18D-03 DE=-4.46D-03 OVMax= 4.88D-03

 Cycle   3  Pass 0  IDiag  1:
 E= -272.854671881730     Delta-E=       -0.000183685347 Rises=F Damp=F
 DIIS: error= 6.34D-04 at cycle   3 NSaved=   3.
 NSaved= 3 IEnMin= 3 EnMin= -272.854671881730     IErMin= 3 ErrMin= 6.34D-04
 ErrMax= 6.34D-04  0.00D+00 EMaxC= 1.00D-01 BMatC= 1.01D-04 BMatP= 2.01D-04
 IDIUse=3 WtCom= 9.94D-01 WtEn= 6.34D-03
 Coeff-Com: -0.713D-01 0.436D+00 0.635D+00
 Coeff-En:   0.000D+00 0.000D+00 0.100D+01
 Coeff:     -0.708D-01 0.434D+00 0.637D+00
 Gap=     0.443 Goal=   None    Shift=    0.000
 RMSDP=5.91D-05 MaxDP=1.70D-03 DE=-1.84D-04 OVMax= 1.76D-03

 Cycle   4  Pass 0  IDiag  1:
 E= -272.854776331528     Delta-E=       -0.000104449798 Rises=F Damp=F
 DIIS: error= 4.32D-05 at cycle   4 NSaved=   4.
 NSaved= 4 IEnMin= 4 EnMin= -272.854776331528     IErMin= 4 ErrMin= 4.32D-05
 ErrMax= 4.32D-05  0.00D+00 EMaxC= 1.00D-01 BMatC= 7.62D-07 BMatP= 1.01D-04
 IDIUse=1 WtCom= 1.00D+00 WtEn= 0.00D+00
 Coeff-Com: -0.450D-02-0.120D-01 0.458D-01 0.971D+00
 Coeff:     -0.450D-02-0.120D-01 0.458D-01 0.971D+00
 Gap=     0.443 Goal=   None    Shift=    0.000
 RMSDP=1.14D-05 MaxDP=2.25D-04 DE=-1.04D-04 OVMax= 3.73D-04

 Cycle   5  Pass 0  IDiag  1:
 E= -272.854777482623     Delta-E=       -0.000001151095 Rises=F Damp=F
 DIIS: error= 2.00D-05 at cycle   5 NSaved=   5.
 NSaved= 5 IEnMin= 5 EnMin= -272.854777482623     IErMin= 5 ErrMin= 2.00D-05
 ErrMax= 2.00D-05  0.00D+00 EMaxC= 1.00D-01 BMatC= 1.23D-07 BMatP= 7.62D-07
 IDIUse=1 WtCom= 1.00D+00 WtEn= 0.00D+00
 Coeff-Com:  0.108D-02-0.209D-01-0.995D-02 0.313D+00 0.716D+00
 Coeff:      0.108D-02-0.209D-01-0.995D-02 0.313D+00 0.716D+00
 Gap=     0.443 Goal=   None    Shift=    0.000
 RMSDP=3.18D-06 MaxDP=7.84D-05 DE=-1.15D-06 OVMax= 1.06D-04

 Initial convergence to 1.0D-05 achieved.  Increase integral accuracy.
 Cycle   6  Pass 1  IDiag  1:
 E= -272.854832501538     Delta-E=       -0.000055018914 Rises=F Damp=F
 DIIS: error= 1.32D-05 at cycle   1 NSaved=   1.
 NSaved= 1 IEnMin= 1 EnMin= -272.854832501538     IErMin= 1 ErrMin= 1.32D-05
 ErrMax= 1.32D-05  0.00D+00 EMaxC= 1.00D-01 BMatC= 6.66D-08 BMatP= 6.66D-08
 IDIUse=1 WtCom= 1.00D+00 WtEn= 0.00D+00
 Coeff-Com:  0.100D+01
 Coeff:      0.100D+01
 Gap=     0.443 Goal=   None    Shift=    0.000
 RMSDP=3.18D-06 MaxDP=7.84D-05 DE=-5.50D-05 OVMax= 6.47D-05

 Cycle   7  Pass 1  IDiag  1:
 E= -272.854832547330     Delta-E=       -0.000000045792 Rises=F Damp=F
 DIIS: error= 1.06D-05 at cycle   2 NSaved=   2.
 NSaved= 2 IEnMin= 2 EnMin= -272.854832547330     IErMin= 2 ErrMin= 1.06D-05
 ErrMax= 1.06D-05  0.00D+00 EMaxC= 1.00D-01 BMatC= 2.59D-08 BMatP= 6.66D-08
 IDIUse=1 WtCom= 1.00D+00 WtEn= 0.00D+00
 Coeff-Com:  0.343D+00 0.657D+00
 Coeff:      0.343D+00 0.657D+00
 Gap=     0.443 Goal=   None    Shift=    0.000
 RMSDP=1.17D-06 MaxDP=3.88D-05 DE=-4.58D-08 OVMax= 3.28D-05

 Cycle   8  Pass 1  IDiag  1:
 E= -272.854832565525     Delta-E=       -0.000000018195 Rises=F Damp=F
 DIIS: error= 4.31D-06 at cycle   3 NSaved=   3.
 NSaved= 3 IEnMin= 3 EnMin= -272.854832565525     IErMin= 3 ErrMin= 4.31D-06
 ErrMax= 4.31D-06  0.00D+00 EMaxC= 1.00D-01 BMatC= 4.39D-09 BMatP= 2.59D-08
 IDIUse=1 WtCom= 1.00D+00 WtEn= 0.00D+00
 Coeff-Com: -0.394D-01 0.273D+00 0.766D+00
 Coeff:     -0.394D-01 0.273D+00 0.766D+00
 Gap=     0.443 Goal=   None    Shift=    0.000
 RMSDP=3.91D-07 MaxDP=1.33D-05 DE=-1.82D-08 OVMax= 1.38D-05

 Cycle   9  Pass 1  IDiag  1:
 E= -272.854832569039     Delta-E=       -0.000000003513 Rises=F Damp=F
 DIIS: error= 7.19D-07 at cycle   4 NSaved=   4.
 NSaved= 4 IEnMin= 4 EnMin= -272.854832569039     IErMin= 4 ErrMin= 7.19D-07
 ErrMax= 7.19D-07  0.00D+00 EMaxC= 1.00D-01 BMatC= 1.15D-10 BMatP= 4.39D-09
 IDIUse=1 WtCom= 1.00D+00 WtEn= 0.00D+00
 Coeff-Com: -0.217D-01 0.849D-01 0.281D+00 0.656D+00
 Coeff:     -0.217D-01 0.849D-01 0.281D+00 0.656D+00
 Gap=     0.443 Goal=   None    Shift=    0.000
 RMSDP=8.40D-08 MaxDP=1.95D-06 DE=-3.51D-09 OVMax= 2.91D-06

 Cycle  10  Pass 1  IDiag  1:
 E= -272.854832569155     Delta-E=       -0.000000000117 Rises=F Damp=F
 DIIS: error= 1.57D-07 at cycle   5 NSaved=   5.
 NSaved= 5 IEnMin= 5 EnMin= -272.854832569155     IErMin= 5 ErrMin= 1.57D-07
 ErrMax= 1.57D-07  0.00D+00 EMaxC= 1.00D-01 BMatC= 8.62D-12 BMatP= 1.15D-10
 IDIUse=1 WtCom= 1.00D+00 WtEn= 0.00D+00
 Coeff-Com:  0.197D-02-0.268D-01-0.628D-01 0.137D+00 0.950D+00
 Coeff:      0.197D-02-0.268D-01-0.628D-01 0.137D+00 0.950D+00
 Gap=     0.443 Goal=   None    Shift=    0.000
 RMSDP=4.16D-08 MaxDP=1.38D-06 DE=-1.17D-10 OVMax= 2.18D-06

 Cycle  11  Pass 1  IDiag  1:
 E= -272.854832569166     Delta-E=       -0.000000000011 Rises=F Damp=F
 DIIS: error= 3.98D-08 at cycle   6 NSaved=   6.
 NSaved= 6 IEnMin= 6 EnMin= -272.854832569166     IErMin= 6 ErrMin= 3.98D-08
 ErrMax= 3.98D-08  0.00D+00 EMaxC= 1.00D-01 BMatC= 3.86D-13 BMatP= 8.62D-12
 IDIUse=1 WtCom= 1.00D+00 WtEn= 0.00D+00
 Coeff-Com:  0.153D-02-0.975D-02-0.270D-01-0.683D-02 0.184D+00 0.858D+00
 Coeff:      0.153D-02-0.975D-02-0.270D-01-0.683D-02 0.184D+00 0.858D+00
 Gap=     0.443 Goal=   None    Shift=    0.000
 RMSDP=8.87D-09 MaxDP=3.50D-07 DE=-1.06D-11 OVMax= 4.95D-07

 SCF Done:  E(RM062X) =  -272.854832569     A.U. after   11 cycles
            NFock= 11  Conv=0.89D-08     -V/T= 2.0087
 KE= 2.704909356455D+02 PE=-1.151432902189D+03 EE= 3.494127645039D+02
 Leave Link  502 at Tue Feb  8 21:18:01 2022, MaxMem=   536870912 cpu:             258.7 elap:              66.2
 (Enter /opt/gaussian/g16_legacy/l701.exe)
 ... and contract with generalized density number  0.
 Compute integral first derivatives.
 Leave Link  701 at Tue Feb  8 21:18:02 2022, MaxMem=   536870912 cpu:               1.1 elap:               0.5
 (Enter /opt/gaussian/g16_legacy/l702.exe)
 L702 exits ... SP integral derivatives will be done elsewhere.
 Leave Link  702 at Tue Feb  8 21:18:02 2022, MaxMem=   536870912 cpu:               0.1 elap:               0.1
 (Enter /opt/gaussian/g16_legacy/l703.exe)
 Integral derivatives from FoFJK, PRISM(SPDF).
 Compute integral first derivatives, UseDBF=F ICtDFT=           0.
 Calling FoFJK, ICntrl=      2127 FMM=F ISym2X=0 I1Cent= 0 IOpClX= 0 NMat=1 NMatS=1 NMatT=0.
 FoFJK:  IHMeth= 1 ICntrl=    2127 DoSepK=F KAlg= 0 I1Cent=           0 FoldK=F
 IRaf=         0 NMat=       1 IRICut=       1 DoRegI=T DoRafI=F ISym2E= 0 IDoP0=0 IntGTp=1.
 FoFCou: FMM=F IPFlag=           0 FMFlag=      100000 FMFlg1=         800
         NFxFlg=           0 DoJE=F BraDBF=F KetDBF=F FulRan=T
         wScrn=  0.000000 ICntrl=      2127 IOpCl=  0 I1Cent=           0 NGrid=           0
         NMat0=    1 NMatS0=      1 NMatT0=    0 NMatD0=    1 NMtDS0=    0 NMtDT0=    0
 Symmetry not used in FoFCou.
 Leave Link  703 at Tue Feb  8 21:18:17 2022, MaxMem=   536870912 cpu:              59.6 elap:              15.0
 (Enter /opt/gaussian/g16_legacy/l716.exe)
 Dipole        =-5.13788041D-01-1.60830223D-01 3.15333177D-01
 ***** Axes restored to original set *****
 -------------------------------------------------------------------
 Center     Atomic                   Forces (Hartrees/Bohr)
 Number     Number              X              Y              Z
 -------------------------------------------------------------------
      1        6           0.010028690   -0.001723809   -0.000167396
      2        1          -0.000272384    0.000555607   -0.000217321
      3        1          -0.001374685   -0.000544040   -0.000160462
      4        1          -0.001519000   -0.001129604    0.001366407
      5        6          -0.006471921   -0.007010697   -0.000216188
      6        1           0.001212936    0.001344990    0.000689927
      7        1           0.001789804    0.001205962   -0.000021429
      8        6           0.002265019    0.004949510    0.003536790
      9        8          -0.002730103    0.003227701    0.000064250
     10        1          -0.002540483   -0.001114943    0.000558026
     11        1          -0.001625635   -0.000857933   -0.002626591
     12        6           0.000065461   -0.007878727   -0.002989901
     13        1           0.002268774    0.002009833   -0.000096849
     14        1           0.000814136    0.001776886    0.000500201
     15        6          -0.002276944    0.007590095    0.000776256
     16        1           0.000106320   -0.001307731   -0.000652401
     17        1           0.000198203   -0.000158507   -0.000251351
     18        1           0.000061810   -0.000934594   -0.000091968
 -------------------------------------------------------------------
 Cartesian Forces:  Max     0.010028690 RMS     0.002855480
 Leave Link  716 at Tue Feb  8 21:18:17 2022, MaxMem=   536870912 cpu:               0.1 elap:               0.0
 (Enter /opt/gaussian/g16_legacy/l103.exe)

 GradGradGradGradGradGradGradGradGradGradGradGradGradGradGradGradGradGrad
 Berny optimization.
 Using GEDIIS/GDIIS optimizer.
 FormGI is forming the generalized inverse of G from B-inverse, IUseBI=4.
[...]
    10  H    2.662465   3.710727   2.814478   2.216469   2.677614
    11  H    2.800625   3.777599   2.593534   3.232488   2.152336
    12  C    3.897972   4.704409   4.221306   4.225920   2.532109
    13  H    4.158317   4.811855   4.421102   4.723284   2.710786
    14  H    4.155432   4.854995   4.719017   4.341825   2.759408
    15  C    5.079856   6.004414   5.214867   5.275962   3.895647
    16  H    5.250543   6.202645   5.157218   5.542988   4.207526
    17  H    6.005186   6.864780   6.204086   6.230584   4.702002
    18  H    5.208902   6.199249   5.374050   5.178663   4.207377
                    6          7          8          9         10
     6  H    0.000000
     7  H    1.765265   0.000000
     8  C    2.141712   2.145993   0.000000
     9  O    2.703755   3.362307   1.420974   0.000000
    10  H    3.111828   3.639732   1.951199   0.962762   0.000000
    11  H    3.049651   2.457031   1.105134   2.073318   2.254531
    12  C    2.718642   2.765737   1.522373   2.360498   3.197262
    13  H    2.968454   2.489285   2.140902   3.308088   4.044404
    14  H    2.490392   3.128123   2.129418   2.577104   3.500108
    15  C    4.162670   4.161649   2.535156   2.884606   3.676790
    16  H    4.715294   4.343918   2.811522   3.316644   3.911924
    17  H    4.823728   4.852788   3.486999   3.859221   4.707236
    18  H    4.402619   4.714342   2.767385   2.541804   3.297516
                   11         12         13         14         15
    11  H    0.000000
    12  C    2.147242   0.000000
    13  H    2.498238   1.096149   0.000000
    14  H    3.041426   1.096774   1.764046   0.000000
    15  C    2.740741   1.525234   2.168786   2.163104   0.000000
    16  H    2.563904   2.170872   2.517760   3.076647   1.094889
    17  H    3.754325   2.175691   2.525209   2.505397   1.092708
    18  H    3.060386   2.158745   3.070906   2.513557   1.091644
                   16         17         18
    16  H    0.000000
    17  H    1.768406   0.000000
    18  H    1.769051   1.774090   0.000000
 Stoichiometry    C5H12O
 Framework group  C1[X(C5H12O)]
 Deg. of freedom    48
 Full point group                 C1      NOp   1
 RotChk:  IX=0 Diff= 1.13D-15
 Largest Abelian subgroup         C1      NOp   1
 Largest concise Abelian subgroup C1      NOp   1
                         Standard orientation:                         
 ---------------------------------------------------------------------
 Center     Atomic      Atomic             Coordinates (Angstroms)
 Number     Number       Type             X           Y           Z
 ---------------------------------------------------------------------
      1          6           0       -2.534900   -0.009734    0.210756
      2          1           0       -3.422879   -0.592123   -0.044757
      3          1           0       -2.560107    0.178721    1.289878
      4          1           0       -2.617212    0.950475   -0.307454
      5          6           0       -1.254790   -0.737584   -0.190845
      6          1           0       -1.229950   -0.874358   -1.278465
      7          1           0       -1.234392   -1.735597    0.262447
      8          6           0        0.009735    0.012575    0.226016
      9          8           0        0.040222    1.317923   -0.334612
     10          1           0       -0.633292    1.850517    0.100857
     11          1           0        0.031270    0.080408    1.328855
     12          6           0        1.276384   -0.690847   -0.241338
     13          1           0        1.250273   -1.728490    0.111023
     14          1           0        1.255056   -0.721664   -1.337471
     15          6           0        2.544852    0.006839    0.238831
     16          1           0        2.594341    0.015191    1.332569
     17          1           0        3.440652   -0.495985   -0.133622
     18          1           0        2.556779    1.042026   -0.107479
 ---------------------------------------------------------------------
 Rotational constants (GHZ):           7.5333460           1.9133550           1.6622208
 Leave Link  202 at Tue Feb  8 21:28:35 2022, MaxMem=   536870912 cpu:               0.1 elap:               0.0
 (Enter /opt/gaussian/g16_legacy/l601.exe)
 Copying SCF densities to generalized density rwf, IOpCl= 0 IROHF=0.

 **********************************************************************

            Population analysis using the SCF density.

 **********************************************************************

 Orbital symmetries:
       Occupied  (A) (A) (A) (A) (A) (A) (A) (A) (A) (A) (A) (A)
                 (A) (A) (A) (A) (A) (A) (A) (A) (A) (A) (A) (A)
                 (A)
       Virtual   (A) (A) (A) (A) (A) (A) (A) (A) (A) (A) (A) (A)
                 (A) (A) (A) (A) (A) (A) (A) (A) (A) (A) (A) (A)
                 (A) (A) (A) (A) (A) (A) (A) (A) (A) (A) (A) (A)
                 (A) (A) (A) (A) (A) (A) (A) (A) (A) (A) (A) (A)
                 (A) (A) (A) (A) (A) (A) (A) (A) (A) (A) (A) (A)
                 (A) (A) (A) (A) (A) (A) (A) (A) (A) (A) (A) (A)
                 (A) (A) (A) (A) (A) (A) (A) (A) (A) (A) (A) (A)
                 (A) (A) (A) (A) (A) (A) (A) (A) (A) (A) (A) (A)
                 (A) (A) (A) (A) (A) (A) (A) (A) (A) (A) (A) (A)
                 (A) (A) (A) (A) (A) (A) (A) (A) (A) (A) (A) (A)
                 (A) (A) (A) (A) (A)
 The electronic state is 1-A.
 Alpha  occ. eigenvalues --  -19.62798 -10.58750 -10.53797 -10.53705 -10.53288
 Alpha  occ. eigenvalues --  -10.52252  -1.13407  -0.88828  -0.84842  -0.76309
 Alpha  occ. eigenvalues --   -0.68310  -0.65075  -0.59371  -0.53274  -0.50168
 Alpha  occ. eigenvalues --   -0.48284  -0.47995  -0.45904  -0.42909  -0.41647
 Alpha  occ. eigenvalues --   -0.40330  -0.39876  -0.39092  -0.36583  -0.33082
 Alpha virt. eigenvalues --    0.11327   0.15619   0.16791   0.17390   0.19005
 Alpha virt. eigenvalues --    0.20042   0.21753   0.22266   0.22817   0.23974
 Alpha virt. eigenvalues --    0.24865   0.26416   0.26517   0.30106   0.30792
 Alpha virt. eigenvalues --    0.32078   0.33077   0.53463   0.56435   0.58286
 Alpha virt. eigenvalues --    0.59834   0.60603   0.63368   0.65276   0.68803
 Alpha virt. eigenvalues --    0.70597   0.73814   0.74362   0.80323   0.84128
 Alpha virt. eigenvalues --    0.84529   0.86312   0.89859   0.92356   0.93057
 Alpha virt. eigenvalues --    0.94360   0.96004   0.98024   0.98099   0.98831
 Alpha virt. eigenvalues --    0.99862   1.00454   1.02859   1.03686   1.04372
 Alpha virt. eigenvalues --    1.10039   1.17155   1.22110   1.31621   1.34760
 Alpha virt. eigenvalues --    1.37983   1.41305   1.47760   1.56014   1.60995
 Alpha virt. eigenvalues --    1.63664   1.65527   1.67954   1.72188   1.74188
 Alpha virt. eigenvalues --    1.76511   1.84367   1.84824   1.90302   1.92097
 Alpha virt. eigenvalues --    1.95468   1.99289   2.04842   2.08995   2.10173
 Alpha virt. eigenvalues --    2.11318   2.11911   2.12983   2.14943   2.16714
 Alpha virt. eigenvalues --    2.17376   2.18933   2.20553   2.27140   2.29265
 Alpha virt. eigenvalues --    2.30925   2.33120   2.34956   2.39079   2.43744
 Alpha virt. eigenvalues --    2.45108   2.47142   2.48035   2.52847   2.60222
 Alpha virt. eigenvalues --    2.63452   2.66829   2.68724   2.71624   2.74465
 Alpha virt. eigenvalues --    2.75134   2.78511   2.78786   2.83287   2.87531
 Alpha virt. eigenvalues --    2.88656   2.90452   2.92326   2.93069   2.95652
 Alpha virt. eigenvalues --    2.99951   3.03397   3.17259   3.20201   3.27362
 Alpha virt. eigenvalues --    3.29161   3.33605   3.38973   3.44336   3.45553
 Alpha virt. eigenvalues --    3.48493   3.50094   3.53748   3.56072   3.96929
 Alpha virt. eigenvalues --    4.34388   4.42494   4.54227   4.64198   4.75563
          Condensed to atoms (all electrons):
               1          2          3          4          5          6
     1  C    4.993738   0.390964   0.388694   0.384028   0.344937  -0.039640
     2  H    0.390964   0.563346  -0.028207  -0.027403  -0.027376  -0.002512
     3  H    0.388694  -0.028207   0.593205  -0.032875  -0.039621   0.005121
     4  H    0.384028  -0.027403  -0.032875   0.592775  -0.037283  -0.004486
     5  C    0.344937  -0.027376  -0.039621  -0.037283   5.038184   0.385742
     6  H   -0.039640  -0.002512   0.005121  -0.004486   0.385742   0.597013
     7  H   -0.036399  -0.003580  -0.003763   0.005613   0.369138  -0.030896
     8  C   -0.040195   0.003942  -0.003746  -0.007488   0.364236  -0.035353
     9  O   -0.003538   0.000202  -0.000524   0.007125  -0.058629   0.000161
    10  H    0.006171  -0.000131   0.000182   0.002235  -0.006117  -0.000365
    11  H   -0.006256  -0.000043   0.005149   0.000578  -0.063698   0.006572
    12  C    0.005006  -0.000107   0.000043   0.000046  -0.054393  -0.007210
    13  H    0.000049  -0.000003   0.000002   0.000001  -0.001569   0.000007
    14  H   -0.000033   0.000001   0.000008   0.000028  -0.008782   0.005601
    15  C   -0.000170   0.000001  -0.000000  -0.000004   0.005398   0.000018
    16  H   -0.000001   0.000000  -0.000001   0.000000   0.000031   0.000008
    17  H    0.000002  -0.000000   0.000000  -0.000000  -0.000116  -0.000000
    18  H   -0.000003   0.000000   0.000000  -0.000002   0.000335   0.000006
               7          8          9         10         11         12
     1  C   -0.036399  -0.040195  -0.003538   0.006171  -0.006256   0.005006
     2  H   -0.003580   0.003942   0.000202  -0.000131  -0.000043  -0.000107
     3  H   -0.003763  -0.003746  -0.000524   0.000182   0.005149   0.000043
     4  H    0.005613  -0.007488   0.007125   0.002235   0.000578   0.000046
     5  C    0.369138   0.364236  -0.058629  -0.006117  -0.063698  -0.054393
     6  H   -0.030896  -0.035353   0.000161  -0.000365   0.006572  -0.007210
     7  H    0.617664  -0.030831   0.003794  -0.000081  -0.000083  -0.002494
     8  C   -0.030831   4.758729   0.221152  -0.024091   0.385228   0.386198
     9  O    0.003794   0.221152   8.207680   0.290873  -0.041433  -0.064398
    10  H   -0.000081  -0.024091   0.290873   0.404750  -0.007051   0.007194
    11  H   -0.000083   0.385228  -0.041433  -0.007051   0.685809  -0.048963
    12  C   -0.002494   0.386198  -0.064398   0.007194  -0.048963   4.970640
    13  H    0.002523  -0.038765   0.003416  -0.000278  -0.001087   0.385514
    14  H    0.000233  -0.034994  -0.000374  -0.000140   0.006767   0.385493
    15  C   -0.000124  -0.041877  -0.003064   0.000142  -0.007606   0.355047
    16  H    0.000004  -0.004674  -0.000253  -0.000047   0.005075  -0.038289
    17  H   -0.000004   0.004271   0.000123   0.000009  -0.000045  -0.029760
    18  H   -0.000010  -0.008435   0.009642  -0.000518   0.000078  -0.035428
              13         14         15         16         17         18
     1  C    0.000049  -0.000033  -0.000170  -0.000001   0.000002  -0.000003
     2  H   -0.000003   0.000001   0.000001   0.000000  -0.000000   0.000000
     3  H    0.000002   0.000008  -0.000000  -0.000001   0.000000   0.000000
     4  H    0.000001   0.000028  -0.000004   0.000000  -0.000000  -0.000002
     5  C   -0.001569  -0.008782   0.005398   0.000031  -0.000116   0.000335
     6  H    0.000007   0.005601   0.000018   0.000008  -0.000000   0.000006
     7  H    0.002523   0.000233  -0.000124   0.000004  -0.000004  -0.000010
     8  C   -0.038765  -0.034994  -0.041877  -0.004674   0.004271  -0.008435
     9  O    0.003416  -0.000374  -0.003064  -0.000253   0.000123   0.009642
    10  H   -0.000278  -0.000140   0.000142  -0.000047   0.000009  -0.000518
    11  H   -0.001087   0.006767  -0.007606   0.005075  -0.000045   0.000078
    12  C    0.385514   0.385493   0.355047  -0.038289  -0.029760  -0.035428
    13  H    0.613051  -0.031480  -0.036359  -0.004415  -0.003103   0.004907
    14  H   -0.031480   0.597228  -0.038337   0.005021  -0.003527  -0.003682
    15  C   -0.036359  -0.038337   4.958961   0.390031   0.388010   0.395473
    16  H   -0.004415   0.005021   0.390031   0.596515  -0.030476  -0.028909
    17  H   -0.003103  -0.003527   0.388010  -0.030476   0.586381  -0.028123
    18  H    0.004907  -0.003682   0.395473  -0.028909  -0.028123   0.549378
 Mulliken charges:
               1
     1  C   -0.387354
     2  H    0.130906
     3  H    0.116333
     4  H    0.117112
     5  C   -0.210418
     6  H    0.120213
     7  H    0.109296
     8  C    0.146692
     9  O   -0.571957
    10  H    0.327263
    11  H    0.081007
    12  C   -0.214140
    13  H    0.107590
    14  H    0.120970
    15  C   -0.365541
    16  H    0.110379
    17  H    0.116358
    18  H    0.145290
 Sum of Mulliken charges =  -0.00000
 Mulliken charges with hydrogens summed into heavy atoms:
               1
     1  C   -0.023003
     5  C    0.019091
     8  C    0.227699
     9  O   -0.244694
    12  C    0.014420
    15  C    0.006486
 Electronic spatial extent (au):  <R**2>=            794.9257
 Charge=              0.0000 electrons
 Dipole moment (field-independent basis, Debye):
    X=             -1.0953    Y=             -0.3786    Z=              0.9735  Tot=              1.5135
 Quadrupole moment (field-independent basis, Debye-Ang):
   XX=            -39.1544   YY=            -38.8107   ZZ=            -40.0386
   XY=             -2.0231   XZ=             -0.2595   YZ=              1.5857
 Traceless Quadrupole moment (field-independent basis, Debye-Ang):
   XX=              0.1802   YY=              0.5239   ZZ=             -0.7040
   XY=             -2.0231   XZ=             -0.2595   YZ=              1.5857
 Octapole moment (field-independent basis, Debye-Ang**2):
  XXX=             -1.8917  YYY=             10.8310  ZZZ=             -0.8194  XYY=             -4.6543
  XXY=              1.7498  XXZ=             -2.1165  XZZ=             -0.0721  YZZ=              1.2390
  YYZ=              2.1985  XYZ=             -0.2536
 Hexadecapole moment (field-independent basis, Debye-Ang**3):
 XXXX=           -800.6351 YYYY=           -168.8402 ZZZZ=            -88.4669 XXXY=              1.5608
 XXXZ=             -1.0948 YYYX=             -8.8662 YYYZ=             -0.2003 ZZZX=             -0.2336
 ZZZY=              0.4359 XXYY=           -160.5630 XXZZ=           -149.3723 YYZZ=            -47.7858
 XXYZ=             -0.1668 YYXZ=             -0.5742 ZZXY=             -0.5948
 N-N= 2.594514641756D+02 E-N=-1.153006116613D+03  KE= 2.705109251979D+02
 No NMR shielding tensors so no spin-rotation constants.
 Leave Link  601 at Tue Feb  8 21:28:36 2022, MaxMem=   536870912 cpu:               1.7 elap:               0.6
 (Enter /opt/gaussian/g16_legacy/l602.exe)
 FitSet:  NAtFit=    18 NAtPot=    18 NAtFrz=     0 MDM=    22 TotChg=   0.00000
 Merz-Kollman atomic radii used.

 **********************************************************************

            Electrostatic Properties Using The SCF Density

 **********************************************************************

       Atomic Center    1 is at  -2.534900 -0.009734  0.210756
       Atomic Center    2 is at  -3.422879 -0.592123 -0.044757
       Atomic Center    3 is at  -2.560107  0.178721  1.289878
       Atomic Center    4 is at  -2.617212  0.950475 -0.307454
       Atomic Center    5 is at  -1.254790 -0.737584 -0.190845
       Atomic Center    6 is at  -1.229950 -0.874358 -1.278465
       Atomic Center    7 is at  -1.234392 -1.735597  0.262447
       Atomic Center    8 is at   0.009735  0.012575  0.226016
       Atomic Center    9 is at   0.040222  1.317923 -0.334612
       Atomic Center   10 is at  -0.633292  1.850517  0.100857
       Atomic Center   11 is at   0.031270  0.080408  1.328855
       Atomic Center   12 is at   1.276384 -0.690847 -0.241338
       Atomic Center   13 is at   1.250273 -1.728490  0.111023
       Atomic Center   14 is at   1.255056 -0.721664 -1.337471
       Atomic Center   15 is at   2.544852  0.006839  0.238831
       Atomic Center   16 is at   2.594341  0.015191  1.332569
       Atomic Center   17 is at   3.440652 -0.495985 -0.133622
       Atomic Center   18 is at   2.556779  1.042026 -0.107479
     785 points will be used for fitting atomic charges
 Fitting point charges to electrostatic potential
 Charges from ESP fit, RMS=   0.00151 RRMS=   0.15418:
 ESP charges:
               1
     1  C   -0.163311
     2  H    0.061067
     3  H    0.035827
     4  H    0.044386
     5  C   -0.072980
     6  H    0.036127
     7  H    0.025248
     8  C    0.232578
     9  O   -0.591283
    10  H    0.380199
    11  H    0.004798
    12  C   -0.013162
    13  H    0.003807
    14  H    0.047836
    15  C   -0.189159
    16  H    0.043085
    17  H    0.053246
    18  H    0.061689
 Sum of ESP charges =  -0.00000
 ESP charges with hydrogens summed into heavy atoms:
               1
     1  C   -0.022030
     5  C   -0.011606
     8  C    0.237377
     9  O   -0.211083
    12  C    0.038481
    15  C   -0.031138
 Charge=  -0.00000 Dipole=    -1.1037    -0.3589     0.9752 Tot=     1.5159
 -----------------------------------------------------------------

              Electrostatic Properties (Atomic Units)

 -----------------------------------------------------------------
    Center     Electric         -------- Electric Field --------
               Potential          X             Y             Z
 -----------------------------------------------------------------
    1 Atom    -14.743249
    2 Atom     -1.120839
    3 Atom     -1.119934
    4 Atom     -1.120574
    5 Atom    -14.744948
    6 Atom     -1.129697
    7 Atom     -1.125380
    8 Atom    -14.691953
    9 Atom    -22.318289
   10 Atom     -1.008688
   11 Atom     -1.131451
   12 Atom    -14.748847
   13 Atom     -1.130116
   14 Atom     -1.134308
   15 Atom    -14.758575
   16 Atom     -1.135212
   17 Atom     -1.134951
   18 Atom     -1.140307
 -----------------------------------------------------------------
 Leave Link  602 at Tue Feb  8 21:28:36 2022, MaxMem=   536870912 cpu:               0.8 elap:               0.4
 (Enter /opt/gaussian/g16_legacy/l9999.exe)
 1\1\GINC-TRUENO47\FOpt\RM062X\6-31G(d,p)\C5H12O1\JRAMOS\08-Feb-2022\0\
 \#p opt 6-31g(d,p) pop=mk geom=connectivity m062x\\EVOH model CC(O)CC\
 \0,1\C,-3.266494835,1.023963041,-0.0134744741\H,-3.6577733263,2.040622
 6876,-0.0926996589\H,-3.6782662885,0.4434148675,-0.8465794588\H,-3.648
 4624697,0.6018582978,0.921001435\C,-1.7403581736,1.0095064237,-0.03413
 93348\H,-1.3511651525,1.5568351938,0.8325787644\H,-1.3738749604,1.5205
 415276,-0.9321673351\C,-1.1601767142,-0.4040712759,-0.0072427497\O,-1.
 6008569997,-1.1177852048,1.1397444281\H,-2.5376758693,-1.3128642994,1.
 0337995119\H,-1.482082498,-0.934084475,-0.9220012126\C,0.3614254651,-0
 .4006077976,0.0410830128\H,0.736178252,0.2074877948,-0.7903751379\H,0.
 6639838642,0.0999065426,0.9689065693\C,0.9522612034,-1.8057074655,-0.0
 132088635\H,0.6845580704,-2.3046570301,-0.9503136989\H,2.0426125067,-1
 .7815738371,0.054341587\H,0.5651679253,-2.406784991,0.811746616\\Versi
 on=EM64L-G16RevA.03\State=1-A\HF=-272.8556481\RMSD=6.310e-09\RMSF=6.22
 2e-06\Dipole=-0.3950066,0.1817373,-0.4068524\Quadrupole=1.7398493,-0.4
 161623,-1.3236871,1.0254374,-0.4003937,0.472548\PG=C01 [X(C5H12O1)]\\@


 WE HAVE SEEN THAT MAN ON THE AVERAGE DOES NOT LIVE ABOVE
 TWO-AND-TWENTY YEARS.  DURING THESE TWO AND TWENTY
 YEARS HE IS LIABLE TO TWO AND TWENTY THOUSAND EVILS,
 MANY OF WHICH ARE INCURABLE.  YET EVEN IN THIS DREADFUL STATE
 MEN STILL STRUT AND POSE ON THE STAGE OF LIFE.
 THEY MAKE LOVE AT THE RISK OF DESTRUCTION,
 INTRIGUE, CARRY ON WAR, AND FORM PROJECTS, JUST AS IF THEY
 WERE TO LIVE IN LUXURY AND HAPPINESS FOR A THOUSAND
 AGES.

                                              -- VOLTAIRE
 Job cpu time:       0 days  0 hours 51 minutes 43.4 seconds.
 Elapsed time:       0 days  0 hours 13 minutes 16.9 seconds.
 File lengths (MBytes):  RWF=     15 Int=      0 D2E=      0 Chk=      3 Scr=      1
 Normal termination of Gaussian 16 at Tue Feb  8 21:28:36 2022.
