 Copyright (c) 1988-2019, Gaussian, Inc.  All Rights Reserved.
  
 This is part of the Gaussian(R) 16 program.  It is based on
 the Gaussian(R) 09 system (copyright 2009, Gaussian, Inc.),
 the Gaussian(R) 03 system (copyright 2003, Gaussian, Inc.),
 the Gaussian(R) 98 system (copyright 1998, Gaussian, Inc.),
 the Gaussian(R) 94 system (copyright 1995, Gaussian, Inc.),
 the Gaussian 92(TM) system (copyright 1992, Gaussian, Inc.),
 the Gaussian 90(TM) system (copyright 1990, Gaussian, Inc.),
 the Gaussian 88(TM) system (copyright 1988, Gaussian, Inc.),
 the Gaussian 86(TM) system (copyright 1986, Carnegie Mellon
 University), and the Gaussian 82(TM) system (copyright 1983,
 Carnegie Mellon University). Gaussian is a federally registered
 trademark of Gaussian, Inc.
 Cite this work as:
 Gaussian 16, Revision C.01,
 M. J. Frisch, G. W. Trucks, H. B. Schlegel, G. E. Scuseria, 
 M. A. Robb, J. R. Cheeseman, G. Scalmani, V. Barone, 
 G. A. Petersson, H. Nakatsuji, X. Li, M. Caricato, A. V. Marenich, 
 J. Bloino, B. G. Janesko, R. Gomperts, B. Mennucci, H. P. Hratchian, 
 J. V. Ortiz, A. F. Izmaylov, J. L. Sonnenberg, D. Williams-Young, 
 F. Ding, F. Lipparini, F. Egidi, J. Goings, B. Peng, A. Petrone, 
 T. Henderson, D. Ranasinghe, V. G. Zakrzewski, J. Gao, N. Rega, 
 G. Zheng, W. Liang, M. Hada, M. Ehara, K. Toyota, R. Fukuda, 
 J. Hasegawa, M. Ishida, T. Nakajima, Y. Honda, O. Kitao, H. Nakai, 
 T. Vreven, K. Throssell, J. A. Montgomery, Jr., J. E. Peralta, 
 F. Ogliaro, M. J. Bearpark, J. J. Heyd, E. N. Brothers, K. N. Kudin, 
 V. N. Staroverov, T. A. Keith, R. Kobayashi, J. Normand, 
 K. Raghavachari, A. P. Rendell, J. C. Burant, S. S. Iyengar, 
 J. Tomasi, M. Cossi, J. M. Millam, M. Klene, C. Adamo, R. Cammi, 
 J. W. Ochterski, R. L. Martin, K. Morokuma, O. Farkas, 
 J. B. Foresman, and D. J. Fox, Gaussian, Inc., Wallingford CT, 2019.
 
 ******************************************
 Gaussian 16:  EM64L-G16RevC.01  3-Jul-2019
                 8-Jul-2023 
 ******************************************
 ----------------------------------------------------------------------
 #P HF/6-31G(d) Opt=(Tight,MaxCycle=55) GFInput GFPrint SCF(Conver=8,XQ
 C,MaxConventionalCycles=64,MaxCycle=128) Test
 ----------------------------------------------------------------------
 1/6=55,7=10,18=20,19=15,38=1/1,3;
 2/9=110,12=2,17=6,18=5,40=1/2;
 3/5=1,6=6,7=1,11=9,24=110,25=1,30=1,71=1/1,2,3;
 4//1;
 5/5=2,6=8,7=128,8=3,13=1,38=5,85=64/2,8;
 6/7=2,8=2,9=2,10=2,28=1/1;
 7//1,2,3,16;
 1/6=55,7=10,18=20,19=15/3(2);
 2/9=110/2;
 99//99;
 2/9=110/2;
 3/5=1,6=6,7=1,11=9,25=1,30=1,71=1/1,2,3;
 4/5=5,16=3,69=1/1;
 5/5=2,6=8,7=128,8=3,13=1,38=5,85=64/2,8;
 7//1,2,3,16;
 1/6=55,7=10,18=20,19=15/3(-5);
 2/9=110/2;
 6/7=2,8=2,9=2,10=2,19=2,28=1/1;
 99/9=1/99;
 ----------------------------------------------------------
 Optimization step - Input generated by PyRED DVE-DMDS-OPLS
 ----------------------------------------------------------
 Symbolic Z-matrix:
 Charge =  0 Multiplicity = 1
 C                     8.42361   3.02806  -0.78716 
 H                     9.23369   2.68875  -0.15039 
 H                     8.61713   2.68312  -1.79715 
 H                     8.43726   4.1139   -0.78735 
 C                     7.06858   2.52376  -0.30821 
 H                     6.88124   2.85011   0.71334 
 H                     6.28509   2.93628  -0.93107 
 O                     6.93142   1.13224  -0.39816 
 C                     7.58343   0.38093   0.58217 
 H                     7.34248   0.75758   1.57426 
 H                     8.66383   0.43086   0.45631 
 C                     7.15233  -1.06871   0.48174 
 H                     7.28205  -1.41537  -0.54031 
 H                     7.79677  -1.66093   1.12217 
 O                     5.84568  -1.29219   0.92126 
 C                     4.8222   -1.15923  -0.02574 
 H                     5.02619  -1.77417  -0.89915 
 H                     4.71522  -0.1343   -0.35436 
 C                     3.54575  -1.63107   0.63889 
 H                     3.34474  -1.02683   1.52093 
 H                     3.65659  -2.66385   0.96129 
 O                     2.51046  -1.50932  -0.29229 
 C                     1.25644  -1.9015    0.17505 
 H                     0.96926  -1.30048   1.03586 
 H                     1.27147  -2.94133   0.49307 
 C                     0.26764  -1.72001  -0.96535 
 H                     0.54922  -2.36218  -1.78973 
 H                     0.30401  -0.70092  -1.32734 
 S                    -1.43589  -2.17421  -0.52351 
 C                    -2.04221  -0.67114   0.30846 
 H                    -2.87502  -0.994     0.91835 
 H                    -1.28565  -0.29615   0.98483 
 C                    -2.48082   0.4221   -0.66458 
 H                    -3.25414   0.05452  -1.32675 
 H                    -1.64932   0.72414  -1.28701 
 S                    -3.07828   1.93575   0.16399 
 C                    -4.88858   1.79334   0.02711 
 H                    -5.1451    1.61217  -1.00882 
 H                    -5.263     2.77631   0.28164 
 C                    -5.52026   0.75112   0.94649 
 H                    -5.1678   -0.24586   0.71242 
 H                    -5.24762   0.95648   1.97353 
 S                    -7.33829   0.74647   0.90973 
 C                    -7.67708  -0.1179   -0.65598 
 H                    -7.28392   0.45641  -1.48555 
 H                    -7.17215  -1.07694  -0.64134 
 C                    -9.18082  -0.31588  -0.82698 
 H                    -9.59179  -0.90869  -0.01764 
 H                    -9.70112   0.63531  -0.84887 
 H                    -9.38219  -0.83116  -1.76044 
 
 ITRead=  0  0  0  0  0  0  0  0  0  0  0  0  0  0  0  0  0  0  0  0
 ITRead=  0  0  0  0  0  0  0  0  0  0  0  0  0  0  0  0  0  0  0  0
 ITRead=  0  0  0  0  0  0  0  0  0  0
 MicOpt= -1 -1 -1 -1 -1 -1 -1 -1 -1 -1 -1 -1 -1 -1 -1 -1 -1 -1 -1 -1
 MicOpt= -1 -1 -1 -1 -1 -1 -1 -1 -1 -1 -1 -1 -1 -1 -1 -1 -1 -1 -1 -1
 MicOpt= -1 -1 -1 -1 -1 -1 -1 -1 -1 -1
 NAtoms=     50 NQM=       50 NQMF=       0 NMMI=      0 NMMIF=      0
                NMic=       0 NMicF=      0.
                          Input orientation:                          
 ---------------------------------------------------------------------
 Center     Atomic      Atomic             Coordinates (Angstroms)
 Number     Number       Type             X           Y           Z
 ---------------------------------------------------------------------
      1          6           0        8.423610    3.028055   -0.787163
      2          1           0        9.233689    2.688749   -0.150394
      3          1           0        8.617134    2.683123   -1.797150
      4          1           0        8.437262    4.113905   -0.787347
      5          6           0        7.068579    2.523764   -0.308208
      6          1           0        6.881240    2.850108    0.713343
      7          1           0        6.285094    2.936277   -0.931069
      8          8           0        6.931421    1.132243   -0.398164
      9          6           0        7.583429    0.380926    0.582171
     10          1           0        7.342480    0.757582    1.574260
     11          1           0        8.663829    0.430864    0.456311
     12          6           0        7.152326   -1.068711    0.481741
     13          1           0        7.282053   -1.415368   -0.540306
     14          1           0        7.796772   -1.660930    1.122174
     15          8           0        5.845682   -1.292195    0.921256
     16          6           0        4.822201   -1.159234   -0.025743
     17          1           0        5.026188   -1.774174   -0.899148
     18          1           0        4.715216   -0.134296   -0.354360
     19          6           0        3.545748   -1.631065    0.638892
     20          1           0        3.344737   -1.026825    1.520928
     21          1           0        3.656587   -2.663847    0.961289
     22          8           0        2.510464   -1.509316   -0.292289
     23          6           0        1.256444   -1.901500    0.175052
     24          1           0        0.969258   -1.300481    1.035858
     25          1           0        1.271471   -2.941326    0.493074
     26          6           0        0.267641   -1.720013   -0.965351
     27          1           0        0.549217   -2.362177   -1.789733
     28          1           0        0.304007   -0.700921   -1.327343
     29         16           0       -1.435886   -2.174210   -0.523505
     30          6           0       -2.042213   -0.671143    0.308464
     31          1           0       -2.875018   -0.993999    0.918353
     32          1           0       -1.285651   -0.296148    0.984828
     33          6           0       -2.480818    0.422096   -0.664576
     34          1           0       -3.254140    0.054515   -1.326748
     35          1           0       -1.649317    0.724136   -1.287014
     36         16           0       -3.078276    1.935749    0.163987
     37          6           0       -4.888583    1.793337    0.027109
     38          1           0       -5.145103    1.612171   -1.008815
     39          1           0       -5.262995    2.776314    0.281637
     40          6           0       -5.520255    0.751124    0.946486
     41          1           0       -5.167797   -0.245857    0.712416
     42          1           0       -5.247623    0.956479    1.973526
     43         16           0       -7.338290    0.746472    0.909728
     44          6           0       -7.677078   -0.117897   -0.655984
     45          1           0       -7.283921    0.456410   -1.485554
     46          1           0       -7.172153   -1.076939   -0.641335
     47          6           0       -9.180818   -0.315878   -0.826975
     48          1           0       -9.591786   -0.908688   -0.017636
     49          1           0       -9.701121    0.635309   -0.848871
     50          1           0       -9.382187   -0.831160   -1.760435
 ---------------------------------------------------------------------
 Stoichiometry    C14H30O3S3
 Framework group  C1[X(C14H30O3S3)]
                         Standard orientation:                         
 ---------------------------------------------------------------------
 Center     Atomic      Atomic             Coordinates (Angstroms)
 Number     Number       Type             X           Y           Z
 ---------------------------------------------------------------------
      1          6           0       -8.423610    3.028055    0.787163
      2          1           0       -9.233689    2.688749    0.150394
      3          1           0       -8.617134    2.683123    1.797150
      4          1           0       -8.437262    4.113905    0.787347
      5          6           0       -7.068579    2.523764    0.308208
      6          1           0       -6.881240    2.850108   -0.713343
      7          1           0       -6.285094    2.936277    0.931069
      8          8           0       -6.931421    1.132243    0.398164
      9          6           0       -7.583429    0.380926   -0.582171
     10          1           0       -7.342480    0.757582   -1.574260
     11          1           0       -8.663829    0.430864   -0.456311
     12          6           0       -7.152326   -1.068711   -0.481741
     13          1           0       -7.282053   -1.415368    0.540306
     14          1           0       -7.796772   -1.660930   -1.122174
     15          8           0       -5.845682   -1.292195   -0.921256
     16          6           0       -4.822201   -1.159234    0.025743
     17          1           0       -5.026188   -1.774174    0.899148
     18          1           0       -4.715216   -0.134296    0.354360
     19          6           0       -3.545748   -1.631065   -0.638892
     20          1           0       -3.344737   -1.026825   -1.520928
     21          1           0       -3.656587   -2.663847   -0.961289
     22          8           0       -2.510464   -1.509316    0.292289
     23          6           0       -1.256444   -1.901500   -0.175052
     24          1           0       -0.969258   -1.300481   -1.035858
     25          1           0       -1.271471   -2.941326   -0.493074
     26          6           0       -0.267641   -1.720013    0.965351
     27          1           0       -0.549217   -2.362177    1.789733
     28          1           0       -0.304007   -0.700921    1.327343
     29         16           0        1.435886   -2.174210    0.523505
     30          6           0        2.042213   -0.671143   -0.308464
     31          1           0        2.875018   -0.993999   -0.918353
     32          1           0        1.285651   -0.296148   -0.984828
     33          6           0        2.480818    0.422096    0.664576
     34          1           0        3.254140    0.054515    1.326748
     35          1           0        1.649317    0.724136    1.287014
     36         16           0        3.078276    1.935749   -0.163987
     37          6           0        4.888583    1.793337   -0.027109
     38          1           0        5.145103    1.612171    1.008815
     39          1           0        5.262995    2.776314   -0.281637
     40          6           0        5.520255    0.751124   -0.946486
     41          1           0        5.167797   -0.245857   -0.712416
     42          1           0        5.247623    0.956479   -1.973526
     43         16           0        7.338290    0.746472   -0.909728
     44          6           0        7.677078   -0.117897    0.655984
     45          1           0        7.283921    0.456410    1.485554
     46          1           0        7.172153   -1.076939    0.641335
     47          6           0        9.180818   -0.315878    0.826975
     48          1           0        9.591786   -0.908688    0.017636
     49          1           0        9.701121    0.635309    0.848871
     50          1           0        9.382187   -0.831160    1.760435
 ---------------------------------------------------------------------
 Standard basis: 6-31G(d) (6D, 7F)
   372 basis functions,   752 primitive gaussians,   372 cartesian basis functions
    93 alpha electrons       93 beta electrons
 Requested convergence on RMS density matrix=1.00D-08 within  64 cycles.
 Requested convergence on MAX density matrix=1.00D-06.
 Requested convergence on             energy=1.00D-06.
 SCF Done:  E(RHF) =  -1964.69613928     A.U. after   13 cycles
            NFock= 13  Conv=0.50D-08     -V/T= 2.0006
 Mulliken charges:
     1  C   -0.505927
     2  H    0.162182
     3  H    0.175071
     4  H    0.161414
     5  C    0.015044
     6  H    0.142348
     7  H    0.173094
     8  O   -0.627757
     9  C    0.007640
    10  H    0.151120
    11  H    0.137088
    12  C    0.004386
    13  H    0.156366
    14  H    0.168239
    15  O   -0.647501
    16  C    0.012192
    17  H    0.148465
    18  H    0.182548
    19  C    0.012341
    20  H    0.151335
    21  H    0.151316
    22  O   -0.642396
    23  C    0.040289
    24  H    0.143770
    25  H    0.157707
    26  C   -0.494554
    27  H    0.213767
    28  H    0.203385
    29  S    0.106202
    30  C   -0.472123
    31  H    0.206295
    32  H    0.208486
    33  C   -0.476964
    34  H    0.203749
    35  H    0.207731
    36  S    0.116579
    37  C   -0.470681
    38  H    0.195758
    39  H    0.218462
    40  C   -0.479558
    41  H    0.190479
    42  H    0.216665
    43  S    0.120855
    44  C   -0.459286
    45  H    0.186625
    46  H    0.187241
    47  C   -0.495912
    48  H    0.182208
    49  H    0.180347
    50  H    0.173865
 Sum of Mulliken charges =  -0.00000
 Dipole moment (field-independent basis, Debye):
    X=             -1.9255    Y=              0.3092    Z=              0.9553  Tot=              2.1716
 Quadrupole moment (field-independent basis, Debye-Ang):
   XX=           -128.8297   YY=           -152.9262   ZZ=           -150.8109
   XY=            -10.4876   XZ=             13.8114   YZ=              0.2519
 Traceless Quadrupole moment (field-independent basis, Debye-Ang):
   XX=             15.3592   YY=             -8.7373   ZZ=             -6.6219
   XY=            -10.4876   XZ=             13.8114   YZ=              0.2519
 Octapole moment (field-independent basis, Debye-Ang**2):
  XXX=           -297.3179  YYY=              6.4486  ZZZ=              3.3549  XYY=            -74.1261
  XXY=             -0.1667  XXZ=             75.1370  XZZ=            -20.3064  YZZ=              1.2016
  YYZ=              1.7941  XYZ=             12.8951
 Hexadecapole moment (field-independent basis, Debye-Ang**3):
 XXXX=         -25926.0089 YYYY=          -2454.9915 ZZZZ=           -606.2781 XXXY=           -607.1663
 XXXZ=           1027.6339 YYYX=            -60.8405 YYYZ=             -3.7145 ZZZX=             13.3608
 ZZZY=             -2.3119 XXYY=          -4911.6812 XXZZ=          -4824.4323 YYZZ=           -513.3106
 XXYZ=            -18.7772 YYXZ=            -27.9516 ZZXY=              2.6478
 Step number   1 out of a maximum of   55
     Eigenvalues ---    0.00230   0.00230   0.00230   0.00230   0.00230
     Eigenvalues ---    0.00230   0.00397   0.00414   0.00418   0.00460
     Eigenvalues ---    0.00498   0.00558   0.00574   0.01677   0.01682
     Eigenvalues ---    0.01721   0.01736   0.01737   0.01764   0.04354
     Eigenvalues ---    0.04480   0.04509   0.04510   0.04576   0.04796
     Eigenvalues ---    0.04886   0.04960   0.05327   0.05453   0.05492
     Eigenvalues ---    0.05519   0.05530   0.05585   0.05623   0.05633
     Eigenvalues ---    0.05634   0.05645   0.05675   0.05726   0.05792
     Eigenvalues ---    0.05823   0.05829   0.05938   0.06058   0.06068
     Eigenvalues ---    0.06086   0.06153   0.11049   0.11051   0.11172
     Eigenvalues ---    0.11228   0.11288   0.11474   0.11553   0.11561
     Eigenvalues ---    0.11623   0.11749   0.11804   0.11890   0.13584
     Eigenvalues ---    0.13645   0.13658   0.13662   0.13785   0.13925
     Eigenvalues ---    0.13928   0.13934   0.13958   0.14037   0.14072
     Eigenvalues ---    0.14075   0.16000   0.16000   0.16000   0.16000
     Eigenvalues ---    0.16000   0.16000   0.21946   0.21965   0.21973
     Eigenvalues ---    0.22005   0.22010   0.22019   0.22027   0.22036
     Eigenvalues ---    0.22038   0.22045   0.22050   0.22094   0.24164
     Eigenvalues ---    0.24471   0.24526   0.24583   0.24718   0.24781
     Eigenvalues ---    0.25000   0.25000   0.25000   0.25000   0.25000
     Eigenvalues ---    0.25000   0.29622   0.29741   0.29765   0.30070
     Eigenvalues ---    0.30342   0.30783   0.30903   0.34946   0.34969
     Eigenvalues ---    0.34994   0.35022   0.35058   0.35092   0.35106
     Eigenvalues ---    0.35106   0.35161   0.35287   0.35387   0.35418
     Eigenvalues ---    0.35436   0.35453   0.35466   0.35499   0.35522
     Eigenvalues ---    0.35629   0.35651   0.35685   0.35696   0.35705
     Eigenvalues ---    0.35721   0.35724   0.35727   0.35744   0.35768
     Eigenvalues ---    0.35791   0.35798   0.35807   0.45430   0.45502
     Eigenvalues ---    0.45994   0.46179   0.46192   0.46535
 Maximum Force            0.000009     0.000015     YES
 RMS     Force            0.000001     0.000010     YES
 Maximum Displacement     0.001635     0.000060     NO 
 RMS     Displacement     0.000414     0.000040     NO 
                          Input orientation:                          
 ---------------------------------------------------------------------
 Center     Atomic      Atomic             Coordinates (Angstroms)
 Number     Number       Type             X           Y           Z
 ---------------------------------------------------------------------
      1          6           0        8.423697    3.028250   -0.786817
      2          1           0        9.233792    2.688732   -0.150183
      3          1           0        8.617128    2.683547   -1.796897
      4          1           0        8.437425    4.114098   -0.786742
      5          6           0        7.068663    2.523930   -0.307899
      6          1           0        6.881402    2.850073    0.713728
      7          1           0        6.285169    2.936607   -0.930636
      8          8           0        6.931429    1.132439   -0.398124
      9          6           0        7.583430    0.380919    0.582046
     10          1           0        7.342510    0.757378    1.574214
     11          1           0        8.663828    0.430853    0.456175
     12          6           0        7.152285   -1.068689    0.481346
     13          1           0        7.281949   -1.415150   -0.540775
     14          1           0        7.796775   -1.661022    1.121622
     15          8           0        5.845677   -1.292269    0.920912
     16          6           0        4.822096   -1.159199   -0.025965
     17          1           0        5.026019   -1.774013   -0.899474
     18          1           0        4.715024   -0.134225   -0.354424
     19          6           0        3.545729   -1.631184    0.638729
     20          1           0        3.344782   -1.027066    1.520861
     21          1           0        3.656667   -2.663997    0.960980
     22          8           0        2.510338   -1.509381   -0.292328
     23          6           0        1.256382   -1.901673    0.175090
     24          1           0        0.969234   -1.300746    1.035971
     25          1           0        1.271484   -2.941527    0.493010
     26          6           0        0.267458   -1.720139   -0.965201
     27          1           0        0.548963   -2.362238   -1.789655
     28          1           0        0.303742   -0.701019   -1.327118
     29         16           0       -1.435998   -2.174431   -0.523194
     30          6           0       -2.042361   -0.671304    0.308629
     31          1           0       -2.875332   -0.994062    0.918341
     32          1           0       -1.285899   -0.296369    0.985136
     33          6           0       -2.480621    0.421945   -0.664546
     34          1           0       -3.253846    0.054417   -1.326858
     35          1           0       -1.648952    0.723852   -1.286824
     36         16           0       -3.078065    1.935706    0.163822
     37          6           0       -4.888361    1.793467    0.026681
     38          1           0       -5.144726    1.611951   -1.009218
     39          1           0       -5.262687    2.776584    0.280787
     40          6           0       -5.520314    0.751671    0.946336
     41          1           0       -5.167986   -0.245445    0.712657
     42          1           0       -5.247785    0.957344    1.973337
     43         16           0       -7.338344    0.747301    0.909357
     44          6           0       -7.677077   -0.118071   -0.655810
     45          1           0       -7.283788    0.455643   -1.485724
     46          1           0       -7.172261   -1.077158   -0.640477
     47          6           0       -9.180823   -0.316009   -0.826800
     48          1           0       -9.591926   -0.908217   -0.017092
     49          1           0       -9.701019    0.635218   -0.849399
     50          1           0       -9.382154   -0.831911   -1.759923
 ---------------------------------------------------------------------
 Stoichiometry    C14H30O3S3
 Framework group  C1[X(C14H30O3S3)]
                         Standard orientation:                         
 ---------------------------------------------------------------------
 Center     Atomic      Atomic             Coordinates (Angstroms)
 Number     Number       Type             X           Y           Z
 ---------------------------------------------------------------------
      1          6           0       -8.423679    3.028257    0.786783
      2          1           0       -9.233776    2.688745    0.150149
      3          1           0       -8.617112    2.683555    1.796864
      4          1           0       -8.437400    4.114105    0.786708
      5          6           0       -7.068648    2.523928    0.307866
      6          1           0       -6.881384    2.850070   -0.713762
      7          1           0       -6.285151    2.936600    0.930602
      8          8           0       -6.931423    1.132437    0.398090
      9          6           0       -7.583430    0.380920   -0.582079
     10          1           0       -7.342507    0.757378   -1.574248
     11          1           0       -8.663827    0.430862   -0.456208
     12          6           0       -7.152294   -1.068690   -0.481379
     13          1           0       -7.281961   -1.415151    0.540741
     14          1           0       -7.796788   -1.661019   -1.121656
     15          8           0       -5.845687   -1.292279   -0.920946
     16          6           0       -4.822105   -1.159216    0.025932
     17          1           0       -5.026033   -1.774028    0.899440
     18          1           0       -4.715027   -0.134243    0.354390
     19          6           0       -3.545742   -1.631209   -0.638763
     20          1           0       -3.344791   -1.027093   -1.520895
     21          1           0       -3.656686   -2.664022   -0.961014
     22          8           0       -2.510350   -1.509413    0.292294
     23          6           0       -1.256396   -1.901714   -0.175124
     24          1           0       -0.969245   -1.300789   -1.036005
     25          1           0       -1.271505   -2.941568   -0.493043
     26          6           0       -0.267471   -1.720187    0.965167
     27          1           0       -0.548981   -2.362283    1.789622
     28          1           0       -0.303749   -0.701066    1.327085
     29         16           0        1.435982   -2.174490    0.523160
     30          6           0        2.042355   -0.671367   -0.308662
     31          1           0        2.875324   -0.994130   -0.918375
     32          1           0        1.285895   -0.296427   -0.985170
     33          6           0        2.480622    0.421879    0.664513
     34          1           0        3.253845    0.054346    1.326825
     35          1           0        1.648955    0.723791    1.286791
     36         16           0        3.078076    1.935636   -0.163855
     37          6           0        4.888372    1.793385   -0.026714
     38          1           0        5.144734    1.611868    1.009184
     39          1           0        5.262704    2.776499   -0.280821
     40          6           0        5.520318    0.751585   -0.946369
     41          1           0        5.167982   -0.245529   -0.712691
     42          1           0        5.247790    0.957260   -1.973371
     43         16           0        7.338348    0.747203   -0.909391
     44          6           0        7.677075   -0.118172    0.655776
     45          1           0        7.283790    0.455545    1.485690
     46          1           0        7.172251   -1.077255    0.640444
     47          6           0        9.180819   -0.316119    0.826766
     48          1           0        9.591918   -0.908331    0.017058
     49          1           0        9.701022    0.635103    0.849365
     50          1           0        9.382147   -0.832024    1.759889
 ---------------------------------------------------------------------
 Standard basis: 6-31G(d) (6D, 7F)
   372 basis functions,   752 primitive gaussians,   372 cartesian basis functions
    93 alpha electrons       93 beta electrons
 Requested convergence on RMS density matrix=1.00D-08 within  64 cycles.
 Requested convergence on MAX density matrix=1.00D-06.
 Requested convergence on             energy=1.00D-06.
 SCF Done:  E(RHF) =  -1964.69613928     A.U. after    7 cycles
            NFock=  7  Conv=0.44D-08     -V/T= 2.0006
 Step number   2 out of a maximum of   55
     Eigenvalues ---    0.00221   0.00230   0.00230   0.00230   0.00230
     Eigenvalues ---    0.00393   0.00405   0.00417   0.00454   0.00493
     Eigenvalues ---    0.00500   0.00573   0.00590   0.01652   0.01683
     Eigenvalues ---    0.01706   0.01728   0.01752   0.01768   0.04358
     Eigenvalues ---    0.04483   0.04508   0.04562   0.04655   0.04797
     Eigenvalues ---    0.04959   0.05128   0.05332   0.05452   0.05492
     Eigenvalues ---    0.05519   0.05530   0.05592   0.05604   0.05630
     Eigenvalues ---    0.05642   0.05676   0.05698   0.05727   0.05789
     Eigenvalues ---    0.05825   0.05840   0.05936   0.06065   0.06071
     Eigenvalues ---    0.06094   0.06153   0.10948   0.11051   0.11108
     Eigenvalues ---    0.11193   0.11288   0.11478   0.11554   0.11599
     Eigenvalues ---    0.11644   0.11757   0.11778   0.11887   0.13576
     Eigenvalues ---    0.13637   0.13660   0.13668   0.13754   0.13850
     Eigenvalues ---    0.13928   0.13943   0.13960   0.14031   0.14072
     Eigenvalues ---    0.14127   0.15966   0.16000   0.16000   0.16000
     Eigenvalues ---    0.16000   0.16006   0.21170   0.21951   0.21967
     Eigenvalues ---    0.21986   0.22010   0.22022   0.22026   0.22033
     Eigenvalues ---    0.22044   0.22048   0.22058   0.23103   0.24115
     Eigenvalues ---    0.24491   0.24523   0.24581   0.24718   0.24776
     Eigenvalues ---    0.24820   0.25000   0.25000   0.25000   0.25000
     Eigenvalues ---    0.26474   0.29678   0.29743   0.29808   0.30080
     Eigenvalues ---    0.30350   0.30815   0.30904   0.34807   0.34953
     Eigenvalues ---    0.34980   0.35006   0.35035   0.35067   0.35104
     Eigenvalues ---    0.35106   0.35160   0.35278   0.35323   0.35393
     Eigenvalues ---    0.35423   0.35443   0.35464   0.35492   0.35519
     Eigenvalues ---    0.35585   0.35644   0.35664   0.35692   0.35703
     Eigenvalues ---    0.35715   0.35723   0.35726   0.35749   0.35770
     Eigenvalues ---    0.35783   0.35806   0.35971   0.44987   0.45618
     Eigenvalues ---    0.45718   0.46015   0.46463   0.46641
 Maximum Force            0.000006     0.000015     YES
 RMS     Force            0.000001     0.000010     YES
 Maximum Displacement     0.001855     0.000060     NO 
 RMS     Displacement     0.000417     0.000040     NO 
                          Input orientation:                          
 ---------------------------------------------------------------------
 Center     Atomic      Atomic             Coordinates (Angstroms)
 Number     Number       Type             X           Y           Z
 ---------------------------------------------------------------------
      1          6           0        8.423900    3.028086   -0.786681
      2          1           0        9.233926    2.688592   -0.149948
      3          1           0        8.617409    2.683298   -1.796717
      4          1           0        8.437663    4.113933   -0.786690
      5          6           0        7.068806    2.523847   -0.307845
      6          1           0        6.881457    2.850092    0.713733
      7          1           0        6.285384    2.936487   -0.930696
      8          8           0        6.931543    1.132352   -0.397952
      9          6           0        7.583413    0.380908    0.582360
     10          1           0        7.342380    0.757457    1.574467
     11          1           0        8.663827    0.430806    0.456618
     12          6           0        7.152249   -1.068699    0.481739
     13          1           0        7.282030   -1.415253   -0.540335
     14          1           0        7.796645   -1.660991    1.122149
     15          8           0        5.845580   -1.292199    0.921156
     16          6           0        4.822126   -1.159178   -0.025864
     17          1           0        5.026139   -1.774078   -0.899291
     18          1           0        4.715133   -0.134230   -0.354426
     19          6           0        3.545659   -1.631058    0.638713
     20          1           0        3.344620   -1.026849    1.520760
     21          1           0        3.656526   -2.663843    0.961076
     22          8           0        2.510390   -1.509313   -0.292487
     23          6           0        1.256359   -1.901507    0.174813
     24          1           0        0.969117   -1.300469    1.035584
     25          1           0        1.271383   -2.941325    0.492855
     26          6           0        0.267588   -1.720074   -0.965626
     27          1           0        0.549168   -2.362284   -1.789968
     28          1           0        0.303961   -0.701000   -1.327661
     29         16           0       -1.435940   -2.174237   -0.523761
     30          6           0       -2.042260   -0.671062    0.308006
     31          1           0       -2.875081   -0.993829    0.917920
     32          1           0       -1.285697   -0.295981    0.984320
     33          6           0       -2.480829    0.422030   -0.665205
     34          1           0       -3.254162    0.054348   -1.327305
     35          1           0       -1.649324    0.723943   -1.287699
     36         16           0       -3.078233    1.935839    0.163100
     37          6           0       -4.888550    1.793363    0.026473
     38          1           0       -5.145183    1.611776   -1.009346
     39          1           0       -5.262934    2.776439    0.280649
     40          6           0       -5.520106    0.751513    0.946340
     41          1           0       -5.167720   -0.245563    0.712580
     42          1           0       -5.247307    0.957242    1.973258
     43         16           0       -7.338146    0.746912    0.909866
     44          6           0       -7.677191   -0.118141   -0.655410
     45          1           0       -7.284096    0.455758   -1.485287
     46          1           0       -7.172345   -1.077217   -0.640385
     47          6           0       -9.180969   -0.316086   -0.826119
     48          1           0       -9.591881   -0.908469   -0.016443
     49          1           0       -9.701196    0.635130   -0.848417
     50          1           0       -9.382483   -0.831807   -1.759303
 ---------------------------------------------------------------------
 Stoichiometry    C14H30O3S3
 Framework group  C1[X(C14H30O3S3)]
                         Standard orientation:                         
 ---------------------------------------------------------------------
 Center     Atomic      Atomic             Coordinates (Angstroms)
 Number     Number       Type             X           Y           Z
 ---------------------------------------------------------------------
      1          6           0       -8.423893    3.028033    0.786591
      2          1           0       -9.233920    2.688539    0.149858
      3          1           0       -8.617403    2.683245    1.796627
      4          1           0       -8.437658    4.113881    0.786600
      5          6           0       -7.068799    2.523795    0.307755
      6          1           0       -6.881451    2.850040   -0.713823
      7          1           0       -6.285378    2.936436    0.930606
      8          8           0       -6.931535    1.132301    0.397861
      9          6           0       -7.583405    0.380856   -0.582450
     10          1           0       -7.342372    0.757405   -1.574557
     11          1           0       -8.663819    0.430753   -0.456708
     12          6           0       -7.152240   -1.068750   -0.481829
     13          1           0       -7.282021   -1.415304    0.540245
     14          1           0       -7.796635   -1.661042   -1.122239
     15          8           0       -5.845570   -1.292250   -0.921247
     16          6           0       -4.822117   -1.159228    0.025774
     17          1           0       -5.026130   -1.774128    0.899201
     18          1           0       -4.715125   -0.134279    0.354336
     19          6           0       -3.545650   -1.631108   -0.638803
     20          1           0       -3.344612   -1.026898   -1.520850
     21          1           0       -3.656516   -2.663893   -0.961166
     22          8           0       -2.510380   -1.509362    0.292396
     23          6           0       -1.256350   -1.901555   -0.174903
     24          1           0       -0.969108   -1.300517   -1.035674
     25          1           0       -1.271373   -2.941372   -0.492945
     26          6           0       -0.267578   -1.720121    0.965536
     27          1           0       -0.549158   -2.362331    1.789878
     28          1           0       -0.303952   -0.701047    1.327571
     29         16           0        1.435949   -2.174283    0.523671
     30          6           0        2.042269   -0.671108   -0.308097
     31          1           0        2.875089   -0.993874   -0.918010
     32          1           0        1.285705   -0.296027   -0.984410
     33          6           0        2.480837    0.421985    0.665115
     34          1           0        3.254170    0.054304    1.327215
     35          1           0        1.649332    0.723897    1.287608
     36         16           0        3.078240    1.935794   -0.163191
     37          6           0        4.888557    1.793320   -0.026563
     38          1           0        5.145190    1.611732    1.009256
     39          1           0        5.262941    2.776395   -0.280739
     40          6           0        5.520114    0.751470   -0.946430
     41          1           0        5.167728   -0.245606   -0.712670
     42          1           0        5.247314    0.957199   -1.973348
     43         16           0        7.338154    0.746870   -0.909956
     44          6           0        7.677200   -0.118183    0.655320
     45          1           0        7.284104    0.455716    1.485197
     46          1           0        7.172354   -1.077259    0.640295
     47          6           0        9.180977   -0.316127    0.826029
     48          1           0        9.591890   -0.908509    0.016353
     49          1           0        9.701204    0.635089    0.848327
     50          1           0        9.382491   -0.831848    1.759213
 ---------------------------------------------------------------------
 Standard basis: 6-31G(d) (6D, 7F)
   372 basis functions,   752 primitive gaussians,   372 cartesian basis functions
    93 alpha electrons       93 beta electrons
 Requested convergence on RMS density matrix=1.00D-08 within  64 cycles.
 Requested convergence on MAX density matrix=1.00D-06.
 Requested convergence on             energy=1.00D-06.
 SCF Done:  E(RHF) =  -1964.69613928     A.U. after    6 cycles
            NFock=  6  Conv=0.83D-08     -V/T= 2.0006
 Step number   3 out of a maximum of   55
     Eigenvalues ---    0.00226   0.00230   0.00230   0.00230   0.00256
     Eigenvalues ---    0.00367   0.00401   0.00417   0.00449   0.00493
     Eigenvalues ---    0.00569   0.00571   0.00663   0.01540   0.01683
     Eigenvalues ---    0.01699   0.01728   0.01755   0.01773   0.04356
     Eigenvalues ---    0.04449   0.04512   0.04555   0.04797   0.04932
     Eigenvalues ---    0.04981   0.05092   0.05303   0.05454   0.05494
     Eigenvalues ---    0.05521   0.05530   0.05582   0.05620   0.05633
     Eigenvalues ---    0.05669   0.05678   0.05716   0.05731   0.05796
     Eigenvalues ---    0.05823   0.05864   0.05940   0.06064   0.06073
     Eigenvalues ---    0.06101   0.06147   0.10996   0.11084   0.11092
     Eigenvalues ---    0.11199   0.11293   0.11485   0.11559   0.11610
     Eigenvalues ---    0.11635   0.11756   0.11783   0.11878   0.13606
     Eigenvalues ---    0.13637   0.13662   0.13665   0.13807   0.13884
     Eigenvalues ---    0.13939   0.13959   0.14000   0.14062   0.14073
     Eigenvalues ---    0.14251   0.15970   0.16000   0.16000   0.16000
     Eigenvalues ---    0.16003   0.16035   0.20285   0.21951   0.21968
     Eigenvalues ---    0.21988   0.22010   0.22026   0.22033   0.22034
     Eigenvalues ---    0.22046   0.22053   0.22846   0.23211   0.24102
     Eigenvalues ---    0.24485   0.24550   0.24583   0.24702   0.24729
     Eigenvalues ---    0.24803   0.25000   0.25000   0.25000   0.25538
     Eigenvalues ---    0.28177   0.29709   0.29759   0.30043   0.30217
     Eigenvalues ---    0.30621   0.30822   0.30899   0.34944   0.34975
     Eigenvalues ---    0.34981   0.35029   0.35065   0.35096   0.35106
     Eigenvalues ---    0.35124   0.35165   0.35284   0.35389   0.35408
     Eigenvalues ---    0.35439   0.35452   0.35490   0.35516   0.35533
     Eigenvalues ---    0.35589   0.35651   0.35680   0.35692   0.35708
     Eigenvalues ---    0.35715   0.35723   0.35726   0.35756   0.35776
     Eigenvalues ---    0.35800   0.35914   0.36669   0.44581   0.45612
     Eigenvalues ---    0.45709   0.46039   0.46493   0.47581
 Maximum Force            0.000004     0.000015     YES
 RMS     Force            0.000001     0.000010     YES
 Maximum Displacement     0.000674     0.000060     NO 
 RMS     Displacement     0.000228     0.000040     NO 
                          Input orientation:                          
 ---------------------------------------------------------------------
 Center     Atomic      Atomic             Coordinates (Angstroms)
 Number     Number       Type             X           Y           Z
 ---------------------------------------------------------------------
      1          6           0        8.423637    3.028222   -0.786817
      2          1           0        9.233751    2.688744   -0.150187
      3          1           0        8.617053    2.683483   -1.796887
      4          1           0        8.437346    4.114070   -0.786784
      5          6           0        7.068621    2.523898   -0.307848
      6          1           0        6.881363    2.850107    0.713759
      7          1           0        6.285113    2.936516   -0.930605
      8          8           0        6.931423    1.132398   -0.397980
      9          6           0        7.583415    0.380954    0.582250
     10          1           0        7.342435    0.757449    1.574391
     11          1           0        8.663817    0.430918    0.456430
     12          6           0        7.152328   -1.068673    0.481607
     13          1           0        7.282059   -1.415179   -0.540490
     14          1           0        7.796791   -1.660961    1.121953
     15          8           0        5.845694   -1.292245    0.921090
     16          6           0        4.822190   -1.159215   -0.025871
     17          1           0        5.026176   -1.774067   -0.899338
     18          1           0        4.715153   -0.134252   -0.354379
     19          6           0        3.545773   -1.631162    0.638754
     20          1           0        3.344761   -1.026995    1.520837
     21          1           0        3.656687   -2.663957    0.961068
     22          8           0        2.510452   -1.509408   -0.292386
     23          6           0        1.256457   -1.901643    0.174969
     24          1           0        0.969243   -1.300629    1.035767
     25          1           0        1.271525   -2.941466    0.492991
     26          6           0        0.267620   -1.720214   -0.965416
     27          1           0        0.549168   -2.362407   -1.789781
     28          1           0        0.303953   -0.701134   -1.327440
     29         16           0       -1.435875   -2.174411   -0.523459
     30          6           0       -2.042202   -0.671224    0.308287
     31          1           0       -2.875022   -0.993980    0.918206
     32          1           0       -1.285639   -0.296133    0.984593
     33          6           0       -2.480769    0.421852   -0.664946
     34          1           0       -3.254105    0.054164   -1.327040
     35          1           0       -1.649261    0.723744   -1.287446
     36         16           0       -3.078151    1.935694    0.163314
     37          6           0       -4.888468    1.793337    0.026550
     38          1           0       -5.145036    1.611832   -1.009300
     39          1           0       -5.262812    2.776418    0.280761
     40          6           0       -5.520159    0.751466    0.946303
     41          1           0       -5.167832   -0.245619    0.712491
     42          1           0       -5.247405    0.957099    1.973252
     43         16           0       -7.338197    0.747002    0.909717
     44          6           0       -7.677215   -0.117936   -0.655629
     45          1           0       -7.284054    0.455998   -1.485451
     46          1           0       -7.172416   -1.077037   -0.640643
     47          6           0       -9.180995   -0.315796   -0.826421
     48          1           0       -9.591975   -0.908205   -0.016797
     49          1           0       -9.701174    0.635447   -0.848689
     50          1           0       -9.382491   -0.831455   -1.759643
 ---------------------------------------------------------------------
 Stoichiometry    C14H30O3S3
 Framework group  C1[X(C14H30O3S3)]
                         Standard orientation:                         
 ---------------------------------------------------------------------
 Center     Atomic      Atomic             Coordinates (Angstroms)
 Number     Number       Type             X           Y           Z
 ---------------------------------------------------------------------
      1          6           0       -8.423600    3.028249    0.786759
      2          1           0       -9.233716    2.688776    0.150128
      3          1           0       -8.617018    2.683512    1.796829
      4          1           0       -8.437302    4.114098    0.786726
      5          6           0       -7.068587    2.523917    0.307790
      6          1           0       -6.881327    2.850125   -0.713817
      7          1           0       -6.285076    2.936531    0.930546
      8          8           0       -6.931397    1.132417    0.397922
      9          6           0       -7.583394    0.380976   -0.582309
     10          1           0       -7.342411    0.757470   -1.574449
     11          1           0       -8.663795    0.430946   -0.456488
     12          6           0       -7.152315   -1.068654   -0.481665
     13          1           0       -7.282049   -1.415159    0.540432
     14          1           0       -7.796782   -1.660937   -1.122012
     15          8           0       -5.845683   -1.292233   -0.921148
     16          6           0       -4.822178   -1.159209    0.025813
     17          1           0       -5.026167   -1.774060    0.899280
     18          1           0       -4.715135   -0.134247    0.354321
     19          6           0       -3.545763   -1.631164   -0.638812
     20          1           0       -3.344748   -1.026998   -1.520895
     21          1           0       -3.656684   -2.663958   -0.961126
     22          8           0       -2.510442   -1.509416    0.292328
     23          6           0       -1.256449   -1.901658   -0.175027
     24          1           0       -0.969232   -1.300646   -1.035825
     25          1           0       -1.271523   -2.941481   -0.493049
     26          6           0       -0.267611   -1.720235    0.965358
     27          1           0       -0.549163   -2.362427    1.789723
     28          1           0       -0.303938   -0.701155    1.327381
     29         16           0        1.435882   -2.174443    0.523401
     30          6           0        2.042217   -0.671259   -0.308345
     31          1           0        2.875035   -0.994019   -0.918265
     32          1           0        1.285656   -0.296163   -0.984651
     33          6           0        2.480791    0.421815    0.664888
     34          1           0        3.254124    0.054122    1.326982
     35          1           0        1.649285    0.723711    1.287388
     36         16           0        3.078182    1.935653   -0.163372
     37          6           0        4.888497    1.793285   -0.026608
     38          1           0        5.145065    1.611779    1.009242
     39          1           0        5.262847    2.776364   -0.280819
     40          6           0        5.520182    0.751411   -0.946361
     41          1           0        5.167850   -0.245672   -0.712549
     42          1           0        5.247430    0.957045   -1.973310
     43         16           0        7.338221    0.746936   -0.909776
     44          6           0        7.677233   -0.118004    0.655571
     45          1           0        7.284076    0.455932    1.485393
     46          1           0        7.172429   -1.077102    0.640585
     47          6           0        9.181012   -0.315873    0.826363
     48          1           0        9.591989   -0.908284    0.016739
     49          1           0        9.701196    0.635367    0.848631
     50          1           0        9.382505   -0.831533    1.759585
 ---------------------------------------------------------------------
 Standard basis: 6-31G(d) (6D, 7F)
   372 basis functions,   752 primitive gaussians,   372 cartesian basis functions
    93 alpha electrons       93 beta electrons
 Requested convergence on RMS density matrix=1.00D-08 within  64 cycles.
 Requested convergence on MAX density matrix=1.00D-06.
 Requested convergence on             energy=1.00D-06.
 SCF Done:  E(RHF) =  -1964.69613928     A.U. after    6 cycles
            NFock=  6  Conv=0.52D-08     -V/T= 2.0006
 Step number   4 out of a maximum of   55
     Eigenvalues ---    0.00203   0.00230   0.00230   0.00233   0.00296
     Eigenvalues ---    0.00396   0.00414   0.00441   0.00455   0.00492
     Eigenvalues ---    0.00565   0.00573   0.00674   0.01277   0.01682
     Eigenvalues ---    0.01698   0.01727   0.01755   0.01789   0.04348
     Eigenvalues ---    0.04480   0.04537   0.04620   0.04800   0.04956
     Eigenvalues ---    0.05066   0.05202   0.05405   0.05457   0.05494
     Eigenvalues ---    0.05520   0.05531   0.05594   0.05630   0.05653
     Eigenvalues ---    0.05669   0.05680   0.05727   0.05787   0.05795
     Eigenvalues ---    0.05829   0.05856   0.05941   0.06066   0.06081
     Eigenvalues ---    0.06142   0.06163   0.11049   0.11079   0.11177
     Eigenvalues ---    0.11265   0.11347   0.11484   0.11555   0.11613
     Eigenvalues ---    0.11658   0.11766   0.11836   0.11866   0.13584
     Eigenvalues ---    0.13644   0.13662   0.13664   0.13812   0.13821
     Eigenvalues ---    0.13941   0.13961   0.14012   0.14056   0.14073
     Eigenvalues ---    0.14217   0.15977   0.16000   0.16000   0.16001
     Eigenvalues ---    0.16003   0.16040   0.20914   0.21952   0.21968
     Eigenvalues ---    0.21988   0.22012   0.22026   0.22032   0.22039
     Eigenvalues ---    0.22053   0.22306   0.23179   0.23385   0.24095
     Eigenvalues ---    0.24458   0.24551   0.24587   0.24709   0.24748
     Eigenvalues ---    0.24939   0.25000   0.25000   0.25393   0.26154
     Eigenvalues ---    0.29044   0.29701   0.29757   0.30043   0.30247
     Eigenvalues ---    0.30323   0.30883   0.32081   0.34958   0.34974
     Eigenvalues ---    0.34999   0.35024   0.35063   0.35101   0.35106
     Eigenvalues ---    0.35136   0.35189   0.35289   0.35389   0.35420
     Eigenvalues ---    0.35441   0.35465   0.35490   0.35513   0.35538
     Eigenvalues ---    0.35650   0.35673   0.35691   0.35706   0.35710
     Eigenvalues ---    0.35723   0.35725   0.35754   0.35775   0.35777
     Eigenvalues ---    0.35912   0.36222   0.36437   0.45433   0.45571
     Eigenvalues ---    0.45710   0.46119   0.46549   0.47506
 Maximum Force            0.000003     0.000015     YES
 RMS     Force            0.000000     0.000010     YES
 Maximum Displacement     0.000908     0.000060     NO 
 RMS     Displacement     0.000202     0.000040     NO 
                          Input orientation:                          
 ---------------------------------------------------------------------
 Center     Atomic      Atomic             Coordinates (Angstroms)
 Number     Number       Type             X           Y           Z
 ---------------------------------------------------------------------
      1          6           0        8.423641    3.028184   -0.786696
      2          1           0        9.233771    2.688659   -0.150112
      3          1           0        8.617008    2.683481   -1.796789
      4          1           0        8.437379    4.114032   -0.786620
      5          6           0        7.068630    2.523878   -0.307692
      6          1           0        6.881415    2.850067    0.713929
      7          1           0        6.285110    2.936530   -0.930412
      8          8           0        6.931401    1.132383   -0.397855
      9          6           0        7.583380    0.380898    0.582351
     10          1           0        7.342394    0.757357    1.574505
     11          1           0        8.663784    0.430859    0.456543
     12          6           0        7.152285   -1.068725    0.481651
     13          1           0        7.282031   -1.415196   -0.540457
     14          1           0        7.796732   -1.661042    1.121987
     15          8           0        5.845643   -1.292299    0.921103
     16          6           0        4.822159   -1.159228   -0.025873
     17          1           0        5.026151   -1.774058   -0.899354
     18          1           0        4.715147   -0.134253   -0.354354
     19          6           0        3.545722   -1.631173    0.638716
     20          1           0        3.344698   -1.027022    1.520807
     21          1           0        3.656616   -2.663977    0.961010
     22          8           0        2.510423   -1.509386   -0.292444
     23          6           0        1.256410   -1.901593    0.174886
     24          1           0        0.969187   -1.300564    1.035669
     25          1           0        1.271453   -2.941412    0.492921
     26          6           0        0.267603   -1.720161   -0.965526
     27          1           0        0.549152   -2.362377   -1.789873
     28          1           0        0.303968   -0.701089   -1.327569
     29         16           0       -1.435914   -2.174304   -0.523589
     30          6           0       -2.042234   -0.671060    0.308063
     31          1           0       -2.875074   -0.993764    0.917983
     32          1           0       -1.285678   -0.295946    0.984364
     33          6           0       -2.480762    0.421969   -0.665242
     34          1           0       -3.254097    0.054258   -1.327323
     35          1           0       -1.649240    0.723804   -1.287750
     36         16           0       -3.078122    1.935873    0.162919
     37          6           0       -4.888446    1.793433    0.026334
     38          1           0       -5.145103    1.611859   -1.009482
     39          1           0       -5.262807    2.776513    0.280526
     40          6           0       -5.520004    0.751584    0.946203
     41          1           0       -5.167656   -0.245498    0.712409
     42          1           0       -5.247158    0.957283    1.973115
     43         16           0       -7.338047    0.747037    0.909797
     44          6           0       -7.677184   -0.118057   -0.655437
     45          1           0       -7.284158    0.455835   -1.485353
     46          1           0       -7.172316   -1.077122   -0.640429
     47          6           0       -9.180970   -0.316036   -0.826042
     48          1           0       -9.591818   -0.908399   -0.016317
     49          1           0       -9.701217    0.635169   -0.848339
     50          1           0       -9.382537   -0.831796   -1.759194
 ---------------------------------------------------------------------
 Stoichiometry    C14H30O3S3
 Framework group  C1[X(C14H30O3S3)]
                         Standard orientation:                         
 ---------------------------------------------------------------------
 Center     Atomic      Atomic             Coordinates (Angstroms)
 Number     Number       Type             X           Y           Z
 ---------------------------------------------------------------------
      1          6           0       -8.423593    3.028196    0.786603
      2          1           0       -9.233726    2.688676    0.150019
      3          1           0       -8.616963    2.683494    1.796696
      4          1           0       -8.437323    4.114044    0.786527
      5          6           0       -7.068586    2.523881    0.307599
      6          1           0       -6.881368    2.850068   -0.714022
      7          1           0       -6.285063    2.936527    0.930318
      8          8           0       -6.931366    1.132385    0.397762
      9          6           0       -7.583351    0.380904   -0.582445
     10          1           0       -7.342362    0.757361   -1.574598
     11          1           0       -8.663754    0.430873   -0.456636
     12          6           0       -7.152266   -1.068722   -0.481744
     13          1           0       -7.282015   -1.415192    0.540364
     14          1           0       -7.796717   -1.661034   -1.122080
     15          8           0       -5.845625   -1.292305   -0.921197
     16          6           0       -4.822141   -1.159241    0.025780
     17          1           0       -5.026137   -1.774070    0.899261
     18          1           0       -4.715122   -0.134267    0.354261
     19          6           0       -3.545707   -1.631196   -0.638809
     20          1           0       -3.344678   -1.027046   -1.520900
     21          1           0       -3.656609   -2.663999   -0.961103
     22          8           0       -2.510408   -1.509416    0.292350
     23          6           0       -1.256397   -1.901632   -0.174979
     24          1           0       -0.969169   -1.300605   -1.035762
     25          1           0       -1.271448   -2.941452   -0.493014
     26          6           0       -0.267589   -1.720207    0.965433
     27          1           0       -0.549143   -2.362421    1.789780
     28          1           0       -0.303947   -0.701135    1.327475
     29         16           0        1.435925   -2.174363    0.523496
     30          6           0        2.042256   -0.671123   -0.308156
     31          1           0        2.875093   -0.993833   -0.918076
     32          1           0        1.285702   -0.296003   -0.984457
     33          6           0        2.480791    0.421903    0.665149
     34          1           0        3.254124    0.054187    1.327230
     35          1           0        1.649272    0.723744    1.287657
     36         16           0        3.078163    1.935803   -0.163012
     37          6           0        4.888485    1.793350   -0.026427
     38          1           0        5.145141    1.611774    1.009389
     39          1           0        5.262854    2.776427   -0.280619
     40          6           0        5.520035    0.751496   -0.946296
     41          1           0        5.167681   -0.245584   -0.712502
     42          1           0        5.247191    0.957197   -1.973208
     43         16           0        7.338078    0.746937   -0.909890
     44          6           0        7.677210   -0.118160    0.655344
     45          1           0        7.284188    0.455735    1.485259
     46          1           0        7.172335   -1.077221    0.640336
     47          6           0        9.180994   -0.316150    0.825949
     48          1           0        9.591838   -0.908515    0.016224
     49          1           0        9.701248    0.635052    0.848245
     50          1           0        9.382557   -0.831911    1.759100
 ---------------------------------------------------------------------
 Standard basis: 6-31G(d) (6D, 7F)
   372 basis functions,   752 primitive gaussians,   372 cartesian basis functions
    93 alpha electrons       93 beta electrons
 Requested convergence on RMS density matrix=1.00D-08 within  64 cycles.
 Requested convergence on MAX density matrix=1.00D-06.
 Requested convergence on             energy=1.00D-06.
 SCF Done:  E(RHF) =  -1964.69613928     A.U. after    6 cycles
            NFock=  6  Conv=0.37D-08     -V/T= 2.0006
 Step number   5 out of a maximum of   55
     Eigenvalues ---    0.00203   0.00230   0.00230   0.00259   0.00310
     Eigenvalues ---    0.00397   0.00414   0.00436   0.00489   0.00555
     Eigenvalues ---    0.00573   0.00640   0.00681   0.00989   0.01682
     Eigenvalues ---    0.01699   0.01727   0.01756   0.01807   0.04405
     Eigenvalues ---    0.04475   0.04530   0.04796   0.04880   0.04979
     Eigenvalues ---    0.05127   0.05203   0.05437   0.05457   0.05495
     Eigenvalues ---    0.05521   0.05531   0.05625   0.05642   0.05669
     Eigenvalues ---    0.05678   0.05726   0.05736   0.05788   0.05796
     Eigenvalues ---    0.05840   0.05861   0.05942   0.06066   0.06083
     Eigenvalues ---    0.06140   0.06301   0.11061   0.11085   0.11183
     Eigenvalues ---    0.11277   0.11440   0.11493   0.11570   0.11642
     Eigenvalues ---    0.11714   0.11765   0.11842   0.11933   0.13588
     Eigenvalues ---    0.13650   0.13659   0.13673   0.13812   0.13930
     Eigenvalues ---    0.13946   0.13972   0.14049   0.14071   0.14132
     Eigenvalues ---    0.14266   0.15976   0.16000   0.16000   0.16003
     Eigenvalues ---    0.16004   0.16038   0.20887   0.21952   0.21971
     Eigenvalues ---    0.21988   0.22012   0.22027   0.22032   0.22043
     Eigenvalues ---    0.22299   0.23083   0.23324   0.23764   0.24073
     Eigenvalues ---    0.24430   0.24582   0.24615   0.24682   0.24777
     Eigenvalues ---    0.24943   0.25000   0.25052   0.25381   0.28553
     Eigenvalues ---    0.28945   0.29749   0.29860   0.30011   0.30142
     Eigenvalues ---    0.30608   0.31001   0.31807   0.34956   0.34975
     Eigenvalues ---    0.35012   0.35025   0.35063   0.35101   0.35106
     Eigenvalues ---    0.35146   0.35195   0.35295   0.35389   0.35425
     Eigenvalues ---    0.35441   0.35476   0.35492   0.35513   0.35542
     Eigenvalues ---    0.35661   0.35686   0.35700   0.35708   0.35721
     Eigenvalues ---    0.35724   0.35729   0.35756   0.35776   0.35900
     Eigenvalues ---    0.36113   0.36181   0.36457   0.45530   0.45713
     Eigenvalues ---    0.45974   0.46403   0.46618   0.49544
 Maximum Force            0.000002     0.000015     YES
 RMS     Force            0.000000     0.000010     YES
 Maximum Displacement     0.000292     0.000060     NO 
 RMS     Displacement     0.000070     0.000040     NO 
                          Input orientation:                          
 ---------------------------------------------------------------------
 Center     Atomic      Atomic             Coordinates (Angstroms)
 Number     Number       Type             X           Y           Z
 ---------------------------------------------------------------------
      1          6           0        8.423650    3.028204   -0.786726
      2          1           0        9.233779    2.688685   -0.150138
      3          1           0        8.617019    2.683491   -1.796815
      4          1           0        8.437388    4.114053   -0.786661
      5          6           0        7.068639    2.523904   -0.307719
      6          1           0        6.881423    2.850098    0.713900
      7          1           0        6.285118    2.936553   -0.930441
      8          8           0        6.931407    1.132408   -0.397875
      9          6           0        7.583383    0.380928    0.582338
     10          1           0        7.342392    0.757392    1.574489
     11          1           0        8.663787    0.430893    0.456534
     12          6           0        7.152292   -1.068697    0.481641
     13          1           0        7.282042   -1.415172   -0.540464
     14          1           0        7.796742   -1.661008    1.121981
     15          8           0        5.845651   -1.292278    0.921097
     16          6           0        4.822165   -1.159224   -0.025881
     17          1           0        5.026162   -1.774061   -0.899356
     18          1           0        4.715144   -0.134254   -0.354371
     19          6           0        3.545732   -1.631175    0.638713
     20          1           0        3.344703   -1.027018    1.520799
     21          1           0        3.656635   -2.663975    0.961016
     22          8           0        2.510432   -1.509404   -0.292448
     23          6           0        1.256422   -1.901616    0.174886
     24          1           0        0.969194   -1.300580    1.035663
     25          1           0        1.271474   -2.941432    0.492934
     26          6           0        0.267614   -1.720205   -0.965528
     27          1           0        0.549172   -2.362425   -1.789870
     28          1           0        0.303969   -0.701136   -1.327579
     29         16           0       -1.435899   -2.174364   -0.523591
     30          6           0       -2.042214   -0.671144    0.308109
     31          1           0       -2.875043   -0.993868    0.918033
     32          1           0       -1.285649   -0.296044    0.984410
     33          6           0       -2.480760    0.421910   -0.665161
     34          1           0       -3.254099    0.054212   -1.327247
     35          1           0       -1.649246    0.723769   -1.287668
     36         16           0       -3.078124    1.935786    0.163049
     37          6           0       -4.888445    1.793385    0.026389
     38          1           0       -5.145062    1.611781   -1.009432
     39          1           0       -5.262791    2.776484    0.280530
     40          6           0       -5.520072    0.751587    0.946268
     41          1           0       -5.167739   -0.245513    0.712530
     42          1           0       -5.247271    0.957319    1.973185
     43         16           0       -7.338114    0.747084    0.909776
     44          6           0       -7.677197   -0.118024   -0.655463
     45          1           0       -7.284096    0.455835   -1.485366
     46          1           0       -7.172373   -1.077111   -0.640407
     47          6           0       -9.180982   -0.315939   -0.826152
     48          1           0       -9.591904   -0.908271   -0.016443
     49          1           0       -9.701185    0.635290   -0.848493
     50          1           0       -9.382517   -0.831702   -1.759309
 ---------------------------------------------------------------------
 Stoichiometry    C14H30O3S3
 Framework group  C1[X(C14H30O3S3)]
                         Standard orientation:                         
 ---------------------------------------------------------------------
 Center     Atomic      Atomic             Coordinates (Angstroms)
 Number     Number       Type             X           Y           Z
 ---------------------------------------------------------------------
      1          6           0       -8.423606    3.028223    0.786641
      2          1           0       -9.233737    2.688709    0.150052
      3          1           0       -8.616977    2.683511    1.796730
      4          1           0       -8.437336    4.114071    0.786576
      5          6           0       -7.068598    2.523913    0.307634
      6          1           0       -6.881380    2.850106   -0.713985
      7          1           0       -6.285075    2.936557    0.930356
      8          8           0       -6.931376    1.132417    0.397790
      9          6           0       -7.583357    0.380941   -0.582424
     10          1           0       -7.342364    0.757403   -1.574574
     11          1           0       -8.663761    0.430913   -0.456619
     12          6           0       -7.152277   -1.068687   -0.481726
     13          1           0       -7.282029   -1.415161    0.540379
     14          1           0       -7.796730   -1.660993   -1.122066
     15          8           0       -5.845638   -1.292278   -0.921182
     16          6           0       -4.822150   -1.159231    0.025795
     17          1           0       -5.026151   -1.774066    0.899271
     18          1           0       -4.715122   -0.134261    0.354286
     19          6           0       -3.545720   -1.631190   -0.638798
     20          1           0       -3.344687   -1.027035   -1.520884
     21          1           0       -3.656630   -2.663990   -0.961101
     22          8           0       -2.510420   -1.509427    0.292362
     23          6           0       -1.256413   -1.901648   -0.174971
     24          1           0       -0.969180   -1.300614   -1.035748
     25          1           0       -1.271472   -2.941464   -0.493019
     26          6           0       -0.267603   -1.720244    0.965443
     27          1           0       -0.549166   -2.362461    1.789785
     28          1           0       -0.303950   -0.701174    1.327494
     29         16           0        1.435907   -2.174415    0.523505
     30          6           0        2.042232   -0.671199   -0.308194
     31          1           0        2.875059   -0.993929   -0.918118
     32          1           0        1.285670   -0.296094   -0.984495
     33          6           0        2.480786    0.421852    0.665076
     34          1           0        3.254122    0.054149    1.327161
     35          1           0        1.649274    0.723717    1.287582
     36         16           0        3.078160    1.935724   -0.163134
     37          6           0        4.888480    1.793310   -0.026474
     38          1           0        5.145096    1.611704    1.009346
     39          1           0        5.262834    2.776406   -0.280615
     40          6           0        5.520101    0.751508   -0.946354
     41          1           0        5.167760   -0.245590   -0.712615
     42          1           0        5.247301    0.957242   -1.973271
     43         16           0        7.338142    0.746991   -0.909861
     44          6           0        7.677219   -0.118118    0.655378
     45          1           0        7.284123    0.455743    1.485280
     46          1           0        7.172389   -1.077202    0.640322
     47          6           0        9.181003   -0.316044    0.826067
     48          1           0        9.591921   -0.908379    0.016358
     49          1           0        9.701212    0.635181    0.848408
     50          1           0        9.382534   -0.831808    1.759224
 ---------------------------------------------------------------------
 Standard basis: 6-31G(d) (6D, 7F)
   372 basis functions,   752 primitive gaussians,   372 cartesian basis functions
    93 alpha electrons       93 beta electrons
 Requested convergence on RMS density matrix=1.00D-08 within  64 cycles.
 Requested convergence on MAX density matrix=1.00D-06.
 Requested convergence on             energy=1.00D-06.
 SCF Done:  E(RHF) =  -1964.69613928     A.U. after    4 cycles
            NFock=  4  Conv=0.72D-08     -V/T= 2.0006
 Step number   6 out of a maximum of   55
     Eigenvalues ---    0.00211   0.00226   0.00230   0.00308   0.00394
     Eigenvalues ---    0.00401   0.00421   0.00476   0.00501   0.00555
     Eigenvalues ---    0.00577   0.00622   0.00687   0.00782   0.01683
     Eigenvalues ---    0.01702   0.01730   0.01772   0.01822   0.04408
     Eigenvalues ---    0.04493   0.04605   0.04808   0.04971   0.05000
     Eigenvalues ---    0.05141   0.05209   0.05406   0.05473   0.05494
     Eigenvalues ---    0.05525   0.05531   0.05611   0.05630   0.05670
     Eigenvalues ---    0.05687   0.05723   0.05727   0.05788   0.05796
     Eigenvalues ---    0.05829   0.05861   0.05949   0.06069   0.06078
     Eigenvalues ---    0.06147   0.06193   0.11056   0.11096   0.11168
     Eigenvalues ---    0.11228   0.11363   0.11496   0.11568   0.11636
     Eigenvalues ---    0.11722   0.11777   0.11829   0.11910   0.13596
     Eigenvalues ---    0.13641   0.13668   0.13671   0.13824   0.13924
     Eigenvalues ---    0.13962   0.14023   0.14038   0.14073   0.14125
     Eigenvalues ---    0.14339   0.15990   0.15997   0.16000   0.16001
     Eigenvalues ---    0.16003   0.16084   0.21654   0.21779   0.21953
     Eigenvalues ---    0.21983   0.21996   0.22012   0.22029   0.22033
     Eigenvalues ---    0.22582   0.23025   0.23327   0.23823   0.24104
     Eigenvalues ---    0.24451   0.24580   0.24607   0.24717   0.24736
     Eigenvalues ---    0.24948   0.24996   0.25263   0.25964   0.28005
     Eigenvalues ---    0.29097   0.29748   0.29819   0.30087   0.30414
     Eigenvalues ---    0.30882   0.31449   0.32276   0.34940   0.34976
     Eigenvalues ---    0.35002   0.35042   0.35065   0.35098   0.35106
     Eigenvalues ---    0.35108   0.35200   0.35283   0.35390   0.35415
     Eigenvalues ---    0.35445   0.35467   0.35495   0.35514   0.35544
     Eigenvalues ---    0.35635   0.35684   0.35702   0.35707   0.35720
     Eigenvalues ---    0.35724   0.35728   0.35754   0.35776   0.35827
     Eigenvalues ---    0.35907   0.36119   0.36688   0.45336   0.45709
     Eigenvalues ---    0.45819   0.46075   0.46527   0.48895
 Maximum Force            0.000001     0.000015     YES
 RMS     Force            0.000000     0.000010     YES
 Maximum Displacement     0.000350     0.000060     NO 
 RMS     Displacement     0.000091     0.000040     NO 
                          Input orientation:                          
 ---------------------------------------------------------------------
 Center     Atomic      Atomic             Coordinates (Angstroms)
 Number     Number       Type             X           Y           Z
 ---------------------------------------------------------------------
      1          6           0        8.423601    3.028235   -0.786814
      2          1           0        9.233769    2.688695   -0.150285
      3          1           0        8.616895    2.683531   -1.796920
      4          1           0        8.437354    4.114083   -0.786735
      5          6           0        7.068616    2.523948   -0.307719
      6          1           0        6.881472    2.850137    0.713915
      7          1           0        6.285057    2.936610   -0.930384
      8          8           0        6.931365    1.132454   -0.397876
      9          6           0        7.583369    0.380963    0.582312
     10          1           0        7.342395    0.757408    1.574474
     11          1           0        8.663770    0.430943    0.456485
     12          6           0        7.152292   -1.068665    0.481596
     13          1           0        7.282028   -1.415122   -0.540517
     14          1           0        7.796762   -1.660979    1.121913
     15          8           0        5.845663   -1.292275    0.921076
     16          6           0        4.822154   -1.159228   -0.025879
     17          1           0        5.026141   -1.774057   -0.899362
     18          1           0        4.715114   -0.134257   -0.354364
     19          6           0        3.545739   -1.631198    0.638735
     20          1           0        3.344716   -1.027048    1.520827
     21          1           0        3.656661   -2.663999    0.961033
     22          8           0        2.510422   -1.509439   -0.292408
     23          6           0        1.256422   -1.901653    0.174950
     24          1           0        0.969199   -1.300601    1.035719
     25          1           0        1.271487   -2.941462    0.493021
     26          6           0        0.267598   -1.720276   -0.965455
     27          1           0        0.549152   -2.362510   -1.789787
     28          1           0        0.303939   -0.701213   -1.327529
     29         16           0       -1.435907   -2.174440   -0.523490
     30          6           0       -2.042216   -0.671215    0.308205
     31          1           0       -2.875058   -0.993930    0.918117
     32          1           0       -1.285657   -0.296127    0.984518
     33          6           0       -2.480732    0.421850   -0.665067
     34          1           0       -3.254062    0.054166   -1.327171
     35          1           0       -1.649202    0.723702   -1.287556
     36         16           0       -3.078094    1.935728    0.163139
     37          6           0       -4.888414    1.793348    0.026445
     38          1           0       -5.145016    1.611779   -1.009386
     39          1           0       -5.262755    2.776443    0.280610
     40          6           0       -5.520069    0.751527    0.946280
     41          1           0       -5.167743   -0.245570    0.712516
     42          1           0       -5.247285    0.957224    1.973209
     43         16           0       -7.338110    0.747046    0.909756
     44          6           0       -7.677175   -0.117938   -0.655555
     45          1           0       -7.284057    0.455982   -1.485408
     46          1           0       -7.172358   -1.077030   -0.640565
     47          6           0       -9.180959   -0.315828   -0.826284
     48          1           0       -9.591898   -0.908221   -0.016627
     49          1           0       -9.701154    0.635406   -0.848558
     50          1           0       -9.382483   -0.831517   -1.759484
 ---------------------------------------------------------------------
 Stoichiometry    C14H30O3S3
 Framework group  C1[X(C14H30O3S3)]
                         Standard orientation:                         
 ---------------------------------------------------------------------
 Center     Atomic      Atomic             Coordinates (Angstroms)
 Number     Number       Type             X           Y           Z
 ---------------------------------------------------------------------
      1          6           0       -8.423562    3.028252    0.786744
      2          1           0       -9.233732    2.688716    0.150216
      3          1           0       -8.616857    2.683550    1.796851
      4          1           0       -8.437309    4.114101    0.786666
      5          6           0       -7.068579    2.523958    0.307649
      6          1           0       -6.881433    2.850146   -0.713985
      7          1           0       -6.285018    2.936616    0.930315
      8          8           0       -6.931336    1.132464    0.397806
      9          6           0       -7.583343    0.380976   -0.582382
     10          1           0       -7.342368    0.757419   -1.574544
     11          1           0       -8.663744    0.430962   -0.456555
     12          6           0       -7.152274   -1.068655   -0.481666
     13          1           0       -7.282012   -1.415111    0.540448
     14          1           0       -7.796747   -1.660965   -1.121982
     15          8           0       -5.845646   -1.292271   -0.921146
     16          6           0       -4.822137   -1.159229    0.025810
     17          1           0       -5.026126   -1.774057    0.899293
     18          1           0       -4.715091   -0.134259    0.354294
     19          6           0       -3.545724   -1.631206   -0.638804
     20          1           0       -3.344698   -1.027057   -1.520896
     21          1           0       -3.656651   -2.664006   -0.961103
     22          8           0       -2.510407   -1.509453    0.292339
     23          6           0       -1.256409   -1.901673   -0.175020
     24          1           0       -0.969183   -1.300623   -1.035788
     25          1           0       -1.271479   -2.941482   -0.493091
     26          6           0       -0.267584   -1.720301    0.965385
     27          1           0       -0.549141   -2.362534    1.789717
     28          1           0       -0.303919   -0.701238    1.327459
     29         16           0        1.435919   -2.174474    0.523420
     30          6           0        2.042236   -0.671252   -0.308274
[...]
     18          1           0        4.715145   -0.134287   -0.354390
     19          6           0        3.545736   -1.631204    0.638701
     20          1           0        3.344719   -1.027046    1.520789
     21          1           0        3.656638   -2.664005    0.961005
     22          8           0        2.510426   -1.509432   -0.292448
     23          6           0        1.256414   -1.901614    0.174910
     24          1           0        0.969201   -1.300545    1.035669
     25          1           0        1.271457   -2.941419    0.492993
     26          6           0        0.267601   -1.720231   -0.965503
     27          1           0        0.549149   -2.362479   -1.789826
     28          1           0        0.303963   -0.701173   -1.327587
     29         16           0       -1.435914   -2.174362   -0.523548
     30          6           0       -2.042217   -0.671113    0.308106
     31          1           0       -2.875047   -0.993815    0.918041
     32          1           0       -1.285651   -0.295998    0.984396
     33          6           0       -2.480756    0.421917   -0.665193
     34          1           0       -3.254093    0.054207   -1.327274
     35          1           0       -1.649237    0.723757   -1.287703
     36         16           0       -3.078117    1.935816    0.162976
     37          6           0       -4.888439    1.793405    0.026336
     38          1           0       -5.145065    1.611779   -1.009478
     39          1           0       -5.262787    2.776509    0.280459
     40          6           0       -5.520056    0.751627    0.946244
     41          1           0       -5.167719   -0.245478    0.712530
     42          1           0       -5.247253    0.957387    1.973155
     43         16           0       -7.338097    0.747114    0.909760
     44          6           0       -7.677183   -0.118040   -0.655452
     45          1           0       -7.284089    0.455797   -1.485374
     46          1           0       -7.172352   -1.077124   -0.640371
     47          6           0       -9.180967   -0.315969   -0.826129
     48          1           0       -9.591881   -0.908285   -0.016404
     49          1           0       -9.701176    0.635256   -0.848488
     50          1           0       -9.382504   -0.831754   -1.759273
 ---------------------------------------------------------------------
 Stoichiometry    C14H30O3S3
 Framework group  C1[X(C14H30O3S3)]
                         Standard orientation:                         
 ---------------------------------------------------------------------
 Center     Atomic      Atomic             Coordinates (Angstroms)
 Number     Number       Type             X           Y           Z
 ---------------------------------------------------------------------
      1          6           0       -8.423572    3.028229    0.786677
      2          1           0       -9.233777    2.688647    0.150218
      3          1           0       -8.616784    2.683552    1.796808
      4          1           0       -8.437354    4.114077    0.786565
      5          6           0       -7.068609    2.523958    0.307502
      6          1           0       -6.881544    2.850119   -0.714155
      7          1           0       -6.285015    2.936658    0.930099
      8          8           0       -6.931324    1.132470    0.397694
      9          6           0       -7.583340    0.380940   -0.582457
     10          1           0       -7.342360    0.757335   -1.574636
     11          1           0       -8.663740    0.430940   -0.456632
     12          6           0       -7.152281   -1.068687   -0.481674
     13          1           0       -7.282022   -1.415095    0.540456
     14          1           0       -7.796757   -1.661022   -1.121964
     15          8           0       -5.845653   -1.292329   -0.921139
     16          6           0       -4.822150   -1.159267    0.025821
     17          1           0       -5.026132   -1.774099    0.899303
     18          1           0       -4.715124   -0.134294    0.354303
     19          6           0       -3.545727   -1.631221   -0.638788
     20          1           0       -3.344706   -1.027064   -1.520876
     21          1           0       -3.656637   -2.664020   -0.961091
     22          8           0       -2.510416   -1.509456    0.292361
     23          6           0       -1.256408   -1.901649   -0.174996
     24          1           0       -0.969189   -1.300582   -1.035756
     25          1           0       -1.271458   -2.941454   -0.493080
     26          6           0       -0.267593   -1.720273    0.965416
     27          1           0       -0.549146   -2.362519    1.789739
     28          1           0       -0.303946   -0.701215    1.327500
     29         16           0        1.435919   -2.174418    0.523461
     30          6           0        2.042234   -0.671174   -0.308193
     31          1           0        2.875061   -0.993883   -0.918128
     32          1           0        1.285670   -0.296053   -0.984483
     33          6           0        2.480781    0.421852    0.665106
     34          1           0        3.254115    0.054136    1.327187
     35          1           0        1.649264    0.723699    1.287616
     36         16           0        3.078154    1.935747   -0.163063
     37          6           0        4.888475    1.793322   -0.026423
     38          1           0        5.145100    1.611693    1.009391
     39          1           0        5.262830    2.776423   -0.280546
     40          6           0        5.520084    0.751539   -0.946331
     41          1           0        5.167739   -0.245563   -0.712617
     42          1           0        5.247282    0.957300   -1.973242
     43         16           0        7.338125    0.747011   -0.909847
     44          6           0        7.677203   -0.118146    0.655366
     45          1           0        7.284114    0.455694    1.485287
     46          1           0        7.172366   -1.077225    0.640284
     47          6           0        9.180986   -0.316086    0.826042
     48          1           0        9.591895   -0.908406    0.016317
     49          1           0        9.701203    0.635135    0.848401
     50          1           0        9.382519   -0.831873    1.759186
 ---------------------------------------------------------------------
 Standard basis: 6-31G(d) (6D, 7F)
   372 basis functions,   752 primitive gaussians,   372 cartesian basis functions
    93 alpha electrons       93 beta electrons
 Requested convergence on RMS density matrix=1.00D-08 within  64 cycles.
 Requested convergence on MAX density matrix=1.00D-06.
 Requested convergence on             energy=1.00D-06.
 SCF Done:  E(RHF) =  -1964.69613928     A.U. after    3 cycles
            NFock=  3  Conv=0.82D-08     -V/T= 2.0006
 Step number  14 out of a maximum of   55
     Eigenvalues ---    0.00228   0.00282   0.00346   0.00391   0.00407
     Eigenvalues ---    0.00427   0.00466   0.00493   0.00555   0.00582
     Eigenvalues ---    0.00627   0.00647   0.00694   0.00979   0.01022
     Eigenvalues ---    0.01703   0.01736   0.01777   0.02549   0.04458
     Eigenvalues ---    0.04820   0.04850   0.04986   0.05016   0.05095
     Eigenvalues ---    0.05265   0.05358   0.05474   0.05494   0.05523
     Eigenvalues ---    0.05532   0.05592   0.05643   0.05676   0.05683
     Eigenvalues ---    0.05723   0.05751   0.05792   0.05794   0.05848
     Eigenvalues ---    0.05877   0.05898   0.05952   0.06069   0.06093
     Eigenvalues ---    0.06149   0.06391   0.11062   0.11105   0.11163
     Eigenvalues ---    0.11295   0.11457   0.11551   0.11581   0.11635
     Eigenvalues ---    0.11771   0.11828   0.11889   0.11951   0.13616
     Eigenvalues ---    0.13634   0.13708   0.13763   0.13881   0.13895
     Eigenvalues ---    0.14008   0.14069   0.14085   0.14144   0.14364
     Eigenvalues ---    0.14504   0.15948   0.15995   0.16001   0.16006
     Eigenvalues ---    0.16024   0.16118   0.20883   0.21846   0.21918
     Eigenvalues ---    0.21981   0.22014   0.22162   0.22597   0.22941
     Eigenvalues ---    0.23102   0.23338   0.23425   0.23764   0.24193
     Eigenvalues ---    0.24380   0.24586   0.24628   0.24678   0.24880
     Eigenvalues ---    0.25228   0.25344   0.25600   0.28127   0.29212
     Eigenvalues ---    0.29365   0.29754   0.29981   0.30293   0.30816
     Eigenvalues ---    0.31178   0.31524   0.32858   0.34945   0.34984
     Eigenvalues ---    0.35009   0.35038   0.35066   0.35102   0.35121
     Eigenvalues ---    0.35127   0.35213   0.35287   0.35391   0.35430
     Eigenvalues ---    0.35444   0.35476   0.35508   0.35517   0.35567
     Eigenvalues ---    0.35673   0.35685   0.35705   0.35723   0.35723
     Eigenvalues ---    0.35731   0.35750   0.35791   0.35858   0.35953
     Eigenvalues ---    0.36158   0.36439   0.37276   0.45354   0.45612
     Eigenvalues ---    0.45781   0.46245   0.46809   0.50424
 Maximum Force            0.000000     0.000015     YES
 RMS     Force            0.000000     0.000010     YES
 Maximum Displacement     0.000047     0.000060     YES
 RMS     Displacement     0.000014     0.000040     YES
 Optimization completed.
    -- Stationary point found.
                          Input orientation:                          
 ---------------------------------------------------------------------
 Center     Atomic      Atomic             Coordinates (Angstroms)
 Number     Number       Type             X           Y           Z
 ---------------------------------------------------------------------
      1          6           0        8.423617    3.028207   -0.786764
      2          1           0        9.233820    2.688619   -0.150304
      3          1           0        8.616827    2.683529   -1.796895
      4          1           0        8.437408    4.114055   -0.786652
      5          6           0        7.068650    2.523947   -0.307589
      6          1           0        6.881588    2.850109    0.714068
      7          1           0        6.285060    2.936653   -0.930186
      8          8           0        6.931354    1.132460   -0.397781
      9          6           0        7.583364    0.380925    0.582370
     10          1           0        7.342388    0.757322    1.574549
     11          1           0        8.663765    0.430916    0.456545
     12          6           0        7.152295   -1.068699    0.481587
     13          1           0        7.282033   -1.415108   -0.540543
     14          1           0        7.796766   -1.661039    1.121877
     15          8           0        5.845664   -1.292330    0.921052
     16          6           0        4.822163   -1.159260   -0.025908
     17          1           0        5.026140   -1.774094   -0.899390
     18          1           0        4.715145   -0.134287   -0.354390
     19          6           0        3.545736   -1.631204    0.638701
     20          1           0        3.344719   -1.027046    1.520789
     21          1           0        3.656638   -2.664005    0.961005
     22          8           0        2.510426   -1.509432   -0.292448
     23          6           0        1.256414   -1.901614    0.174910
     24          1           0        0.969201   -1.300545    1.035669
     25          1           0        1.271457   -2.941419    0.492993
     26          6           0        0.267601   -1.720231   -0.965503
     27          1           0        0.549149   -2.362479   -1.789826
     28          1           0        0.303963   -0.701173   -1.327587
     29         16           0       -1.435914   -2.174362   -0.523548
     30          6           0       -2.042217   -0.671113    0.308106
     31          1           0       -2.875047   -0.993815    0.918041
     32          1           0       -1.285651   -0.295998    0.984396
     33          6           0       -2.480756    0.421917   -0.665193
     34          1           0       -3.254093    0.054207   -1.327274
     35          1           0       -1.649237    0.723757   -1.287703
     36         16           0       -3.078117    1.935816    0.162976
     37          6           0       -4.888439    1.793405    0.026336
     38          1           0       -5.145065    1.611779   -1.009478
     39          1           0       -5.262787    2.776509    0.280459
     40          6           0       -5.520056    0.751627    0.946244
     41          1           0       -5.167719   -0.245478    0.712530
     42          1           0       -5.247253    0.957387    1.973155
     43         16           0       -7.338097    0.747114    0.909760
     44          6           0       -7.677183   -0.118040   -0.655452
     45          1           0       -7.284089    0.455797   -1.485374
     46          1           0       -7.172352   -1.077124   -0.640371
     47          6           0       -9.180967   -0.315969   -0.826129
     48          1           0       -9.591881   -0.908285   -0.016404
     49          1           0       -9.701176    0.635256   -0.848488
     50          1           0       -9.382504   -0.831754   -1.759273
 ---------------------------------------------------------------------
 Stoichiometry    C14H30O3S3
 Framework group  C1[X(C14H30O3S3)]
                         Standard orientation:                         
 ---------------------------------------------------------------------
 Center     Atomic      Atomic             Coordinates (Angstroms)
 Number     Number       Type             X           Y           Z
 ---------------------------------------------------------------------
      1          6           0       -8.423572    3.028229    0.786677
      2          1           0       -9.233777    2.688647    0.150218
      3          1           0       -8.616784    2.683552    1.796808
      4          1           0       -8.437354    4.114077    0.786565
      5          6           0       -7.068609    2.523958    0.307502
      6          1           0       -6.881544    2.850119   -0.714155
      7          1           0       -6.285015    2.936658    0.930099
      8          8           0       -6.931324    1.132470    0.397694
      9          6           0       -7.583340    0.380940   -0.582457
     10          1           0       -7.342360    0.757335   -1.574636
     11          1           0       -8.663740    0.430940   -0.456632
     12          6           0       -7.152281   -1.068687   -0.481674
     13          1           0       -7.282022   -1.415095    0.540456
     14          1           0       -7.796757   -1.661022   -1.121964
     15          8           0       -5.845653   -1.292329   -0.921139
     16          6           0       -4.822150   -1.159267    0.025821
     17          1           0       -5.026132   -1.774099    0.899303
     18          1           0       -4.715124   -0.134294    0.354303
     19          6           0       -3.545727   -1.631221   -0.638788
     20          1           0       -3.344706   -1.027064   -1.520876
     21          1           0       -3.656637   -2.664020   -0.961091
     22          8           0       -2.510416   -1.509456    0.292361
     23          6           0       -1.256408   -1.901649   -0.174996
     24          1           0       -0.969189   -1.300582   -1.035756
     25          1           0       -1.271458   -2.941454   -0.493080
     26          6           0       -0.267593   -1.720273    0.965416
     27          1           0       -0.549146   -2.362519    1.789739
     28          1           0       -0.303946   -0.701215    1.327500
     29         16           0        1.435919   -2.174418    0.523461
     30          6           0        2.042234   -0.671174   -0.308193
     31          1           0        2.875061   -0.993883   -0.918128
     32          1           0        1.285670   -0.296053   -0.984483
     33          6           0        2.480781    0.421852    0.665106
     34          1           0        3.254115    0.054136    1.327187
     35          1           0        1.649264    0.723699    1.287616
     36         16           0        3.078154    1.935747   -0.163063
     37          6           0        4.888475    1.793322   -0.026423
     38          1           0        5.145100    1.611693    1.009391
     39          1           0        5.262830    2.776423   -0.280546
     40          6           0        5.520084    0.751539   -0.946331
     41          1           0        5.167739   -0.245563   -0.712617
     42          1           0        5.247282    0.957300   -1.973242
     43         16           0        7.338125    0.747011   -0.909847
     44          6           0        7.677203   -0.118146    0.655366
     45          1           0        7.284114    0.455694    1.485287
     46          1           0        7.172366   -1.077225    0.640284
     47          6           0        9.180986   -0.316086    0.826042
     48          1           0        9.591895   -0.908406    0.016317
     49          1           0        9.701203    0.635135    0.848401
     50          1           0        9.382519   -0.831873    1.759186
 ---------------------------------------------------------------------
 Mulliken charges:
     1  C   -0.505921
     2  H    0.162181
     3  H    0.175070
     4  H    0.161411
     5  C    0.015041
     6  H    0.142346
     7  H    0.173094
     8  O   -0.627751
     9  C    0.007638
    10  H    0.151121
    11  H    0.137084
    12  C    0.004391
    13  H    0.156364
    14  H    0.168237
    15  O   -0.647501
    16  C    0.012190
    17  H    0.148465
    18  H    0.182547
    19  C    0.012342
    20  H    0.151335
    21  H    0.151319
    22  O   -0.642396
    23  C    0.040292
    24  H    0.143773
    25  H    0.157705
    26  C   -0.494555
    27  H    0.213766
    28  H    0.203386
    29  S    0.106199
    30  C   -0.472120
    31  H    0.206292
    32  H    0.208487
    33  C   -0.476965
    34  H    0.203749
    35  H    0.207732
    36  S    0.116580
    37  C   -0.470681
    38  H    0.195757
    39  H    0.218464
    40  C   -0.479556
    41  H    0.190478
    42  H    0.216666
    43  S    0.120853
    44  C   -0.459284
    45  H    0.186625
    46  H    0.187241
    47  C   -0.495912
    48  H    0.182208
    49  H    0.180347
    50  H    0.173865
 Sum of Mulliken charges =  -0.00000
 Dipole moment (field-independent basis, Debye):
    X=             -1.9253    Y=              0.3084    Z=              0.9547  Tot=              2.1710
 Quadrupole moment (field-independent basis, Debye-Ang):
   XX=           -128.8249   YY=           -152.9275   ZZ=           -150.8114
   XY=            -10.4937   XZ=             13.8099   YZ=              0.2491
 Traceless Quadrupole moment (field-independent basis, Debye-Ang):
   XX=             15.3630   YY=             -8.7396   ZZ=             -6.6235
   XY=            -10.4937   XZ=             13.8099   YZ=              0.2491
 Octapole moment (field-independent basis, Debye-Ang**2):
  XXX=           -297.2724  YYY=              6.4536  ZZZ=              3.3556  XYY=            -74.1273
  XXY=             -0.2159  XXZ=             75.1077  XZZ=            -20.3233  YZZ=              1.1995
  YYZ=              1.7853  XYZ=             12.9049
 Hexadecapole moment (field-independent basis, Debye-Ang**3):
 XXXX=         -25925.1164 YYYY=          -2455.3218 ZZZZ=           -606.1283 XXXY=           -607.5800
 XXXZ=           1027.3234 YYYX=            -60.8603 YYYZ=             -3.7090 ZZZX=             13.2207
 ZZZY=             -2.2879 XXYY=          -4911.7476 XXZZ=          -4824.4174 YYZZ=           -513.3546
 XXYZ=            -18.7809 YYXZ=            -27.9968 ZZXY=              2.6384
 Job cpu time:       0 days  1 hours  2 minutes 18.7 seconds.
 Normal termination of Gaussian 16 at Sat Jul  8 12:28:37 2023.
