 Copyright (c) 1988-2019, Gaussian, Inc.  All Rights Reserved.
  
 This is part of the Gaussian(R) 16 program.  It is based on
 the Gaussian(R) 09 system (copyright 2009, Gaussian, Inc.),
 the Gaussian(R) 03 system (copyright 2003, Gaussian, Inc.),
 the Gaussian(R) 98 system (copyright 1998, Gaussian, Inc.),
 the Gaussian(R) 94 system (copyright 1995, Gaussian, Inc.),
 the Gaussian 92(TM) system (copyright 1992, Gaussian, Inc.),
 the Gaussian 90(TM) system (copyright 1990, Gaussian, Inc.),
 the Gaussian 88(TM) system (copyright 1988, Gaussian, Inc.),
 the Gaussian 86(TM) system (copyright 1986, Carnegie Mellon
 University), and the Gaussian 82(TM) system (copyright 1983,
 Carnegie Mellon University). Gaussian is a federally registered
 trademark of Gaussian, Inc.
 Cite this work as:
 Gaussian 16, Revision C.01,
 M. J. Frisch, G. W. Trucks, H. B. Schlegel, G. E. Scuseria, 
 M. A. Robb, J. R. Cheeseman, G. Scalmani, V. Barone, 
 G. A. Petersson, H. Nakatsuji, X. Li, M. Caricato, A. V. Marenich, 
 J. Bloino, B. G. Janesko, R. Gomperts, B. Mennucci, H. P. Hratchian, 
 J. V. Ortiz, A. F. Izmaylov, J. L. Sonnenberg, D. Williams-Young, 
 F. Ding, F. Lipparini, F. Egidi, J. Goings, B. Peng, A. Petrone, 
 T. Henderson, D. Ranasinghe, V. G. Zakrzewski, J. Gao, N. Rega, 
 G. Zheng, W. Liang, M. Hada, M. Ehara, K. Toyota, R. Fukuda, 
 J. Hasegawa, M. Ishida, T. Nakajima, Y. Honda, O. Kitao, H. Nakai, 
 T. Vreven, K. Throssell, J. A. Montgomery, Jr., J. E. Peralta, 
 F. Ogliaro, M. J. Bearpark, J. J. Heyd, E. N. Brothers, K. N. Kudin, 
 V. N. Staroverov, T. A. Keith, R. Kobayashi, J. Normand, 
 K. Raghavachari, A. P. Rendell, J. C. Burant, S. S. Iyengar, 
 J. Tomasi, M. Cossi, J. M. Millam, M. Klene, C. Adamo, R. Cammi, 
 J. W. Ochterski, R. L. Martin, K. Morokuma, O. Farkas, 
 J. B. Foresman, and D. J. Fox, Gaussian, Inc., Wallingford CT, 2019.
 
 ******************************************
 Gaussian 16:  EM64L-G16RevC.01  3-Jul-2019
                 8-Jul-2023 
 ******************************************
 ----------------------------------------------------------------------
 #P HF/6-31G(d) Opt=(Tight,MaxCycle=55) GFInput GFPrint SCF(Conver=8,XQ
 C,MaxConventionalCycles=64,MaxCycle=128) Test
 ----------------------------------------------------------------------
 1/6=55,7=10,18=20,19=15,38=1/1,3;
 2/9=110,12=2,17=6,18=5,40=1/2;
 3/5=1,6=6,7=1,11=9,24=110,25=1,30=1,71=1/1,2,3;
 4//1;
 5/5=2,6=8,7=128,8=3,13=1,38=5,85=64/2,8;
 6/7=2,8=2,9=2,10=2,28=1/1;
 7//1,2,3,16;
 1/6=55,7=10,18=20,19=15/3(2);
 2/9=110/2;
 99//99;
 2/9=110/2;
 3/5=1,6=6,7=1,11=9,25=1,30=1,71=1/1,2,3;
 4/5=5,16=3,69=1/1;
 5/5=2,6=8,7=128,8=3,13=1,38=5,85=64/2,8;
 7//1,2,3,16;
 1/6=55,7=10,18=20,19=15/3(-5);
 2/9=110/2;
 6/7=2,8=2,9=2,10=2,19=2,28=1/1;
 99/9=1/99;
 ----------------------------------------------------------
 Optimization step - Input generated by PyRED DVE-DMDS-OPLS
 ----------------------------------------------------------
 Symbolic Z-matrix:
 Charge =  0 Multiplicity = 1
 C                     9.089     0.191     1.226 
 H                     8.191     0.154     1.849 
 H                     9.743    -0.628     1.54 
 H                     9.609     1.137     1.41 
 C                     8.752     0.043    -0.249 
 H                     9.672    -0.04     -0.836 
 H                     8.168    -0.87     -0.408 
 O                     8.085     1.165    -0.807 
 C                     6.824     1.5      -0.272 
 H                     6.55      2.437    -0.765 
 H                     6.878     1.696     0.807 
 C                     5.723     0.489    -0.529 
 H                     4.745     0.972    -0.415 
 H                     5.799     0.117    -1.561 
 O                     5.85     -0.585     0.391 
 C                     4.976    -1.668     0.178 
 H                     5.434    -2.531     0.672 
 H                     4.887    -1.895    -0.895 
 C                     3.592    -1.465     0.763 
 H                     3.685    -1.094     1.794 
 H                     3.067    -2.435     0.799 
 O                     2.866    -0.551    -0.03 
 C                     1.573    -0.292     0.467 
 H                     1.62      0.132     1.481 
 H                     0.996    -1.229     0.529 
 C                     0.905     0.69     -0.479 
 H                     0.903     0.29     -1.497 
 H                     1.475     1.623    -0.497 
 S                    -0.786     1.14      0.009 
 C                    -1.698    -0.35     -0.525 
 H                    -1.468    -0.554    -1.575 
 H                    -1.39     -1.215     0.069 
 C                    -3.191    -0.105    -0.353 
 H                    -3.508     0.732    -0.983 
 H                    -3.41      0.145     0.688 
 S                    -4.103    -1.606    -0.849 
 C                    -5.816    -0.985    -0.8 
 H                    -6.412    -1.742    -1.318 
 H                    -5.884    -0.069    -1.392 
 C                    -6.357    -0.777     0.611 
 H                    -6.29     -1.714     1.169 
 H                    -5.769    -0.035     1.16 
 S                    -8.109    -0.258     0.643 
 C                    -7.965     1.545     0.879 
 H                    -8.994     1.872     1.055 
 H                    -7.411     1.733     1.804 
 C                    -7.359     2.318    -0.285 
 H                    -7.388     3.394    -0.081 
 H                    -6.312     2.045    -0.448 
 H                    -7.908     2.127    -1.211 
 
 ITRead=  0  0  0  0  0  0  0  0  0  0  0  0  0  0  0  0  0  0  0  0
 ITRead=  0  0  0  0  0  0  0  0  0  0  0  0  0  0  0  0  0  0  0  0
 ITRead=  0  0  0  0  0  0  0  0  0  0
 MicOpt= -1 -1 -1 -1 -1 -1 -1 -1 -1 -1 -1 -1 -1 -1 -1 -1 -1 -1 -1 -1
 MicOpt= -1 -1 -1 -1 -1 -1 -1 -1 -1 -1 -1 -1 -1 -1 -1 -1 -1 -1 -1 -1
 MicOpt= -1 -1 -1 -1 -1 -1 -1 -1 -1 -1
 NAtoms=     50 NQM=       50 NQMF=       0 NMMI=      0 NMMIF=      0
                NMic=       0 NMicF=      0.
                          Input orientation:                          
 ---------------------------------------------------------------------
 Center     Atomic      Atomic             Coordinates (Angstroms)
 Number     Number       Type             X           Y           Z
 ---------------------------------------------------------------------
      1          6           0        9.089000    0.191000    1.226000
      2          1           0        8.191000    0.154000    1.849000
      3          1           0        9.743000   -0.628000    1.540000
      4          1           0        9.609000    1.137000    1.410000
      5          6           0        8.752000    0.043000   -0.249000
      6          1           0        9.672000   -0.040000   -0.836000
      7          1           0        8.168000   -0.870000   -0.408000
      8          8           0        8.085000    1.165000   -0.807000
      9          6           0        6.824000    1.500000   -0.272000
     10          1           0        6.550000    2.437000   -0.765000
     11          1           0        6.878000    1.696000    0.807000
     12          6           0        5.723000    0.489000   -0.529000
     13          1           0        4.745000    0.972000   -0.415000
     14          1           0        5.799000    0.117000   -1.561000
     15          8           0        5.850000   -0.585000    0.391000
     16          6           0        4.976000   -1.668000    0.178000
     17          1           0        5.434000   -2.531000    0.672000
     18          1           0        4.887000   -1.895000   -0.895000
     19          6           0        3.592000   -1.465000    0.763000
     20          1           0        3.685000   -1.094000    1.794000
     21          1           0        3.067000   -2.435000    0.799000
     22          8           0        2.866000   -0.551000   -0.030000
     23          6           0        1.573000   -0.292000    0.467000
     24          1           0        1.620000    0.132000    1.481000
     25          1           0        0.996000   -1.229000    0.529000
     26          6           0        0.905000    0.690000   -0.479000
     27          1           0        0.903000    0.290000   -1.497000
     28          1           0        1.475000    1.623000   -0.497000
     29         16           0       -0.786000    1.140000    0.009000
     30          6           0       -1.698000   -0.350000   -0.525000
     31          1           0       -1.468000   -0.554000   -1.575000
     32          1           0       -1.390000   -1.215000    0.069000
     33          6           0       -3.191000   -0.105000   -0.353000
     34          1           0       -3.508000    0.732000   -0.983000
     35          1           0       -3.410000    0.145000    0.688000
     36         16           0       -4.103000   -1.606000   -0.849000
     37          6           0       -5.816000   -0.985000   -0.800000
     38          1           0       -6.412000   -1.742000   -1.318000
     39          1           0       -5.884000   -0.069000   -1.392000
     40          6           0       -6.357000   -0.777000    0.611000
     41          1           0       -6.290000   -1.714000    1.169000
     42          1           0       -5.769000   -0.035000    1.160000
     43         16           0       -8.109000   -0.258000    0.643000
     44          6           0       -7.965000    1.545000    0.879000
     45          1           0       -8.994000    1.872000    1.055000
     46          1           0       -7.411000    1.733000    1.804000
     47          6           0       -7.359000    2.318000   -0.285000
     48          1           0       -7.388000    3.394000   -0.081000
     49          1           0       -6.312000    2.045000   -0.448000
     50          1           0       -7.908000    2.127000   -1.211000
 ---------------------------------------------------------------------
 Stoichiometry    C14H30O3S3
 Framework group  C1[X(C14H30O3S3)]
                         Standard orientation:                         
 ---------------------------------------------------------------------
 Center     Atomic      Atomic             Coordinates (Angstroms)
 Number     Number       Type             X           Y           Z
 ---------------------------------------------------------------------
      1          6           0        9.088966    0.191041    1.225914
      2          1           0        8.190966    0.154034    1.848914
      3          1           0        9.742973   -0.627953    1.539914
      4          1           0        9.608958    1.137046    1.409914
      5          6           0        8.751967    0.043038   -0.249086
      6          1           0        9.671968   -0.039954   -0.836086
      7          1           0        8.167975   -0.869967   -0.408086
      8          8           0        8.084958    1.165033   -0.807086
      9          6           0        6.823955    1.500022   -0.272086
     10          1           0        6.549947    2.437019   -0.765086
     11          1           0        6.877953    1.696022    0.806914
     12          6           0        5.722963    0.489012   -0.529086
     13          1           0        4.744959    0.972004   -0.415086
     14          1           0        5.798967    0.117013   -1.561086
     15          8           0        5.849973   -0.584987    0.390914
     16          6           0        4.975982   -1.667994    0.177914
     17          1           0        5.433990   -2.530990    0.671914
     18          1           0        4.886984   -1.894995   -0.895086
     19          6           0        3.591980   -1.465006    0.762914
     20          1           0        3.684977   -1.094006    1.793914
     21          1           0        3.066989   -2.435011    0.798914
     22          8           0        2.865973   -0.551013   -0.030086
     23          6           0        1.572970   -0.292024    0.466914
     24          1           0        1.619967    0.131976    1.480914
     25          1           0        0.995978   -1.229029    0.528914
     26          6           0        0.904962    0.689970   -0.479086
     27          1           0        0.902965    0.289970   -1.497086
     28          1           0        1.474954    1.622975   -0.497086
     29         16           0       -0.786042    1.139956    0.008914
     30          6           0       -1.698029   -0.350052   -0.525086
     31          1           0       -1.468027   -0.554050   -1.575086
     32          1           0       -1.390022   -1.215050    0.068914
     33          6           0       -3.191031   -0.105065   -0.353086
     34          1           0       -3.508039    0.731932   -0.983086
     35          1           0       -3.410034    0.144933    0.687914
     36         16           0       -4.103018   -1.606073   -0.849086
     37          6           0       -5.816024   -0.985088   -0.800086
     38          1           0       -6.412017   -1.742093   -1.318086
     39          1           0       -5.884032   -0.069089   -1.392086
     40          6           0       -6.357026   -0.777093    0.610914
     41          1           0       -6.290017   -1.714092    1.168914
     42          1           0       -5.769032   -0.035088    1.159914
     43         16           0       -8.109030   -0.258108    0.642914
     44          6           0       -7.965046    1.544893    0.878914
     45          1           0       -8.994049    1.871884    1.054914
     46          1           0       -7.411047    1.732898    1.803914
     47          6           0       -7.359052    2.317898   -0.285086
     48          1           0       -7.388062    3.393898   -0.081086
     49          1           0       -6.312050    2.044907   -0.448086
     50          1           0       -7.908051    2.126894   -1.211086
 ---------------------------------------------------------------------
 Standard basis: 6-31G(d) (6D, 7F)
   372 basis functions,   752 primitive gaussians,   372 cartesian basis functions
    93 alpha electrons       93 beta electrons
 Requested convergence on RMS density matrix=1.00D-08 within  64 cycles.
 Requested convergence on MAX density matrix=1.00D-06.
 Requested convergence on             energy=1.00D-06.
 SCF Done:  E(RHF) =  -1964.68786337     A.U. after   13 cycles
            NFock= 13  Conv=0.52D-08     -V/T= 2.0009
 Mulliken charges:
     1  C   -0.516244
     2  H    0.177538
     3  H    0.155530
     4  H    0.165364
     5  C    0.024317
     6  H    0.160050
     7  H    0.159011
     8  O   -0.637152
     9  C   -0.000628
    10  H    0.169022
    11  H    0.155920
    12  C   -0.016962
    13  H    0.173591
    14  H    0.154565
    15  O   -0.641218
    16  C   -0.000939
    17  H    0.172524
    18  H    0.158647
    19  C    0.004106
    20  H    0.158523
    21  H    0.141733
    22  O   -0.636628
    23  C    0.034117
    24  H    0.161424
    25  H    0.145156
    26  C   -0.495981
    27  H    0.204663
    28  H    0.211207
    29  S    0.123627
    30  C   -0.475907
    31  H    0.207041
    32  H    0.203796
    33  C   -0.479073
    34  H    0.202821
    35  H    0.202287
    36  S    0.128041
    37  C   -0.472928
    38  H    0.214701
    39  H    0.201593
    40  C   -0.478441
    41  H    0.216298
    42  H    0.191620
    43  S    0.119035
    44  C   -0.469134
    45  H    0.199766
    46  H    0.189565
    47  C   -0.475422
    48  H    0.171599
    49  H    0.157490
    50  H    0.180366
 Sum of Mulliken charges =  -0.00000
 Dipole moment (field-independent basis, Debye):
    X=             -1.1599    Y=             -0.1927    Z=              0.9895  Tot=              1.5368
 Quadrupole moment (field-independent basis, Debye-Ang):
   XX=           -179.6075   YY=           -147.3074   ZZ=           -152.0225
   XY=            -23.8532   XZ=              6.4484   YZ=              0.4874
 Traceless Quadrupole moment (field-independent basis, Debye-Ang):
   XX=            -19.9617   YY=             12.3384   ZZ=              7.6233
   XY=            -23.8532   XZ=              6.4484   YZ=              0.4874
 Octapole moment (field-independent basis, Debye-Ang**2):
  XXX=             -5.9685  YYY=             -2.9925  ZZZ=             -1.2085  XYY=             22.4063
  XXY=             22.3439  XXZ=             38.7991  XZZ=             20.7413  YZZ=              0.6323
  YYZ=              7.9480  XYZ=              2.5880
 Hexadecapole moment (field-independent basis, Debye-Ang**3):
 XXXX=         -32975.6863 YYYY=          -1361.3223 ZZZZ=           -626.1174 XXXY=          -1620.3254
 XXXZ=            567.9602 YYYX=            -45.2167 YYYZ=             -6.6372 ZZZX=             -8.0398
 ZZZY=             -5.9309 XXYY=          -5061.9368 XXZZ=          -5297.1957 YYZZ=           -337.1252
 XXYZ=            203.7152 YYXZ=              0.8835 ZZXY=            -38.0939
 Step number   1 out of a maximum of   55
     Eigenvalues ---    0.00230   0.00230   0.00230   0.00230   0.00230
     Eigenvalues ---    0.00230   0.00430   0.00461   0.00465   0.00498
     Eigenvalues ---    0.00523   0.00545   0.00552   0.01429   0.01433
     Eigenvalues ---    0.01544   0.01557   0.01570   0.01588   0.04278
     Eigenvalues ---    0.04445   0.04541   0.04566   0.04642   0.04704
     Eigenvalues ---    0.04819   0.05096   0.05103   0.05250   0.05290
     Eigenvalues ---    0.05418   0.05528   0.05571   0.05605   0.05646
     Eigenvalues ---    0.05664   0.05666   0.05776   0.05807   0.05832
     Eigenvalues ---    0.05847   0.05861   0.05943   0.06031   0.06048
     Eigenvalues ---    0.06055   0.06079   0.10916   0.10918   0.11186
     Eigenvalues ---    0.11244   0.11311   0.11532   0.11545   0.11641
     Eigenvalues ---    0.11805   0.11877   0.11912   0.11936   0.13564
     Eigenvalues ---    0.13570   0.13647   0.13733   0.13790   0.13922
     Eigenvalues ---    0.13950   0.13977   0.14087   0.14097   0.14107
     Eigenvalues ---    0.14183   0.16000   0.16000   0.16000   0.16000
     Eigenvalues ---    0.16000   0.16000   0.21942   0.22002   0.22007
     Eigenvalues ---    0.22008   0.22017   0.22017   0.22019   0.22039
     Eigenvalues ---    0.22047   0.22071   0.22103   0.22104   0.24062
     Eigenvalues ---    0.24118   0.24240   0.24309   0.24404   0.24850
     Eigenvalues ---    0.25000   0.25000   0.25000   0.25000   0.25000
     Eigenvalues ---    0.25000   0.29852   0.30075   0.30107   0.30344
     Eigenvalues ---    0.30524   0.30687   0.30735   0.33293   0.33445
     Eigenvalues ---    0.33643   0.33673   0.33720   0.33723   0.33906
     Eigenvalues ---    0.34049   0.34179   0.34196   0.34234   0.34265
     Eigenvalues ---    0.34296   0.34300   0.34301   0.34309   0.34330
     Eigenvalues ---    0.34342   0.34345   0.34359   0.34367   0.34381
     Eigenvalues ---    0.34393   0.34402   0.34403   0.34413   0.34431
     Eigenvalues ---    0.34495   0.34495   0.34511   0.42481   0.42527
     Eigenvalues ---    0.43823   0.43976   0.44124   0.44339
 Maximum Force            0.011835     0.000015     NO 
 RMS     Force            0.003495     0.000010     NO 
 Maximum Displacement     0.532252     0.000060     NO 
 RMS     Displacement     0.127446     0.000040     NO 
                          Input orientation:                          
 ---------------------------------------------------------------------
 Center     Atomic      Atomic             Coordinates (Angstroms)
 Number     Number       Type             X           Y           Z
 ---------------------------------------------------------------------
      1          6           0        9.301988    0.224282    1.227872
      2          1           0        8.448946    0.191065    1.892989
      3          1           0        9.984552   -0.562995    1.532878
      4          1           0        9.805959    1.176741    1.353314
      5          6           0        8.901747    0.013882   -0.224596
      6          1           0        9.791584   -0.070202   -0.834776
      7          1           0        8.340767   -0.904324   -0.332685
      8          8           0        8.197118    1.093499   -0.794885
      9          6           0        6.942240    1.453633   -0.289184
     10          1           0        6.698164    2.371547   -0.809433
     11          1           0        6.986953    1.682415    0.769943
     12          6           0        5.820814    0.464396   -0.546155
     13          1           0        4.872134    0.977646   -0.472921
     14          1           0        5.909276    0.059652   -1.550736
     15          8           0        5.873117   -0.575456    0.402333
     16          6           0        4.993224   -1.648039    0.225139
     17          1           0        5.443844   -2.484080    0.746094
     18          1           0        4.910353   -1.912244   -0.825083
     19          6           0        3.612033   -1.426648    0.810278
     20          1           0        3.701450   -1.018119    1.813295
     21          1           0        3.102612   -2.386202    0.882825
     22          8           0        2.864642   -0.565797   -0.002284
     23          6           0        1.577420   -0.298964    0.473650
     24          1           0        1.624827    0.163994    1.454892
     25          1           0        1.023003   -1.228187    0.575491
     26          6           0        0.904815    0.634335   -0.518656
     27          1           0        0.909421    0.195789   -1.507965
     28          1           0        1.465533    1.558152   -0.574479
     29         16           0       -0.789740    1.101613   -0.064770
     30          6           0       -1.731936   -0.375297   -0.567354
     31          1           0       -1.500205   -0.605452   -1.598781
     32          1           0       -1.446698   -1.222044    0.041576
     33          6           0       -3.225335   -0.101641   -0.412363
     34          1           0       -3.520680    0.717387   -1.055485
     35          1           0       -3.444669    0.172844    0.610501
     36         16           0       -4.167960   -1.589607   -0.875595
     37          6           0       -5.879742   -0.970480   -0.852762
     38          1           0       -6.458513   -1.720128   -1.375711
     39          1           0       -5.936148   -0.065788   -1.441199
     40          6           0       -6.453553   -0.770435    0.548945
     41          1           0       -6.393383   -1.703003    1.092600
     42          1           0       -5.891511   -0.039261    1.114452
     43         16           0       -8.210170   -0.274246    0.553938
     44          6           0       -8.152220    1.510885    0.915631
     45          1           0       -9.187137    1.774758    1.096547
     46          1           0       -7.625451    1.656725    1.850928
     47          6           0       -7.575573    2.403036   -0.176955
     48          1           0       -7.669656    3.446079    0.109152
     49          1           0       -6.522402    2.208867   -0.341737
     50          1           0       -8.096853    2.259419   -1.115715
 ---------------------------------------------------------------------
 Stoichiometry    C14H30O3S3
 Framework group  C1[X(C14H30O3S3)]
                         Standard orientation:                         
 ---------------------------------------------------------------------
 Center     Atomic      Atomic             Coordinates (Angstroms)
 Number     Number       Type             X           Y           Z
 ---------------------------------------------------------------------
      1          6           0        9.313856    0.265306    1.212537
      2          1           0        8.462644    0.241891    1.880409
      3          1           0        9.998440   -0.515766    1.528761
      4          1           0        9.816695    1.220472    1.320754
      5          6           0        8.910065    0.030163   -0.235146
      6          1           0        9.798397   -0.062738   -0.846237
      7          1           0        8.350209   -0.890550   -0.326429
      8          8           0        8.202258    1.099086   -0.821421
      9          6           0        6.948182    1.465715   -0.318404
     10          1           0        6.701308    2.374477   -0.853196
     11          1           0        6.995370    1.712160    0.736646
     12          6           0        5.827595    0.470666   -0.555857
     13          1           0        4.878326    0.983648   -0.488618
     14          1           0        5.913998    0.049390   -1.553798
     15          8           0        5.884027   -0.553176    0.409659
     16          6           0        5.005313   -1.629871    0.252708
     17          1           0        5.458606   -2.456452    0.786287
     18          1           0        4.920046   -1.911643   -0.792745
     19          6           0        3.625350   -1.400832    0.837800
     20          1           0        3.716816   -0.975533    1.833637
     21          1           0        3.117599   -2.359804    0.927676
     22          8           0        2.874472   -0.554740    0.013043
     23          6           0        1.588116   -0.281943    0.487937
     24          1           0        1.637429    0.197352    1.461208
     25          1           0        1.035401   -1.210169    0.606719
     26          6           0        0.911432    0.633706   -0.517947
     27          1           0        0.914071    0.178761   -1.499830
     28          1           0        1.470579    1.557301   -0.590644
     29         16           0       -0.782622    1.105946   -0.067336
     30          6           0       -1.723885   -0.380529   -0.542735
     31          1           0       -1.494554   -0.627474   -1.570810
     32          1           0       -1.435723   -1.216597    0.079430
     33          6           0       -3.217284   -0.106559   -0.388297
     34          1           0       -3.515602    0.701209   -1.044160
     35          1           0       -3.434309    0.184585    0.630445
     36         16           0       -4.158855   -1.603433   -0.824164
     37          6           0       -5.871519   -0.986566   -0.807025
     38          1           0       -6.450531   -1.745677   -1.315867
     39          1           0       -5.930885   -0.091879   -1.410281
     40          6           0       -6.441894   -0.764075    0.592699
     41          1           0       -6.378841   -1.687375    1.151634
     42          1           0       -5.879469   -0.022753    1.144445
     43         16           0       -8.199251   -0.270493    0.594167
     44          6           0       -8.143080    1.520495    0.925948
     45          1           0       -9.177914    1.785799    1.105235
     46          1           0       -7.614041    1.682668    1.857266
     47          6           0       -7.570722    2.395196   -0.182881
     48          1           0       -7.665642    3.442715    0.086081
     49          1           0       -6.517697    2.199884   -0.347246
     50          1           0       -8.094284    2.235198   -1.117714
 ---------------------------------------------------------------------
 Standard basis: 6-31G(d) (6D, 7F)
   372 basis functions,   752 primitive gaussians,   372 cartesian basis functions
    93 alpha electrons       93 beta electrons
 Requested convergence on RMS density matrix=1.00D-08 within  64 cycles.
 Requested convergence on MAX density matrix=1.00D-06.
 Requested convergence on             energy=1.00D-06.
 SCF Done:  E(RHF) =  -1964.69158080     A.U. after   12 cycles
            NFock= 12  Conv=0.50D-08     -V/T= 2.0006
 Step number   2 out of a maximum of   55
     Eigenvalues ---    0.00230   0.00230   0.00230   0.00230   0.00230
     Eigenvalues ---    0.00241   0.00430   0.00462   0.00465   0.00499
     Eigenvalues ---    0.00523   0.00548   0.00556   0.01429   0.01433
     Eigenvalues ---    0.01544   0.01561   0.01570   0.01598   0.04216
     Eigenvalues ---    0.04403   0.04498   0.04522   0.04598   0.04674
     Eigenvalues ---    0.04807   0.05047   0.05053   0.05185   0.05264
     Eigenvalues ---    0.05420   0.05490   0.05518   0.05634   0.05649
     Eigenvalues ---    0.05665   0.05689   0.05795   0.05809   0.05838
     Eigenvalues ---    0.05844   0.05851   0.05899   0.06029   0.06046
     Eigenvalues ---    0.06048   0.06058   0.10975   0.10981   0.11251
     Eigenvalues ---    0.11316   0.11439   0.11574   0.11592   0.11681
     Eigenvalues ---    0.11880   0.11927   0.11942   0.12032   0.13601
     Eigenvalues ---    0.13606   0.13648   0.13773   0.13842   0.13952
     Eigenvalues ---    0.13981   0.14016   0.14123   0.14134   0.14161
     Eigenvalues ---    0.14243   0.15989   0.16000   0.16000   0.16000
     Eigenvalues ---    0.16000   0.16015   0.21735   0.21949   0.22010
     Eigenvalues ---    0.22016   0.22022   0.22025   0.22031   0.22046
     Eigenvalues ---    0.22053   0.22078   0.22105   0.22204   0.23971
     Eigenvalues ---    0.24089   0.24195   0.24272   0.24385   0.24788
     Eigenvalues ---    0.24869   0.25000   0.25000   0.25000   0.25000
     Eigenvalues ---    0.26825   0.29857   0.30064   0.30117   0.30336
     Eigenvalues ---    0.30522   0.30626   0.30718   0.33320   0.33479
     Eigenvalues ---    0.33627   0.33681   0.33704   0.33722   0.33899
     Eigenvalues ---    0.33975   0.34147   0.34186   0.34240   0.34268
     Eigenvalues ---    0.34298   0.34299   0.34301   0.34314   0.34328
     Eigenvalues ---    0.34343   0.34351   0.34363   0.34373   0.34379
     Eigenvalues ---    0.34393   0.34398   0.34408   0.34428   0.34472
     Eigenvalues ---    0.34490   0.34505   0.36957   0.42035   0.42642
     Eigenvalues ---    0.43396   0.43967   0.44209   0.44485
 Maximum Force            0.006739     0.000015     NO 
 RMS     Force            0.001035     0.000010     NO 
 Maximum Displacement     0.357098     0.000060     NO 
 RMS     Displacement     0.094090     0.000040     NO 
                          Input orientation:                          
 ---------------------------------------------------------------------
 Center     Atomic      Atomic             Coordinates (Angstroms)
 Number     Number       Type             X           Y           Z
 ---------------------------------------------------------------------
      1          6           0        9.162212    0.243269    1.265043
      2          1           0        8.293128    0.260892    1.909810
      3          1           0        9.807992   -0.559612    1.605618
      4          1           0        9.697203    1.179233    1.376303
      5          6           0        8.787288    0.011625   -0.191572
      6          1           0        9.684118   -0.113226   -0.782408
      7          1           0        8.199135   -0.891445   -0.286279
      8          8           0        8.120020    1.095680   -0.785459
      9          6           0        6.868271    1.469570   -0.295330
     10          1           0        6.624091    2.390209   -0.809502
     11          1           0        6.906798    1.684318    0.766496
     12          6           0        5.759101    0.470355   -0.557798
     13          1           0        4.803363    0.969082   -0.466071
     14          1           0        5.846831    0.088298   -1.570299
     15          8           0        5.851068   -0.583692    0.366220
     16          6           0        4.997956   -1.670345    0.173026
     17          1           0        5.462402   -2.514632    0.666546
     18          1           0        4.905140   -1.905023   -0.882280
     19          6           0        3.619173   -1.475625    0.769506
     20          1           0        3.715610   -1.100019    1.783798
     21          1           0        3.116791   -2.439891    0.813172
     22          8           0        2.876776   -0.585516   -0.011857
     23          6           0        1.591703   -0.324006    0.466703
     24          1           0        1.634864    0.109411    1.460656
     25          1           0        1.024129   -1.247609    0.534251
     26          6           0        0.934497    0.647620   -0.499081
     27          1           0        0.938286    0.238275   -1.499807
     28          1           0        1.503459    1.566442   -0.523789
     29         16           0       -0.755272    1.119136   -0.036583
     30          6           0       -1.703539   -0.335740   -0.584143
     31          1           0       -1.486443   -0.527365   -1.625594
     32          1           0       -1.415035   -1.204473   -0.010104
     33          6           0       -3.193376   -0.060899   -0.400571
     34          1           0       -3.491964    0.782406   -1.008145
     35          1           0       -3.399272    0.173644    0.634249
     36         16           0       -4.141400   -1.528652   -0.909123
     37          6           0       -5.849557   -0.914600   -0.801687
     38          1           0       -6.443769   -1.640751   -1.338098
     39          1           0       -5.926186    0.018113   -1.342085
     40          6           0       -6.371854   -0.777653    0.627110
     41          1           0       -6.292755   -1.728191    1.133985
     42          1           0       -5.789910   -0.064808    1.194466
     43         16           0       -8.124771   -0.280514    0.703719
     44          6           0       -8.030581    1.522511    0.926209
     45          1           0       -9.047912    1.810409    1.157059
     46          1           0       -7.436483    1.732486    1.806188
     47          6           0       -7.521854    2.314793   -0.272928
     48          1           0       -7.580197    3.377773   -0.063480
     49          1           0       -6.487186    2.084157   -0.497127
     50          1           0       -8.113091    2.108579   -1.155932
 ---------------------------------------------------------------------
 Stoichiometry    C14H30O3S3
 Framework group  C1[X(C14H30O3S3)]
                         Standard orientation:                         
 ---------------------------------------------------------------------
 Center     Atomic      Atomic             Coordinates (Angstroms)
 Number     Number       Type             X           Y           Z
 ---------------------------------------------------------------------
      1          6           0        9.161784    0.266180    1.267399
      2          1           0        8.292699    0.282706    1.912193
      3          1           0        9.809327   -0.534875    1.608923
      4          1           0        9.694744    1.203441    1.377477
      5          6           0        8.787285    0.031931   -0.188909
      6          1           0        9.684351   -0.091696   -0.779643
      7          1           0        8.201091   -0.872531   -0.282472
      8          8           0        8.117629    1.113802   -0.784091
      9          6           0        6.865096    1.485572   -0.294349
     10          1           0        6.618887    2.405045   -0.809639
     11          1           0        6.903215    1.701709    0.767210
     12          6           0        5.758087    0.483626   -0.555525
     13          1           0        4.801272    0.980387   -0.464357
     14          1           0        5.846592    0.100516   -1.567560
     15          8           0        5.852396   -0.569081    0.369783
     16          6           0        5.001638   -1.657823    0.177973
     17          1           0        5.467946   -2.500491    0.672504
     18          1           0        4.909275   -1.893999   -0.877037
     19          6           0        3.622467   -1.465368    0.774293
     20          1           0        3.718143   -1.088306    1.788117
     21          1           0        3.122185   -2.430669    0.819173
     22          8           0        2.878095   -0.577836   -0.008121
     23          6           0        1.592482   -0.318533    0.470190
     24          1           0        1.634755    0.116199    1.463608
     25          1           0        1.026921   -1.243284    0.538907
     26          6           0        0.933112    0.650474   -0.496749
     27          1           0        0.937736    0.239908   -1.496971
     28          1           0        1.500074    1.570500   -0.522619
     29         16           0       -0.757653    1.118884   -0.034734
     30          6           0       -1.702784   -0.338722   -0.580451
     31          1           0       -1.485329   -0.531155   -1.621678
     32          1           0       -1.412361   -1.206120   -0.005361
     33          6           0       -3.193205   -0.066895   -0.397132
     34          1           0       -3.493659    0.775011   -1.005725
     35          1           0       -3.399554    0.168472    0.637412
     36         16           0       -4.138063   -1.537330   -0.903824
     37          6           0       -5.847546   -0.926861   -0.797044
     38          1           0       -6.440207   -1.654962   -1.332528
     39          1           0       -5.926232    0.005018   -1.338585
     40          6           0       -6.370061   -0.789294    0.631613
     41          1           0       -6.288868   -1.739034    1.139651
     42          1           0       -5.789637   -0.074488    1.198058
     43         16           0       -8.124050   -0.295873    0.707711
     44          6           0       -8.033768    1.507625    0.927979
     45          1           0       -9.051711    1.793594    1.158534
     46          1           0       -7.440080    1.719973    1.807665
     47          6           0       -7.526831    2.299536   -0.272161
     48          1           0       -7.587473    3.362643   -0.064016
     49          1           0       -6.491676    2.070874   -0.496135
     50          1           0       -8.117666    2.090951   -1.154876
 ---------------------------------------------------------------------
 Standard basis: 6-31G(d) (6D, 7F)
   372 basis functions,   752 primitive gaussians,   372 cartesian basis functions
    93 alpha electrons       93 beta electrons
 Requested convergence on RMS density matrix=1.00D-08 within  64 cycles.
 Requested convergence on MAX density matrix=1.00D-06.
 Requested convergence on             energy=1.00D-06.
 SCF Done:  E(RHF) =  -1964.69175024     A.U. after   12 cycles
            NFock= 12  Conv=0.58D-08     -V/T= 2.0005
 Step number   3 out of a maximum of   55
     Eigenvalues ---    0.00227   0.00230   0.00230   0.00230   0.00232
     Eigenvalues ---    0.00320   0.00430   0.00465   0.00465   0.00499
     Eigenvalues ---    0.00523   0.00550   0.00589   0.01410   0.01431
     Eigenvalues ---    0.01542   0.01549   0.01570   0.01591   0.04272
     Eigenvalues ---    0.04435   0.04536   0.04558   0.04721   0.04805
     Eigenvalues ---    0.05079   0.05086   0.05132   0.05236   0.05443
     Eigenvalues ---    0.05466   0.05517   0.05543   0.05638   0.05660
     Eigenvalues ---    0.05696   0.05729   0.05796   0.05803   0.05842
     Eigenvalues ---    0.05853   0.05873   0.05932   0.06050   0.06056
     Eigenvalues ---    0.06091   0.06141   0.10881   0.10940   0.11072
     Eigenvalues ---    0.11225   0.11320   0.11543   0.11566   0.11656
     Eigenvalues ---    0.11713   0.11831   0.11881   0.11902   0.13576
     Eigenvalues ---    0.13582   0.13632   0.13752   0.13822   0.13933
     Eigenvalues ---    0.13968   0.14027   0.14074   0.14091   0.14119
     Eigenvalues ---    0.14159   0.15969   0.16000   0.16000   0.16000
     Eigenvalues ---    0.16003   0.16011   0.21339   0.21953   0.22010
     Eigenvalues ---    0.22017   0.22026   0.22028   0.22033   0.22054
     Eigenvalues ---    0.22073   0.22088   0.22097   0.23159   0.23974
     Eigenvalues ---    0.24089   0.24207   0.24306   0.24378   0.24725
     Eigenvalues ---    0.24863   0.25000   0.25000   0.25000   0.25167
     Eigenvalues ---    0.29552   0.29992   0.30080   0.30217   0.30350
     Eigenvalues ---    0.30518   0.30715   0.33234   0.33321   0.33479
     Eigenvalues ---    0.33660   0.33691   0.33722   0.33839   0.33926
     Eigenvalues ---    0.34015   0.34185   0.34240   0.34267   0.34267
     Eigenvalues ---    0.34298   0.34300   0.34302   0.34327   0.34341
     Eigenvalues ---    0.34349   0.34363   0.34371   0.34378   0.34392
     Eigenvalues ---    0.34398   0.34408   0.34428   0.34442   0.34487
     Eigenvalues ---    0.34504   0.36109   0.38702   0.41214   0.42726
     Eigenvalues ---    0.43432   0.44035   0.44262   0.45403
 Maximum Force            0.004326     0.000015     NO 
 RMS     Force            0.000793     0.000010     NO 
 Maximum Displacement     0.583468     0.000060     NO 
 RMS     Displacement     0.114733     0.000040     NO 
                          Input orientation:                          
 ---------------------------------------------------------------------
 Center     Atomic      Atomic             Coordinates (Angstroms)
 Number     Number       Type             X           Y           Z
 ---------------------------------------------------------------------
      1          6           0        9.179341    0.325994    1.319457
      2          1           0        8.304910    0.392151    1.955684
      3          1           0        9.824768   -0.446775    1.726763
      4          1           0        9.712145    1.270201    1.360029
      5          6           0        8.813209   -0.019077   -0.117569
      6          1           0        9.716552   -0.183363   -0.690992
      7          1           0        8.232743   -0.932840   -0.144379
      8          8           0        8.145271    1.013146   -0.798378
      9          6           0        6.883906    1.416606   -0.355193
     10          1           0        6.653408    2.304371   -0.931908
     11          1           0        6.898577    1.699726    0.692713
     12          6           0        5.771219    0.409827   -0.578991
     13          1           0        4.816562    0.921455   -0.541582
     14          1           0        5.878692   -0.035067   -1.565189
     15          8           0        5.830508   -0.583468    0.412962
     16          6           0        4.975455   -1.676536    0.265570
     17          1           0        5.426302   -2.494054    0.816154
     18          1           0        4.900457   -1.972444   -0.777411
     19          6           0        3.585483   -1.443643    0.823417
     20          1           0        3.665789   -1.015129    1.819577
     21          1           0        3.075024   -2.402799    0.908899
     22          8           0        2.865979   -0.591567   -0.019895
     23          6           0        1.573171   -0.295745    0.417698
     24          1           0        1.597904    0.191081    1.389033
     25          1           0        0.994357   -1.210898    0.522031
     26          6           0        0.943126    0.627675   -0.612009
     27          1           0        0.962955    0.163863   -1.589845
     28          1           0        1.520442    1.540834   -0.674618
     29         16           0       -0.751511    1.134805   -0.208412
     30          6           0       -1.698396   -0.338349   -0.708106
     31          1           0       -1.477341   -0.567862   -1.742372
     32          1           0       -1.414182   -1.187240   -0.100815
     33          6           0       -3.188457   -0.054213   -0.541217
     34          1           0       -3.481835    0.769918   -1.179115
     35          1           0       -3.398838    0.215283    0.485365
     36         16           0       -4.135439   -1.537424   -1.005856
     37          6           0       -5.844625   -0.928701   -0.880090
     38          1           0       -6.443734   -1.661461   -1.404272
     39          1           0       -5.931545    0.000824   -1.425798
     40          6           0       -6.348191   -0.784807    0.555456
     41          1           0       -6.256964   -1.734759    1.063793
     42          1           0       -5.761449   -0.066515    1.113715
     43         16           0       -8.104600   -0.304772    0.660970
     44          6           0       -8.027505    1.470250    1.055987
     45          1           0       -9.043811    1.717372    1.337874
     46          1           0       -7.414488    1.603296    1.939430
     47          6           0       -7.562025    2.388517   -0.069238
     48          1           0       -7.639572    3.425146    0.245278
     49          1           0       -6.526711    2.206035   -0.334120
     50          1           0       -8.168036    2.255132   -0.957485
 ---------------------------------------------------------------------
 Stoichiometry    C14H30O3S3
 Framework group  C1[X(C14H30O3S3)]
                         Standard orientation:                         
 ---------------------------------------------------------------------
 Center     Atomic      Atomic             Coordinates (Angstroms)
 Number     Number       Type             X           Y           Z
 ---------------------------------------------------------------------
      1          6           0        9.179290    0.408862    1.311408
      2          1           0        8.306174    0.498492    1.946567
      3          1           0        9.827588   -0.345320    1.747945
      4          1           0        9.709825    1.355214    1.312629
      5          6           0        8.810689    0.005306   -0.109664
      6          1           0        9.713107   -0.179775   -0.678188
      7          1           0        8.232447   -0.910188   -0.098245
      8          8           0        8.138596    1.007658   -0.829878
      9          6           0        6.877258    1.425610   -0.400253
     10          1           0        6.643206    2.288867   -1.011698
     11          1           0        6.893653    1.750747    0.635360
     12          6           0        5.766574    0.407962   -0.580629
     13          1           0        4.810731    0.918386   -0.561548
     14          1           0        5.872871   -0.076038   -1.548365
     15          8           0        5.830646   -0.544423    0.450379
     16          6           0        4.977987   -1.644593    0.349200
     17          1           0        5.432151   -2.438183    0.931173
     18          1           0        4.901310   -1.982453   -0.680832
     19          6           0        3.588735   -1.392759    0.900573
     20          1           0        3.670281   -0.924273    1.878469
     21          1           0        3.080874   -2.348917    1.025852
     22          8           0        2.865150   -0.577076    0.025370
     23          6           0        1.572626   -0.266975    0.453818
     24          1           0        1.598395    0.258642    1.404694
     25          1           0        0.996343   -1.178571    0.596325
     26          6           0        0.937889    0.612700   -0.610718
     27          1           0        0.956608    0.109923   -1.569126
     28          1           0        1.512774    1.523980   -0.711451
     29         16           0       -0.757070    1.131602   -0.223778
     30          6           0       -1.701427   -0.362756   -0.661442
     31          1           0       -1.482199   -0.633214   -1.686156
     32          1           0       -1.413685   -1.185810   -0.021142
     33          6           0       -3.191802   -0.075710   -0.502529
     34          1           0       -3.488717    0.721348   -1.172391
     35          1           0       -3.400474    0.234414    0.512871
     36         16           0       -4.136151   -1.578705   -0.904761
     37          6           0       -5.846556   -0.969519   -0.799481
     38          1           0       -6.445046   -1.724238   -1.292275
     39          1           0       -5.937063   -0.062943   -1.381973
     40          6           0       -6.347148   -0.769126    0.630317
     41          1           0       -6.252370   -1.697608    1.176281
     42          1           0       -5.760910   -0.027520    1.157772
     43         16           0       -8.104502   -0.289452    0.720659
     44          6           0       -8.030927    1.500221    1.043676
     45          1           0       -9.047190    1.756055    1.317838
     46          1           0       -7.416196    1.670220    1.919558
     47          6           0       -7.570354    2.373532   -0.118743
     48          1           0       -7.649761    3.421800    0.153953
     49          1           0       -6.535204    2.183017   -0.378563
     50          1           0       -8.178088    2.203019   -0.999429
 ---------------------------------------------------------------------
 Standard basis: 6-31G(d) (6D, 7F)
   372 basis functions,   752 primitive gaussians,   372 cartesian basis functions
    93 alpha electrons       93 beta electrons
 Requested convergence on RMS density matrix=1.00D-08 within  64 cycles.
 Requested convergence on MAX density matrix=1.00D-06.
 Requested convergence on             energy=1.00D-06.
 SCF Done:  E(RHF) =  -1964.69199706     A.U. after   12 cycles
            NFock= 12  Conv=0.39D-08     -V/T= 2.0006
 Step number   4 out of a maximum of   55
     Eigenvalues ---    0.00214   0.00230   0.00230   0.00232   0.00241
     Eigenvalues ---    0.00429   0.00444   0.00460   0.00493   0.00523
     Eigenvalues ---    0.00543   0.00558   0.00696   0.01180   0.01431
     Eigenvalues ---    0.01479   0.01545   0.01570   0.01584   0.04277
     Eigenvalues ---    0.04432   0.04542   0.04690   0.04722   0.05005
     Eigenvalues ---    0.05091   0.05098   0.05137   0.05280   0.05441
     Eigenvalues ---    0.05453   0.05541   0.05553   0.05662   0.05697
     Eigenvalues ---    0.05707   0.05739   0.05791   0.05822   0.05855
     Eigenvalues ---    0.05867   0.05881   0.05953   0.06050   0.06063
     Eigenvalues ---    0.06081   0.06099   0.10896   0.10926   0.11153
     Eigenvalues ---    0.11228   0.11395   0.11551   0.11581   0.11621
     Eigenvalues ---    0.11787   0.11823   0.11901   0.11947   0.13571
     Eigenvalues ---    0.13577   0.13630   0.13730   0.13798   0.13950
     Eigenvalues ---    0.13989   0.14029   0.14078   0.14099   0.14159
     Eigenvalues ---    0.14173   0.15950   0.16000   0.16000   0.16001
     Eigenvalues ---    0.16004   0.16022   0.21683   0.21953   0.22011
     Eigenvalues ---    0.22019   0.22028   0.22032   0.22043   0.22056
     Eigenvalues ---    0.22065   0.22091   0.22776   0.23532   0.23998
     Eigenvalues ---    0.24089   0.24209   0.24323   0.24400   0.24630
     Eigenvalues ---    0.24855   0.25000   0.25000   0.25005   0.27571
     Eigenvalues ---    0.29570   0.29949   0.30177   0.30225   0.30402
     Eigenvalues ---    0.30512   0.30765   0.32815   0.33319   0.33483
     Eigenvalues ---    0.33651   0.33690   0.33722   0.33749   0.33923
     Eigenvalues ---    0.34080   0.34180   0.34231   0.34248   0.34275
     Eigenvalues ---    0.34298   0.34300   0.34302   0.34331   0.34343
     Eigenvalues ---    0.34351   0.34363   0.34372   0.34379   0.34392
     Eigenvalues ---    0.34395   0.34409   0.34420   0.34431   0.34486
     Eigenvalues ---    0.34507   0.35508   0.36630   0.41768   0.42789
     Eigenvalues ---    0.43476   0.44037   0.44282   0.45852
 Maximum Force            0.001317     0.000015     NO 
 RMS     Force            0.000283     0.000010     NO 
 Maximum Displacement     0.190169     0.000060     NO 
 RMS     Displacement     0.038885     0.000040     NO 
                          Input orientation:                          
 ---------------------------------------------------------------------
 Center     Atomic      Atomic             Coordinates (Angstroms)
 Number     Number       Type             X           Y           Z
 ---------------------------------------------------------------------
      1          6           0        9.233378    0.358957    1.304559
      2          1           0        8.371278    0.438813    1.956829
      3          1           0        9.888551   -0.402896    1.717976
      4          1           0        9.764663    1.305560    1.311717
      5          6           0        8.838750   -0.021037   -0.116916
      6          1           0        9.732974   -0.196100   -0.702661
      7          1           0        8.262500   -0.938267   -0.110354
      8          8           0        8.156752    0.993666   -0.810231
      9          6           0        6.896723    1.401109   -0.365564
     10          1           0        6.669641    2.288049   -0.945954
     11          1           0        6.910320    1.689758    0.681683
     12          6           0        5.776360    0.400788   -0.587941
     13          1           0        4.825364    0.921525   -0.560639
     14          1           0        5.885864   -0.051890   -1.571297
     15          8           0        5.818814   -0.584471    0.412572
     16          6           0        4.961614   -1.676321    0.266284
     17          1           0        5.414637   -2.494989    0.814650
     18          1           0        4.881951   -1.972786   -0.777156
     19          6           0        3.573290   -1.445072    0.831786
     20          1           0        3.658384   -1.018522    1.829312
     21          1           0        3.062459   -2.404958    0.918259
     22          8           0        2.849330   -0.592662   -0.006899
     23          6           0        1.558701   -0.297148    0.436931
     24          1           0        1.587417    0.188690    1.409574
     25          1           0        0.979531   -1.212915    0.542672
     26          6           0        0.922914    0.627739   -0.588785
     27          1           0        0.938665    0.165001   -1.567909
     28          1           0        1.499766    1.541827   -0.652534
     29         16           0       -0.770904    1.131465   -0.176303
     30          6           0       -1.720404   -0.332348   -0.698512
     31          1           0       -1.499946   -0.546479   -1.736905
     32          1           0       -1.437932   -1.191453   -0.103893
     33          6           0       -3.210398   -0.048132   -0.527286
     34          1           0       -3.501092    0.790262   -1.148702
     35          1           0       -3.420969    0.200660    0.505034
     36         16           0       -4.160223   -1.519391   -1.023550
     37          6           0       -5.868001   -0.906468   -0.894062
     38          1           0       -6.467731   -1.619866   -1.444814
     39          1           0       -5.946048    0.040652   -1.411739
     40          6           0       -6.382208   -0.801359    0.541219
     41          1           0       -6.300508   -1.765932    1.024245
     42          1           0       -5.794640   -0.101424    1.122566
     43         16           0       -8.135667   -0.309495    0.645135
     44          6           0       -8.042580    1.464359    1.040989
     45          1           0       -9.065841    1.735422    1.273602
     46          1           0       -7.468918    1.586807    1.952643
     47          6           0       -7.501652    2.367103   -0.063331
     48          1           0       -7.569533    3.407259    0.243663
     49          1           0       -6.458989    2.157486   -0.277271
     50          1           0       -8.067403    2.243424   -0.979690
 ---------------------------------------------------------------------
 Stoichiometry    C14H30O3S3
 Framework group  C1[X(C14H30O3S3)]
                         Standard orientation:                         
 ---------------------------------------------------------------------
 Center     Atomic      Atomic             Coordinates (Angstroms)
 Number     Number       Type             X           Y           Z
 ---------------------------------------------------------------------
      1          6           0        9.241266    0.442931    1.288534
      2          1           0        8.380831    0.551208    1.938900
      3          1           0        9.899008   -0.297954    1.734684
      4          1           0        9.770796    1.389785    1.250623
      5          6           0        8.843407   -0.002742   -0.112824
      6          1           0        9.736329   -0.203007   -0.692449
      7          1           0        8.268896   -0.919701   -0.062431
      8          8           0        8.157592    0.977803   -0.850129
      9          6           0        6.898041    1.403076   -0.421076
     10          1           0        6.667690    2.261979   -1.040999
     11          1           0        6.914002    1.739620    0.611742
     12          6           0        5.778939    0.391634   -0.594002
     13          1           0        4.827049    0.911418   -0.587965
     14          1           0        5.886562   -0.105612   -1.555803
     15          8           0        5.826012   -0.546479    0.450647
     16          6           0        4.970454   -1.645394    0.357188
     17          1           0        5.426528   -2.437178    0.941334
     18          1           0        4.888452   -1.989687   -0.671279
     19          6           0        3.583274   -1.390793    0.915418
     20          1           0        3.670336   -0.918657    1.892020
     21          1           0        3.074482   -2.346573    1.047413
     22          8           0        2.855396   -0.579131    0.040483
     23          6           0        1.565452   -0.265760    0.473936
     24          1           0        1.595957    0.264359    1.423114
     25          1           0        0.988293   -1.176701    0.623343
     26          6           0        0.925094    0.609851   -0.591417
     27          1           0        0.938993    0.102588   -1.548261
     28          1           0        1.500054    1.521042   -0.698794
     29         16           0       -0.768514    1.129069   -0.197706
     30          6           0       -1.716717   -0.358869   -0.649313
     31          1           0       -1.498741   -0.620159   -1.677383
     32          1           0       -1.430990   -1.189217   -0.016615
     33          6           0       -3.206760   -0.069673   -0.487085
     34          1           0       -3.500746    0.738739   -1.145576
     35          1           0       -3.414932    0.225979    0.533295
     36         16           0       -4.155204   -1.563856   -0.912432
     37          6           0       -5.863760   -0.948601   -0.806396
     38          1           0       -6.463679   -1.687624   -1.322034
     39          1           0       -5.945015   -0.026436   -1.366866
     40          6           0       -6.374179   -0.778470    0.623994
     41          1           0       -6.289335   -1.719657    1.150643
     42          1           0       -5.786312   -0.051510    1.170848
     43         16           0       -8.128261   -0.285402    0.710184
     44          6           0       -8.037395    1.504945    1.023756
     45          1           0       -9.060513    1.784639    1.246577
     46          1           0       -7.461437    1.670202    1.927170
     47          6           0       -7.501223    2.356871   -0.122461
     48          1           0       -7.570199    3.409929    0.136554
     49          1           0       -6.458768    2.139450   -0.329511
     50          1           0       -8.069281    2.190181   -1.030540
 ---------------------------------------------------------------------
 Standard basis: 6-31G(d) (6D, 7F)
   372 basis functions,   752 primitive gaussians,   372 cartesian basis functions
    93 alpha electrons       93 beta electrons
 Requested convergence on RMS density matrix=1.00D-08 within  64 cycles.
 Requested convergence on MAX density matrix=1.00D-06.
 Requested convergence on             energy=1.00D-06.
 SCF Done:  E(RHF) =  -1964.69205565     A.U. after   11 cycles
            NFock= 11  Conv=0.43D-08     -V/T= 2.0006
 Step number   5 out of a maximum of   55
     Eigenvalues ---    0.00220   0.00230   0.00230   0.00231   0.00256
     Eigenvalues ---    0.00430   0.00436   0.00447   0.00490   0.00523
     Eigenvalues ---    0.00534   0.00571   0.00707   0.00875   0.01433
     Eigenvalues ---    0.01487   0.01546   0.01570   0.01581   0.04306
     Eigenvalues ---    0.04435   0.04541   0.04685   0.04795   0.05091
     Eigenvalues ---    0.05097   0.05110   0.05146   0.05273   0.05442
     Eigenvalues ---    0.05537   0.05548   0.05647   0.05681   0.05687
     Eigenvalues ---    0.05730   0.05749   0.05786   0.05820   0.05858
     Eigenvalues ---    0.05872   0.05920   0.05961   0.06067   0.06071
     Eigenvalues ---    0.06096   0.06306   0.10923   0.10944   0.11223
     Eigenvalues ---    0.11255   0.11483   0.11540   0.11581   0.11656
     Eigenvalues ---    0.11823   0.11845   0.11914   0.12036   0.13571
     Eigenvalues ---    0.13577   0.13632   0.13784   0.13825   0.13946
     Eigenvalues ---    0.13982   0.14072   0.14084   0.14116   0.14168
     Eigenvalues ---    0.14307   0.15967   0.15997   0.16000   0.16002
     Eigenvalues ---    0.16007   0.16090   0.21799   0.21961   0.22012
     Eigenvalues ---    0.22017   0.22028   0.22033   0.22048   0.22063
     Eigenvalues ---    0.22088   0.22448   0.23004   0.23482   0.24027
     Eigenvalues ---    0.24094   0.24219   0.24351   0.24391   0.24773
     Eigenvalues ---    0.24839   0.24987   0.25000   0.25783   0.28590
     Eigenvalues ---    0.29502   0.30030   0.30165   0.30314   0.30474
     Eigenvalues ---    0.30523   0.30779   0.33314   0.33357   0.33481
     Eigenvalues ---    0.33661   0.33692   0.33721   0.33854   0.33952
     Eigenvalues ---    0.34086   0.34182   0.34240   0.34264   0.34293
     Eigenvalues ---    0.34298   0.34300   0.34326   0.34337   0.34349
     Eigenvalues ---    0.34362   0.34365   0.34377   0.34390   0.34392
     Eigenvalues ---    0.34400   0.34407   0.34428   0.34484   0.34504
     Eigenvalues ---    0.34950   0.36189   0.39892   0.41890   0.42901
     Eigenvalues ---    0.43487   0.44060   0.44475   0.48849
 Maximum Force            0.001663     0.000015     NO 
 RMS     Force            0.000224     0.000010     NO 
 Maximum Displacement     0.064474     0.000060     NO 
 RMS     Displacement     0.016811     0.000040     NO 
                          Input orientation:                          
 ---------------------------------------------------------------------
 Center     Atomic      Atomic             Coordinates (Angstroms)
 Number     Number       Type             X           Y           Z
 ---------------------------------------------------------------------
      1          6           0        9.228798    0.371016    1.319320
      2          1           0        8.367273    0.468710    1.969928
      3          1           0        9.875459   -0.391781    1.743912
      4          1           0        9.769510    1.312207    1.314331
      5          6           0        8.831922   -0.024808   -0.097252
      6          1           0        9.724569   -0.216775   -0.680049
      7          1           0        8.245657   -0.935547   -0.079405
      8          8           0        8.159999    0.986817   -0.804448
      9          6           0        6.899181    1.401461   -0.369747
     10          1           0        6.679729    2.290161   -0.950419
     11          1           0        6.907190    1.687995    0.677949
     12          6           0        5.779089    0.403176   -0.600529
     13          1           0        4.828496    0.924345   -0.575546
     14          1           0        5.892402   -0.046821   -1.584588
     15          8           0        5.817230   -0.586137    0.396164
     16          6           0        4.962634   -1.678764    0.240445
     17          1           0        5.417956   -2.501655    0.780531
     18          1           0        4.882878   -1.965337   -0.805581
     19          6           0        3.574719   -1.454116    0.809426
     20          1           0        3.659369   -1.039112    1.811774
     21          1           0        3.063423   -2.414518    0.884760
     22          8           0        2.850009   -0.592185   -0.018750
     23          6           0        1.560324   -0.301410    0.430428
     24          1           0        1.591703    0.172112    1.408913
     25          1           0        0.981919   -1.218571    0.526822
     26          6           0        0.922477    0.635658   -0.582971
     27          1           0        0.937385    0.185302   -1.567796
     28          1           0        1.498874    1.550657   -0.636423
     29         16           0       -0.772077    1.130986   -0.162242
     30          6           0       -1.718716   -0.335460   -0.682796
     31          1           0       -1.499309   -0.548418   -1.721577
     32          1           0       -1.431791   -1.193829   -0.089411
     33          6           0       -3.209724   -0.057230   -0.508465
     34          1           0       -3.504390    0.782409   -1.126225
     35          1           0       -3.419519    0.187317    0.524948
     36         16           0       -4.156855   -1.529123   -1.008531
     37          6           0       -5.866341   -0.918183   -0.887909
     38          1           0       -6.465173   -1.638123   -1.430969
     39          1           0       -5.945431    0.022649   -1.416704
     40          6           0       -6.382135   -0.797100    0.545590
     41          1           0       -6.301008   -1.756171    1.039401
     42          1           0       -5.794779   -0.091479    1.119994
     43         16           0       -8.135321   -0.301841    0.641642
     44          6           0       -8.040864    1.472677    1.035136
     45          1           0       -9.063099    1.744638    1.271119
     46          1           0       -7.464009    1.596422    1.944573
     47          6           0       -7.504269    2.373941   -0.072435
     48          1           0       -7.570189    3.414447    0.233336
     49          1           0       -6.462555    2.163878   -0.290228
     50          1           0       -8.073619    2.249510   -0.986446
 ---------------------------------------------------------------------
 Stoichiometry    C14H30O3S3
 Framework group  C1[X(C14H30O3S3)]
                         Standard orientation:                         
 ---------------------------------------------------------------------
 Center     Atomic      Atomic             Coordinates (Angstroms)
 Number     Number       Type             X           Y           Z
 ---------------------------------------------------------------------
      1          6           0        9.235996    0.464452    1.301387
      2          1           0        8.375916    0.593776    1.948380
      3          1           0        9.885256   -0.274341    1.762858
      4          1           0        9.774798    1.405162    1.246708
      5          6           0        8.836351   -0.004273   -0.091970
      6          1           0        9.727913   -0.224209   -0.666486
      7          1           0        8.251967   -0.913998   -0.025891
      8          8           0        8.160617    0.968473   -0.848369
      9          6           0        6.900065    1.402502   -0.432213
     10          1           0        6.677365    2.259826   -1.057134
     11          1           0        6.910135    1.742424    0.599380
     12          6           0        5.781406    0.391587   -0.608548
     13          1           0        4.829833    0.911564   -0.607845
     14          1           0        5.893147   -0.108089   -1.568519
     15          8           0        5.824046   -0.545215    0.437482
     16          6           0        4.971261   -1.645996    0.340256
     17          1           0        5.429596   -2.439237    0.920651
     18          1           0        4.889449   -1.986007   -0.689480
     19          6           0        3.584333   -1.395062    0.900594
     20          1           0        3.670672   -0.929021    1.880108
     21          1           0        3.075162   -2.351294    1.026435
     22          8           0        2.855808   -0.578119    0.031192
     23          6           0        1.566676   -0.267107    0.468236
     24          1           0        1.599566    0.256050    1.421056
     25          1           0        0.990362   -1.179200    0.613066
     26          6           0        0.924397    0.615535   -0.590227
     27          1           0        0.937731    0.115274   -1.550688
     28          1           0        1.498815    1.527668   -0.692055
     29         16           0       -0.770086    1.128609   -0.191028
     30          6           0       -1.715081   -0.364389   -0.633189
     31          1           0       -1.497862   -0.629948   -1.660248
     32          1           0       -1.424937   -1.190644    0.002695
     33          6           0       -3.206202   -0.080385   -0.469459
     34          1           0       -3.504111    0.725899   -1.128705
     35          1           0       -3.413886    0.216464    0.550594
     36         16           0       -4.151626   -1.577773   -0.890878
     37          6           0       -5.862029   -0.964664   -0.797282
     38          1           0       -6.460776   -1.712641   -1.301126
     39          1           0       -5.944342   -0.052351   -1.373436
     40          6           0       -6.374454   -0.771165    0.629463
     41          1           0       -6.290156   -1.703484    1.171610
     42          1           0       -5.787075   -0.035901    1.165374
     43         16           0       -8.128386   -0.274927    0.704570
     44          6           0       -8.036509    1.517616    1.006266
     45          1           0       -9.058691    1.799405    1.230662
     46          1           0       -7.457616    1.688941    1.906645
     47          6           0       -7.504517    2.361877   -0.147481
     48          1           0       -7.571760    3.416575    0.104681
     49          1           0       -6.462934    2.142876   -0.356938
     50          1           0       -8.075915    2.189648   -1.052412
 ---------------------------------------------------------------------
 Standard basis: 6-31G(d) (6D, 7F)
   372 basis functions,   752 primitive gaussians,   372 cartesian basis functions
    93 alpha electrons       93 beta electrons
 Requested convergence on RMS density matrix=1.00D-08 within  64 cycles.
 Requested convergence on MAX density matrix=1.00D-06.
 Requested convergence on             energy=1.00D-06.
 SCF Done:  E(RHF) =  -1964.69208549     A.U. after   10 cycles
            NFock= 10  Conv=0.54D-08     -V/T= 2.0006
 Step number   6 out of a maximum of   55
     Eigenvalues ---    0.00218   0.00226   0.00230   0.00242   0.00262
     Eigenvalues ---    0.00309   0.00432   0.00446   0.00485   0.00501
     Eigenvalues ---    0.00525   0.00576   0.00684   0.00751   0.01435
     Eigenvalues ---    0.01488   0.01545   0.01570   0.01632   0.04305
     Eigenvalues ---    0.04465   0.04583   0.04704   0.04923   0.05083
     Eigenvalues ---    0.05090   0.05106   0.05147   0.05338   0.05440
     Eigenvalues ---    0.05533   0.05555   0.05661   0.05681   0.05719
     Eigenvalues ---    0.05745   0.05784   0.05787   0.05840   0.05857
     Eigenvalues ---    0.05904   0.05907   0.05951   0.06063   0.06067
     Eigenvalues ---    0.06087   0.06267   0.10932   0.10947   0.11201
     Eigenvalues ---    0.11251   0.11451   0.11565   0.11579   0.11668
     Eigenvalues ---    0.11821   0.11832   0.11919   0.12042   0.13571
     Eigenvalues ---    0.13578   0.13642   0.13812   0.13824   0.13938
     Eigenvalues ---    0.14017   0.14077   0.14084   0.14107   0.14173
     Eigenvalues ---    0.14297   0.15942   0.15981   0.16000   0.16002
     Eigenvalues ---    0.16007   0.16020   0.21587   0.21961   0.21995
     Eigenvalues ---    0.22013   0.22030   0.22033   0.22051   0.22059
     Eigenvalues ---    0.22080   0.22733   0.23265   0.23488   0.24034
     Eigenvalues ---    0.24097   0.24225   0.24357   0.24412   0.24726
     Eigenvalues ---    0.24871   0.24999   0.25024   0.27525   0.28977
     Eigenvalues ---    0.29995   0.30095   0.30288   0.30363   0.30519
     Eigenvalues ---    0.30608   0.32339   0.32946   0.33337   0.33481
     Eigenvalues ---    0.33657   0.33697   0.33721   0.33833   0.33932
     Eigenvalues ---    0.34179   0.34232   0.34262   0.34282   0.34297
     Eigenvalues ---    0.34300   0.34326   0.34331   0.34348   0.34361
     Eigenvalues ---    0.34364   0.34376   0.34379   0.34389   0.34400
     Eigenvalues ---    0.34406   0.34428   0.34483   0.34502   0.34808
     Eigenvalues ---    0.35125   0.35914   0.38503   0.42162   0.43069
     Eigenvalues ---    0.43579   0.44053   0.44634   0.50578
 Maximum Force            0.000436     0.000015     NO 
 RMS     Force            0.000107     0.000010     NO 
 Maximum Displacement     0.301187     0.000060     NO 
 RMS     Displacement     0.052564     0.000040     NO 
                          Input orientation:                          
 ---------------------------------------------------------------------
 Center     Atomic      Atomic             Coordinates (Angstroms)
 Number     Number       Type             X           Y           Z
 ---------------------------------------------------------------------
      1          6           0        9.262071    0.479720    1.318339
      2          1           0        8.415138    0.628092    1.978737
      3          1           0        9.913260   -0.255497    1.782460
      4          1           0        9.806186    1.415325    1.237271
      5          6           0        8.835350   -0.011799   -0.059147
      6          1           0        9.715741   -0.246529   -0.645009
      7          1           0        8.246639   -0.916125    0.032077
      8          8           0        8.151599    0.952817   -0.818986
      9          6           0        6.885788    1.372557   -0.404008
     10          1           0        6.668912    2.251153   -1.000849
     11          1           0        6.882381    1.675588    0.638818
     12          6           0        5.773436    0.365008   -0.630618
     13          1           0        4.819386    0.880465   -0.620434
     14          1           0        5.897692   -0.097754   -1.607241
     15          8           0        5.807865   -0.610890    0.379195
     16          6           0        4.964960   -1.712899    0.225405
     17          1           0        5.430653   -2.534304    0.759089
     18          1           0        4.880887   -1.995488   -0.821067
     19          6           0        3.579726   -1.498143    0.803078
     20          1           0        3.667367   -1.096134    1.810371
     21          1           0        3.068773   -2.459422    0.867685
     22          8           0        2.852509   -0.624784   -0.010738
     23          6           0        1.566634   -0.336238    0.449970
     24          1           0        1.606137    0.123178    1.434788
     25          1           0        0.986795   -1.253230    0.538171
     26          6           0        0.924948    0.616482   -0.546212
     27          1           0        0.934034    0.181293   -1.537900
     28          1           0        1.502868    1.531032   -0.589118
     29         16           0       -0.766851    1.107846   -0.109081
     30          6           0       -1.720952   -0.340920   -0.664668
     31          1           0       -1.499363   -0.532350   -1.707134
     32          1           0       -1.440694   -1.213868   -0.089817
     33          6           0       -3.210983   -0.058748   -0.488195
     34          1           0       -3.498624    0.799572   -1.083197
     35          1           0       -3.422646    0.158479    0.550837
     36         16           0       -4.166116   -1.509828   -1.032223
     37          6           0       -5.871491   -0.885425   -0.918688
     38          1           0       -6.469259   -1.583894   -1.490141
     39          1           0       -5.934613    0.070173   -1.422677
     40          6           0       -6.407620   -0.799183    0.509945
     41          1           0       -6.343374   -1.772302    0.977981
     42          1           0       -5.821984   -0.116589    1.112918
     43         16           0       -8.156584   -0.285687    0.591933
     44          6           0       -8.045928    1.477011    1.032424
     45          1           0       -9.064918    1.751940    1.278770
     46          1           0       -7.465394    1.572086    1.942972
     47          6           0       -7.505468    2.402073   -0.053397
     48          1           0       -7.558596    3.434697    0.279834
     49          1           0       -6.466995    2.187463   -0.281900
     50          1           0       -8.080279    2.307982   -0.967626
 ---------------------------------------------------------------------
 Stoichiometry    C14H30O3S3
 Framework group  C1[X(C14H30O3S3)]
                         Standard orientation:                         
 ---------------------------------------------------------------------
 Center     Atomic      Atomic             Coordinates (Angstroms)
 Number     Number       Type             X           Y           Z
 ---------------------------------------------------------------------
      1          6           0        9.272672    0.616046    1.272704
      2          1           0        8.427646    0.811172    1.923312
      3          1           0        9.927777   -0.080443    1.788206
      4          1           0        9.813607    1.544455    1.119613
      5          6           0        8.842561    0.021359   -0.062399
      6          1           0        9.721577   -0.254195   -0.632330
      7          1           0        8.256971   -0.875223    0.098641
      8          8           0        8.153133    0.924318   -0.889870
      9          6           0        6.887521    1.370456   -0.502761
     10          1           0        6.665809    2.201179   -1.163008
     11          1           0        6.886897    1.750869    0.514398
     12          6           0        5.777481    0.345624   -0.648929
     13          1           0        4.821888    0.857711   -0.673832
     14          1           0        5.899681   -0.188762   -1.588547
     15          8           0        5.818521   -0.551653    0.431114
     16          6           0        4.978476   -1.664458    0.363626
     17          1           0        5.448600   -2.442193    0.955663
     18          1           0        4.891544   -2.025006   -0.658370
     19          6           0        3.594654   -1.410854    0.928801
     20          1           0        3.684646   -0.934153    1.902756
     21          1           0        3.086902   -2.366007    1.067277
     22          8           0        2.861850   -0.603066    0.054517
     23          6           0        1.576742   -0.284377    0.497144
     24          1           0        1.618338    0.247747    1.444564
     25          1           0        1.000052   -1.193791    0.656088
     26          6           0        0.928573    0.589104   -0.565268
     27          1           0        0.935465    0.080761   -1.521539
     28          1           0        1.503512    1.499477   -0.678853
     29         16           0       -0.763165    1.107129   -0.159829
     30          6           0       -1.714767   -0.381914   -0.601543
     31          1           0       -1.496307   -0.650400   -1.627541
[...]
     18          1           0        4.815386   -1.967491   -0.882398
     19          6           0        3.479181   -1.625343    0.752138
     20          1           0        3.543611   -1.319492    1.794176
     21          1           0        2.963662   -2.585334    0.713996
     22          8           0        2.774827   -0.675777    0.005540
     23          6           0        1.479441   -0.422372    0.460565
     24          1           0        1.496751   -0.053933    1.483333
     25          1           0        0.893309   -1.339306    0.451070
     26          6           0        0.866976    0.620828   -0.460013
     27          1           0        0.896056    0.275890   -1.485982
     28          1           0        1.451207    1.530667   -0.407968
     29         16           0       -0.830571    1.087303   -0.018916
     30          6           0       -1.780474   -0.306247   -0.706917
     31          1           0       -1.540442   -0.414257   -1.757044
     32          1           0       -1.514945   -1.224225   -0.199371
     33          6           0       -3.271709   -0.029364   -0.535466
     34          1           0       -3.545190    0.871512   -1.070862
     35          1           0       -3.500949    0.112337    0.512729
     36         16           0       -4.222954   -1.431722   -1.200455
     37          6           0       -5.927872   -0.813158   -1.058158
     38          1           0       -6.520355   -1.468021   -1.683907
     39          1           0       -5.984430    0.176016   -1.492812
     40          6           0       -6.477414   -0.829021    0.367600
     41          1           0       -6.418433   -1.833397    0.764597
     42          1           0       -5.897732   -0.192244    1.023934
     43         16           0       -8.227272   -0.323361    0.471021
     44          6           0       -8.123740    1.404406    1.034226
     45          1           0       -9.147531    1.663218    1.277332
     46          1           0       -7.562927    1.434243    1.961210
     47          6           0       -7.559233    2.401477    0.027624
     48          1           0       -7.619392    3.408293    0.431086
     49          1           0       -6.516341    2.201524   -0.193093
     50          1           0       -8.114122    2.372686   -0.902939
 ---------------------------------------------------------------------
 Stoichiometry    C14H30O3S3
 Framework group  C1[X(C14H30O3S3)]
                         Standard orientation:                         
 ---------------------------------------------------------------------
 Center     Atomic      Atomic             Coordinates (Angstroms)
 Number     Number       Type             X           Y           Z
 ---------------------------------------------------------------------
      1          6           0        9.956369    1.027940    0.610968
      2          1           0        9.495377    1.910062    1.044904
      3          1           0       10.619495    0.597216    1.356150
      4          1           0       10.552255    1.343213   -0.238642
      5          6           0        8.911243    0.010866    0.174914
      6          1           0        9.399976   -0.859830   -0.245849
      7          1           0        8.318178   -0.322503    1.018066
      8          8           0        8.080974    0.518464   -0.838218
      9          6           0        6.946613    1.228135   -0.436122
     10          1           0        6.822052    2.060398   -1.121725
     11          1           0        7.068122    1.637974    0.562653
     12          6           0        5.696572    0.375182   -0.483385
     13          1           0        4.820390    1.001474   -0.350803
     14          1           0        5.626868   -0.101796   -1.457092
     15          8           0        5.770959   -0.593896    0.528094
     16          6           0        4.921063   -1.695279    0.426121
     17          1           0        5.379227   -2.487212    1.007822
     18          1           0        4.846681   -2.033164   -0.604347
     19          6           0        3.530366   -1.446928    0.976115
     20          1           0        3.607034   -0.984642    1.957926
     21          1           0        3.018309   -2.402447    1.092642
     22          8           0        2.812546   -0.624633    0.102178
     23          6           0        1.522139   -0.307033    0.530273
     24          1           0        1.551187    0.214046    1.484072
     25          1           0        0.939670   -1.215753    0.669445
     26          6           0        0.893566    0.581271   -0.531168
     27          1           0        0.910766    0.083017   -1.492358
     28          1           0        1.474713    1.489506   -0.627184
     29         16           0       -0.800014    1.106459   -0.144133
     30          6           0       -1.753063   -0.378103   -0.597359
     31          1           0       -1.526208   -0.645514   -1.621603
     32          1           0       -1.477250   -1.206766    0.041420
     33          6           0       -3.243068   -0.081223   -0.450429
     34          1           0       -3.527122    0.726250   -1.113994
     35          1           0       -3.459294    0.219204    0.566592
     36         16           0       -4.197125   -1.570960   -0.879549
     37          6           0       -5.902562   -0.941359   -0.810985
     38          1           0       -6.500425   -1.685706   -1.320838
     39          1           0       -5.968769   -0.030731   -1.391468
     40          6           0       -6.433532   -0.739332    0.607568
     41          1           0       -6.365328   -1.670757    1.153143
     42          1           0       -5.847999   -0.008190    1.150588
     43         16           0       -8.183948   -0.227355    0.655646
     44          6           0       -8.080169    1.566588    0.945640
     45          1           0       -9.101772    1.857559    1.159870
     46          1           0       -7.507529    1.739483    1.849460
     47          6           0       -7.532804    2.398504   -0.209511
     48          1           0       -7.591833    3.455189    0.035462
     49          1           0       -6.492051    2.169168   -0.410907
     50          1           0       -8.099571    2.226105   -1.117108
 ---------------------------------------------------------------------
 Standard basis: 6-31G(d) (6D, 7F)
   372 basis functions,   752 primitive gaussians,   372 cartesian basis functions
    93 alpha electrons       93 beta electrons
 Requested convergence on RMS density matrix=1.00D-08 within  64 cycles.
 Requested convergence on MAX density matrix=1.00D-06.
 Requested convergence on             energy=1.00D-06.
 SCF Done:  E(RHF) =  -1964.69369715     A.U. after    3 cycles
            NFock=  3  Conv=0.73D-08     -V/T= 2.0006
 Step number  42 out of a maximum of   55
     Eigenvalues ---    0.00036   0.00194   0.00256   0.00308   0.00346
     Eigenvalues ---    0.00410   0.00432   0.00436   0.00473   0.00478
     Eigenvalues ---    0.00539   0.00584   0.00628   0.00703   0.00754
     Eigenvalues ---    0.00818   0.00963   0.01432   0.01660   0.04446
     Eigenvalues ---    0.04736   0.05032   0.05097   0.05115   0.05243
     Eigenvalues ---    0.05312   0.05375   0.05475   0.05566   0.05606
     Eigenvalues ---    0.05647   0.05689   0.05699   0.05727   0.05756
     Eigenvalues ---    0.05819   0.05856   0.05861   0.05879   0.05951
     Eigenvalues ---    0.06053   0.06093   0.06175   0.06185   0.06518
     Eigenvalues ---    0.06685   0.07395   0.10943   0.11007   0.11211
     Eigenvalues ---    0.11490   0.11547   0.11652   0.11725   0.11794
     Eigenvalues ---    0.11927   0.12091   0.12270   0.12764   0.13333
     Eigenvalues ---    0.13608   0.13736   0.13778   0.13891   0.14046
     Eigenvalues ---    0.14095   0.14139   0.14302   0.14425   0.14508
     Eigenvalues ---    0.15012   0.15594   0.15993   0.16017   0.16101
     Eigenvalues ---    0.16218   0.16318   0.21380   0.21649   0.21937
     Eigenvalues ---    0.22032   0.22083   0.22388   0.22716   0.23032
     Eigenvalues ---    0.23246   0.23342   0.23955   0.24049   0.24178
     Eigenvalues ---    0.24353   0.24472   0.24539   0.24908   0.25437
     Eigenvalues ---    0.25777   0.26647   0.27643   0.29369   0.29652
     Eigenvalues ---    0.29904   0.30465   0.30566   0.31335   0.31524
     Eigenvalues ---    0.31943   0.32878   0.33253   0.33417   0.33608
     Eigenvalues ---    0.33696   0.33732   0.33762   0.33988   0.34064
     Eigenvalues ---    0.34216   0.34240   0.34260   0.34294   0.34312
     Eigenvalues ---    0.34338   0.34351   0.34363   0.34386   0.34399
     Eigenvalues ---    0.34410   0.34422   0.34446   0.34470   0.34508
     Eigenvalues ---    0.34521   0.34572   0.34614   0.34882   0.35604
     Eigenvalues ---    0.35759   0.36891   0.41351   0.43321   0.43945
     Eigenvalues ---    0.45171   0.47192   0.50281   0.54026
 Maximum Force            0.000000     0.000015     YES
 RMS     Force            0.000000     0.000010     YES
 Maximum Displacement     0.000042     0.000060     YES
 RMS     Displacement     0.000011     0.000040     YES
 Optimization completed.
    -- Stationary point found.
                          Input orientation:                          
 ---------------------------------------------------------------------
 Center     Atomic      Atomic             Coordinates (Angstroms)
 Number     Number       Type             X           Y           Z
 ---------------------------------------------------------------------
      1          6           0        9.914531    0.850065    0.854370
      2          1           0        9.449555    1.657029    1.412545
      3          1           0       10.566721    0.307408    1.533138
      4          1           0       10.522403    1.289537    0.070998
      5          6           0        8.873280   -0.083796    0.253892
      6          1           0        9.365841   -0.881604   -0.289154
      7          1           0        8.268278   -0.540170    1.028141
      8          8           0        8.057715    0.576618   -0.679995
      9          6           0        6.919508    1.220801   -0.188464
     10          1           0        6.805852    2.148906   -0.739765
     11          1           0        7.028440    1.472041    0.862867
     12          6           0        5.668479    0.390296   -0.382253
     13          1           0        4.791875    0.992391   -0.166475
     14          1           0        5.610875    0.068656   -1.418449
     15          8           0        5.727315   -0.722798    0.469389
     16          6           0        4.876623   -1.792024    0.188594
     17          1           0        5.325328   -2.665691    0.647742
     18          1           0        4.815386   -1.967491   -0.882398
     19          6           0        3.479181   -1.625343    0.752138
     20          1           0        3.543611   -1.319492    1.794176
     21          1           0        2.963662   -2.585334    0.713996
     22          8           0        2.774827   -0.675777    0.005540
     23          6           0        1.479441   -0.422372    0.460565
     24          1           0        1.496751   -0.053933    1.483333
     25          1           0        0.893309   -1.339306    0.451070
     26          6           0        0.866976    0.620828   -0.460013
     27          1           0        0.896056    0.275890   -1.485982
     28          1           0        1.451207    1.530667   -0.407968
     29         16           0       -0.830571    1.087303   -0.018916
     30          6           0       -1.780474   -0.306247   -0.706917
     31          1           0       -1.540442   -0.414257   -1.757044
     32          1           0       -1.514945   -1.224225   -0.199371
     33          6           0       -3.271709   -0.029364   -0.535466
     34          1           0       -3.545190    0.871512   -1.070862
     35          1           0       -3.500949    0.112337    0.512729
     36         16           0       -4.222954   -1.431722   -1.200455
     37          6           0       -5.927872   -0.813158   -1.058158
     38          1           0       -6.520355   -1.468021   -1.683907
     39          1           0       -5.984430    0.176016   -1.492812
     40          6           0       -6.477414   -0.829021    0.367600
     41          1           0       -6.418433   -1.833397    0.764597
     42          1           0       -5.897732   -0.192244    1.023934
     43         16           0       -8.227272   -0.323361    0.471021
     44          6           0       -8.123740    1.404406    1.034226
     45          1           0       -9.147531    1.663218    1.277332
     46          1           0       -7.562927    1.434243    1.961210
     47          6           0       -7.559233    2.401477    0.027624
     48          1           0       -7.619392    3.408293    0.431086
     49          1           0       -6.516341    2.201524   -0.193093
     50          1           0       -8.114122    2.372686   -0.902939
 ---------------------------------------------------------------------
 Stoichiometry    C14H30O3S3
 Framework group  C1[X(C14H30O3S3)]
                         Standard orientation:                         
 ---------------------------------------------------------------------
 Center     Atomic      Atomic             Coordinates (Angstroms)
 Number     Number       Type             X           Y           Z
 ---------------------------------------------------------------------
      1          6           0        9.956369    1.027940    0.610968
      2          1           0        9.495377    1.910062    1.044904
      3          1           0       10.619495    0.597216    1.356150
      4          1           0       10.552255    1.343213   -0.238642
      5          6           0        8.911243    0.010866    0.174914
      6          1           0        9.399976   -0.859830   -0.245849
      7          1           0        8.318178   -0.322503    1.018066
      8          8           0        8.080974    0.518464   -0.838218
      9          6           0        6.946613    1.228135   -0.436122
     10          1           0        6.822052    2.060398   -1.121725
     11          1           0        7.068122    1.637974    0.562653
     12          6           0        5.696572    0.375182   -0.483385
     13          1           0        4.820390    1.001474   -0.350803
     14          1           0        5.626868   -0.101796   -1.457092
     15          8           0        5.770959   -0.593896    0.528094
     16          6           0        4.921063   -1.695279    0.426121
     17          1           0        5.379227   -2.487212    1.007822
     18          1           0        4.846681   -2.033164   -0.604347
     19          6           0        3.530366   -1.446928    0.976115
     20          1           0        3.607034   -0.984642    1.957926
     21          1           0        3.018309   -2.402447    1.092642
     22          8           0        2.812546   -0.624633    0.102178
     23          6           0        1.522139   -0.307033    0.530273
     24          1           0        1.551187    0.214046    1.484072
     25          1           0        0.939670   -1.215753    0.669445
     26          6           0        0.893566    0.581271   -0.531168
     27          1           0        0.910766    0.083017   -1.492358
     28          1           0        1.474713    1.489506   -0.627184
     29         16           0       -0.800014    1.106459   -0.144133
     30          6           0       -1.753063   -0.378103   -0.597359
     31          1           0       -1.526208   -0.645514   -1.621603
     32          1           0       -1.477250   -1.206766    0.041420
     33          6           0       -3.243068   -0.081223   -0.450429
     34          1           0       -3.527122    0.726250   -1.113994
     35          1           0       -3.459294    0.219204    0.566592
     36         16           0       -4.197125   -1.570960   -0.879549
     37          6           0       -5.902562   -0.941359   -0.810985
     38          1           0       -6.500425   -1.685706   -1.320838
     39          1           0       -5.968769   -0.030731   -1.391468
     40          6           0       -6.433532   -0.739332    0.607568
     41          1           0       -6.365328   -1.670757    1.153143
     42          1           0       -5.847999   -0.008190    1.150588
     43         16           0       -8.183948   -0.227355    0.655646
     44          6           0       -8.080169    1.566588    0.945640
     45          1           0       -9.101772    1.857559    1.159870
     46          1           0       -7.507529    1.739483    1.849460
     47          6           0       -7.532804    2.398504   -0.209511
     48          1           0       -7.591833    3.455189    0.035462
     49          1           0       -6.492051    2.169168   -0.410907
     50          1           0       -8.099571    2.226105   -1.117108
 ---------------------------------------------------------------------
 Mulliken charges:
     1  C   -0.493941
     2  H    0.156997
     3  H    0.151875
     4  H    0.170329
     5  C    0.006928
     6  H    0.161809
     7  H    0.167728
     8  O   -0.631169
     9  C   -0.003542
    10  H    0.162097
    11  H    0.150502
    12  C    0.018246
    13  H    0.152740
    14  H    0.152630
    15  O   -0.637304
    16  C    0.003573
    17  H    0.170567
    18  H    0.158983
    19  C    0.004336
    20  H    0.155520
    21  H    0.138951
    22  O   -0.633729
    23  C    0.036549
    24  H    0.159663
    25  H    0.144184
    26  C   -0.497577
    27  H    0.205642
    28  H    0.212689
    29  S    0.119027
    30  C   -0.477670
    31  H    0.208547
    32  H    0.205667
    33  C   -0.480475
    34  H    0.204654
    35  H    0.203086
    36  S    0.125037
    37  C   -0.474951
    38  H    0.216601
    39  H    0.202471
    40  C   -0.478507
    41  H    0.217673
    42  H    0.193115
    43  S    0.114797
    44  C   -0.471657
    45  H    0.201368
    46  H    0.190831
    47  C   -0.476043
    48  H    0.171213
    49  H    0.158781
    50  H    0.181158
 Sum of Mulliken charges =  -0.00000
 Dipole moment (field-independent basis, Debye):
    X=             -0.5192    Y=              0.7651    Z=              1.4154  Tot=              1.6906
 Quadrupole moment (field-independent basis, Debye-Ang):
   XX=           -171.6083   YY=           -145.8065   ZZ=           -151.2876
   XY=            -16.2042   XZ=              8.4750   YZ=             -0.8668
 Traceless Quadrupole moment (field-independent basis, Debye-Ang):
   XX=            -15.3742   YY=             10.4276   ZZ=              4.9465
   XY=            -16.2042   XZ=              8.4750   YZ=             -0.8668
 Octapole moment (field-independent basis, Debye-Ang**2):
  XXX=             76.7170  YYY=             -4.6206  ZZZ=              1.8159  XYY=             34.6485
  XXY=             94.8935  XXZ=             65.3994  XZZ=             22.2050  YZZ=              0.4475
  YYZ=              7.5189  XYZ=            -11.7749
 Hexadecapole moment (field-independent basis, Debye-Ang**3):
 XXXX=         -33459.7771 YYYY=          -1342.6970 ZZZZ=           -615.4643 XXXY=          -1143.1697
 XXXZ=            745.0586 YYYX=            -60.8290 YYYZ=             -8.5536 ZZZX=              5.2729
 ZZZY=             -7.5089 XXYY=          -5146.6505 XXZZ=          -5482.0735 YYZZ=           -327.8680
 XXYZ=            106.7406 YYXZ=            -19.8365 ZZXY=            -41.5355
 Job cpu time:       0 days  4 hours  8 minutes 16.9 seconds.
 Normal termination of Gaussian 16 at Sat Jul  8 17:03:02 2023.
