 Copyright (c) 1988-2019, Gaussian, Inc.  All Rights Reserved.
  
 This is part of the Gaussian(R) 16 program.  It is based on
 the Gaussian(R) 09 system (copyright 2009, Gaussian, Inc.),
 the Gaussian(R) 03 system (copyright 2003, Gaussian, Inc.),
 the Gaussian(R) 98 system (copyright 1998, Gaussian, Inc.),
 the Gaussian(R) 94 system (copyright 1995, Gaussian, Inc.),
 the Gaussian 92(TM) system (copyright 1992, Gaussian, Inc.),
 the Gaussian 90(TM) system (copyright 1990, Gaussian, Inc.),
 the Gaussian 88(TM) system (copyright 1988, Gaussian, Inc.),
 the Gaussian 86(TM) system (copyright 1986, Carnegie Mellon
 University), and the Gaussian 82(TM) system (copyright 1983,
 Carnegie Mellon University). Gaussian is a federally registered
 trademark of Gaussian, Inc.
 Cite this work as:
 Gaussian 16, Revision C.01,
 M. J. Frisch, G. W. Trucks, H. B. Schlegel, G. E. Scuseria, 
 M. A. Robb, J. R. Cheeseman, G. Scalmani, V. Barone, 
 G. A. Petersson, H. Nakatsuji, X. Li, M. Caricato, A. V. Marenich, 
 J. Bloino, B. G. Janesko, R. Gomperts, B. Mennucci, H. P. Hratchian, 
 J. V. Ortiz, A. F. Izmaylov, J. L. Sonnenberg, D. Williams-Young, 
 F. Ding, F. Lipparini, F. Egidi, J. Goings, B. Peng, A. Petrone, 
 T. Henderson, D. Ranasinghe, V. G. Zakrzewski, J. Gao, N. Rega, 
 G. Zheng, W. Liang, M. Hada, M. Ehara, K. Toyota, R. Fukuda, 
 J. Hasegawa, M. Ishida, T. Nakajima, Y. Honda, O. Kitao, H. Nakai, 
 T. Vreven, K. Throssell, J. A. Montgomery, Jr., J. E. Peralta, 
 F. Ogliaro, M. J. Bearpark, J. J. Heyd, E. N. Brothers, K. N. Kudin, 
 V. N. Staroverov, T. A. Keith, R. Kobayashi, J. Normand, 
 K. Raghavachari, A. P. Rendell, J. C. Burant, S. S. Iyengar, 
 J. Tomasi, M. Cossi, J. M. Millam, M. Klene, C. Adamo, R. Cammi, 
 J. W. Ochterski, R. L. Martin, K. Morokuma, O. Farkas, 
 J. B. Foresman, and D. J. Fox, Gaussian, Inc., Wallingford CT, 2019.
 
 ******************************************
 Gaussian 16:  EM64L-G16RevC.01  3-Jul-2019
                 8-Jul-2023 
 ******************************************
 ----------------------------------------------------------------------
 #P HF/6-31G(d) Opt=(Tight,MaxCycle=55) GFInput GFPrint SCF(Conver=8,XQ
 C,MaxConventionalCycles=64,MaxCycle=128) Test
 ----------------------------------------------------------------------
 1/6=55,7=10,18=20,19=15,38=1/1,3;
 2/9=110,12=2,17=6,18=5,40=1/2;
 3/5=1,6=6,7=1,11=9,24=110,25=1,30=1,71=1/1,2,3;
 4//1;
 5/5=2,6=8,7=128,8=3,13=1,38=5,85=64/2,8;
 6/7=2,8=2,9=2,10=2,28=1/1;
 7//1,2,3,16;
 1/6=55,7=10,18=20,19=15/3(2);
 2/9=110/2;
 99//99;
 2/9=110/2;
 3/5=1,6=6,7=1,11=9,25=1,30=1,71=1/1,2,3;
 4/5=5,16=3,69=1/1;
 5/5=2,6=8,7=128,8=3,13=1,38=5,85=64/2,8;
 7//1,2,3,16;
 1/6=55,7=10,18=20,19=15/3(-5);
 2/9=110/2;
 6/7=2,8=2,9=2,10=2,19=2,28=1/1;
 99/9=1/99;
 ----------------------------------------------------------
 Optimization step - Input generated by PyRED DVE-DMDS-OPLS
 ----------------------------------------------------------
 Symbolic Z-matrix:
 Charge =  0 Multiplicity = 1
 C                    -7.835     0.387    -1.767 
 H                    -8.488    -0.416    -1.412 
 H                    -7.956     1.247    -1.103 
 H                    -8.175     0.673    -2.768 
 C                    -6.377    -0.045    -1.812 
 H                    -6.256    -0.924    -2.464 
 H                    -5.76      0.759    -2.224 
 O                    -5.832    -0.319    -0.536 
 C                    -6.27     -1.522     0.05 
 H                    -6.229    -2.345    -0.68 
 H                    -7.307    -1.438     0.408 
 C                    -5.373    -1.858     1.223 
 H                    -5.291    -0.98      1.877 
 H                    -5.843    -2.665     1.801 
 O                    -4.101    -2.302     0.803 
 C                    -2.994    -1.501     1.155 
 H                    -2.123    -2.162     1.182 
 H                    -3.121    -1.084     2.164 
 C                    -2.736    -0.39      0.14 
 H                    -3.591     0.292     0.081 
 H                    -2.603    -0.84     -0.848 
 O                    -1.541     0.306     0.451 
 C                    -1.717     1.408     1.319 
 H                    -2.137     1.08      2.283 
 H                    -2.417     2.131     0.876 
 C                    -0.373     2.063     1.569 
 H                     0.341     1.332     1.958 
 H                    -0.493     2.832     2.338 
 S                     0.36      2.955     0.164 
 C                     0.814     1.629    -1.006 
 H                    -0.091     1.235    -1.471 
 H                     1.401     2.147    -1.77 
 C                     1.606     0.46     -0.437 
 H                     1.883    -0.191    -1.272 
 H                     0.971    -0.12      0.237 
 S                     3.12      0.995     0.432 
 C                     3.923    -0.631     0.603 
 H                     3.165    -1.363     0.908 
 H                     4.62     -0.535     1.44 
 C                     4.654    -1.136    -0.64 
 H                     4.892    -2.199    -0.524 
 H                     4.013    -1.055    -1.522 
 S                     6.179    -0.232    -1.058 
 C                     7.353    -0.97      0.127 
 H                     8.205    -0.285     0.133 
 H                     6.921    -0.934     1.133 
 C                     7.81     -2.381    -0.222 
 H                     6.973    -3.085    -0.241 
 H                     8.287    -2.402    -1.205 
 H                     8.53     -2.743     0.52 
 
 ITRead=  0  0  0  0  0  0  0  0  0  0  0  0  0  0  0  0  0  0  0  0
 ITRead=  0  0  0  0  0  0  0  0  0  0  0  0  0  0  0  0  0  0  0  0
 ITRead=  0  0  0  0  0  0  0  0  0  0
 MicOpt= -1 -1 -1 -1 -1 -1 -1 -1 -1 -1 -1 -1 -1 -1 -1 -1 -1 -1 -1 -1
 MicOpt= -1 -1 -1 -1 -1 -1 -1 -1 -1 -1 -1 -1 -1 -1 -1 -1 -1 -1 -1 -1
 MicOpt= -1 -1 -1 -1 -1 -1 -1 -1 -1 -1
 NAtoms=     50 NQM=       50 NQMF=       0 NMMI=      0 NMMIF=      0
                NMic=       0 NMicF=      0.
                          Input orientation:                          
 ---------------------------------------------------------------------
 Center     Atomic      Atomic             Coordinates (Angstroms)
 Number     Number       Type             X           Y           Z
 ---------------------------------------------------------------------
      1          6           0       -7.835000    0.387000   -1.767000
      2          1           0       -8.488000   -0.416000   -1.412000
      3          1           0       -7.956000    1.247000   -1.103000
      4          1           0       -8.175000    0.673000   -2.768000
      5          6           0       -6.377000   -0.045000   -1.812000
      6          1           0       -6.256000   -0.924000   -2.464000
      7          1           0       -5.760000    0.759000   -2.224000
      8          8           0       -5.832000   -0.319000   -0.536000
      9          6           0       -6.270000   -1.522000    0.050000
     10          1           0       -6.229000   -2.345000   -0.680000
     11          1           0       -7.307000   -1.438000    0.408000
     12          6           0       -5.373000   -1.858000    1.223000
     13          1           0       -5.291000   -0.980000    1.877000
     14          1           0       -5.843000   -2.665000    1.801000
     15          8           0       -4.101000   -2.302000    0.803000
     16          6           0       -2.994000   -1.501000    1.155000
     17          1           0       -2.123000   -2.162000    1.182000
     18          1           0       -3.121000   -1.084000    2.164000
     19          6           0       -2.736000   -0.390000    0.140000
     20          1           0       -3.591000    0.292000    0.081000
     21          1           0       -2.603000   -0.840000   -0.848000
     22          8           0       -1.541000    0.306000    0.451000
     23          6           0       -1.717000    1.408000    1.319000
     24          1           0       -2.137000    1.080000    2.283000
     25          1           0       -2.417000    2.131000    0.876000
     26          6           0       -0.373000    2.063000    1.569000
     27          1           0        0.341000    1.332000    1.958000
     28          1           0       -0.493000    2.832000    2.338000
     29         16           0        0.360000    2.955000    0.164000
     30          6           0        0.814000    1.629000   -1.006000
     31          1           0       -0.091000    1.235000   -1.471000
     32          1           0        1.401000    2.147000   -1.770000
     33          6           0        1.606000    0.460000   -0.437000
     34          1           0        1.883000   -0.191000   -1.272000
     35          1           0        0.971000   -0.120000    0.237000
     36         16           0        3.120000    0.995000    0.432000
     37          6           0        3.923000   -0.631000    0.603000
     38          1           0        3.165000   -1.363000    0.908000
     39          1           0        4.620000   -0.535000    1.440000
     40          6           0        4.654000   -1.136000   -0.640000
     41          1           0        4.892000   -2.199000   -0.524000
     42          1           0        4.013000   -1.055000   -1.522000
     43         16           0        6.179000   -0.232000   -1.058000
     44          6           0        7.353000   -0.970000    0.127000
     45          1           0        8.205000   -0.285000    0.133000
     46          1           0        6.921000   -0.934000    1.133000
     47          6           0        7.810000   -2.381000   -0.222000
     48          1           0        6.973000   -3.085000   -0.241000
     49          1           0        8.287000   -2.402000   -1.205000
     50          1           0        8.530000   -2.743000    0.520000
 ---------------------------------------------------------------------
 Stoichiometry    C14H30O3S3
 Framework group  C1[X(C14H30O3S3)]
                         Standard orientation:                         
 ---------------------------------------------------------------------
 Center     Atomic      Atomic             Coordinates (Angstroms)
 Number     Number       Type             X           Y           Z
 ---------------------------------------------------------------------
      1          6           0        7.834920    0.386720    1.766995
      2          1           0        8.487896   -0.416300    1.411995
      3          1           0        7.955946    1.246716    1.102995
      4          1           0        8.174929    0.672709    2.767995
      5          6           0        6.376907   -0.045236    1.811995
      6          1           0        6.255881   -0.924232    2.463995
      7          1           0        5.759932    0.758783    2.223995
      8          8           0        5.831899   -0.319220    0.535995
      9          6           0        6.269863   -1.522233   -0.050005
     10          1           0        6.228838   -2.345232    0.679995
     11          1           0        7.306865   -1.438264   -0.408005
     12          6           0        5.372852   -1.858206   -1.223005
     13          1           0        5.290879   -0.980203   -1.877005
     14          1           0        5.842828   -2.665220   -1.801005
     15          8           0        4.100839   -2.302167   -0.803005
     16          6           0        2.993863   -1.501134   -1.155005
     17          1           0        2.122843   -2.162107   -1.182005
     18          1           0        3.120876   -1.084137   -2.164005
     19          6           0        2.735897   -0.390126   -0.140005
     20          1           0        3.590917    0.291848   -0.081005
     21          1           0        2.602883   -0.840122    0.847995
     22          8           0        1.540918    0.305910   -0.451005
     23          6           0        1.716951    1.407905   -1.319005
     24          1           0        2.136941    1.079892   -2.283005
     25          1           0        2.416973    2.130884   -0.876005
     26          6           0        0.372971    2.062946   -1.569005
     27          1           0       -0.341051    1.331967   -1.958005
     28          1           0        0.492994    2.831942   -2.338005
     29         16           0       -0.360002    2.954968   -0.164005
     30          6           0       -0.814042    1.628982    1.005995
     31          1           0        0.090946    1.234954    1.470995
     32          1           0       -1.401026    2.146999    1.769995
     33          6           0       -1.606077    0.460006    0.436995
     34          1           0       -1.883097   -0.190986    1.271995
     35          1           0       -0.971095   -0.120014   -0.237005
     36         16           0       -3.120061    0.995051   -0.432005
     37          6           0       -3.923111   -0.630924   -0.603005
     38          1           0       -3.165133   -1.362947   -0.908005
     39          1           0       -4.620108   -0.534903   -1.440005
     40          6           0       -4.654126   -1.135902    0.639995
     41          1           0       -4.892158   -2.198895    0.523995
     42          1           0       -4.013123   -1.054922    1.521995
     43         16           0       -6.179098   -0.231856    1.057995
     44          6           0       -7.353121   -0.969820   -0.127005
     45          1           0       -8.205100   -0.284795   -0.133005
     46          1           0       -6.921120   -0.933833   -1.133005
     47          6           0       -7.810163   -2.380807    0.221995
     48          1           0       -6.973185   -3.084832    0.240995
     49          1           0       -8.287164   -2.401792    1.204995
     50          1           0       -8.530174   -2.742785   -0.520005
 ---------------------------------------------------------------------
 Standard basis: 6-31G(d) (6D, 7F)
   372 basis functions,   752 primitive gaussians,   372 cartesian basis functions
    93 alpha electrons       93 beta electrons
 Requested convergence on RMS density matrix=1.00D-08 within  64 cycles.
 Requested convergence on MAX density matrix=1.00D-06.
 Requested convergence on             energy=1.00D-06.
 SCF Done:  E(RHF) =  -1964.68131284     A.U. after   13 cycles
            NFock= 13  Conv=0.45D-08     -V/T= 2.0009
 Mulliken charges:
     1  C   -0.504431
     2  H    0.162630
     3  H    0.174827
     4  H    0.164025
     5  C    0.012866
     6  H    0.146215
     7  H    0.173640
     8  O   -0.633119
     9  C    0.010527
    10  H    0.156401
    11  H    0.141116
    12  C    0.003392
    13  H    0.155992
    14  H    0.161885
    15  O   -0.637755
    16  C   -0.002247
    17  H    0.175290
    18  H    0.141383
    19  C   -0.022109
    20  H    0.188415
    21  H    0.174334
    22  O   -0.647009
    23  C    0.028917
    24  H    0.141485
    25  H    0.163887
    26  C   -0.502639
    27  H    0.215712
    28  H    0.197960
    29  S    0.119426
    30  C   -0.467633
    31  H    0.217367
    32  H    0.202049
    33  C   -0.474653
    34  H    0.184631
    35  H    0.213851
    36  S    0.158196
    37  C   -0.479315
    38  H    0.187934
    39  H    0.199922
    40  C   -0.471809
    41  H    0.191088
    42  H    0.201242
    43  S    0.136133
    44  C   -0.476646
    45  H    0.199353
    46  H    0.184035
    47  C   -0.470370
    48  H    0.160099
    49  H    0.179110
    50  H    0.164396
 Sum of Mulliken charges =  -0.00000
 Dipole moment (field-independent basis, Debye):
    X=              4.1468    Y=             -3.6232    Z=             -1.2599  Tot=              5.6489
 Quadrupole moment (field-independent basis, Debye-Ang):
   XX=           -124.2379   YY=           -159.4886   ZZ=           -142.0895
   XY=             13.7336   XZ=              8.2895   YZ=             -0.1306
 Traceless Quadrupole moment (field-independent basis, Debye-Ang):
   XX=             17.7008   YY=            -17.5499   ZZ=             -0.1509
   XY=             13.7336   XZ=              8.2895   YZ=             -0.1306
 Octapole moment (field-independent basis, Debye-Ang**2):
  XXX=            180.2717  YYY=            -30.7796  ZZZ=             -6.3761  XYY=             19.8568
  XXY=            -91.5430  XXZ=            -43.1552  XZZ=             59.0546  YZZ=              4.6606
  YYZ=             -3.8358  XYZ=             -7.7413
 Hexadecapole moment (field-independent basis, Debye-Ang**3):
 XXXX=         -17986.1070 YYYY=          -2420.6817 ZZZZ=          -1054.0136 XXXY=             20.6677
 XXXZ=            559.3428 YYYX=             33.7543 YYYZ=            -16.8821 ZZZX=             50.6718
 ZZZY=              5.9238 XXYY=          -3705.3231 XXZZ=          -3451.0391 YYZZ=           -528.9823
 XXYZ=             63.6476 YYXZ=            -15.3946 ZZXY=            -20.9241
 Step number   1 out of a maximum of   55
     Eigenvalues ---    0.00230   0.00230   0.00230   0.00230   0.00230
     Eigenvalues ---    0.00230   0.00397   0.00411   0.00453   0.00470
     Eigenvalues ---    0.00484   0.00556   0.00575   0.01461   0.01502
     Eigenvalues ---    0.01509   0.01543   0.01546   0.01586   0.04274
     Eigenvalues ---    0.04301   0.04306   0.04333   0.04351   0.04697
     Eigenvalues ---    0.04772   0.04831   0.04980   0.05040   0.05309
     Eigenvalues ---    0.05359   0.05533   0.05550   0.05620   0.05629
     Eigenvalues ---    0.05642   0.05644   0.05724   0.05727   0.05794
     Eigenvalues ---    0.05801   0.05889   0.05920   0.05961   0.06057
     Eigenvalues ---    0.06103   0.06161   0.11187   0.11235   0.11246
     Eigenvalues ---    0.11484   0.11536   0.11696   0.11742   0.11764
     Eigenvalues ---    0.11774   0.11850   0.11851   0.11880   0.13734
     Eigenvalues ---    0.13736   0.13845   0.13866   0.13940   0.13991
     Eigenvalues ---    0.14047   0.14050   0.14061   0.14075   0.14121
     Eigenvalues ---    0.14147   0.16000   0.16000   0.16000   0.16000
     Eigenvalues ---    0.16000   0.16000   0.21999   0.22008   0.22014
     Eigenvalues ---    0.22017   0.22027   0.22036   0.22042   0.22048
     Eigenvalues ---    0.22056   0.22060   0.22072   0.22135   0.24185
     Eigenvalues ---    0.24190   0.24310   0.24492   0.24500   0.24711
     Eigenvalues ---    0.25000   0.25000   0.25000   0.25000   0.25000
     Eigenvalues ---    0.25000   0.29620   0.29721   0.30016   0.30140
     Eigenvalues ---    0.30240   0.30768   0.30912   0.33518   0.33563
     Eigenvalues ---    0.33586   0.33653   0.33734   0.33778   0.33872
     Eigenvalues ---    0.33918   0.34016   0.34187   0.34190   0.34193
     Eigenvalues ---    0.34210   0.34222   0.34307   0.34333   0.34340
     Eigenvalues ---    0.34354   0.34367   0.34370   0.34381   0.34383
     Eigenvalues ---    0.34419   0.34425   0.34431   0.34441   0.34443
     Eigenvalues ---    0.34489   0.34507   0.34687   0.42847   0.43329
     Eigenvalues ---    0.43409   0.43812   0.43843   0.44321
 Maximum Force            0.012536     0.000015     NO 
 RMS     Force            0.003584     0.000010     NO 
 Maximum Displacement     1.481805     0.000060     NO 
 RMS     Displacement     0.420994     0.000040     NO 
                          Input orientation:                          
 ---------------------------------------------------------------------
 Center     Atomic      Atomic             Coordinates (Angstroms)
 Number     Number       Type             X           Y           Z
 ---------------------------------------------------------------------
      1          6           0       -8.327382    0.497669   -1.824217
      2          1           0       -8.991956   -0.262029   -1.428504
      3          1           0       -8.412834    1.381460   -1.201956
      4          1           0       -8.673042    0.747903   -2.821978
      5          6           0       -6.882983    0.024251   -1.879417
      6          1           0       -6.795683   -0.874448   -2.485173
      7          1           0       -6.264050    0.785716   -2.334816
      8          8           0       -6.321254   -0.204404   -0.612537
      9          6           0       -6.742711   -1.356865    0.054869
     10          1           0       -6.736143   -2.209178   -0.619008
     11          1           0       -7.755842   -1.230635    0.427844
     12          6           0       -5.826426   -1.639807    1.227374
     13          1           0       -5.711678   -0.746355    1.831536
     14          1           0       -6.298401   -2.398233    1.843767
     15          8           0       -4.583309   -2.147994    0.824064
     16          6           0       -3.417350   -1.452206    1.173579
     17          1           0       -2.625475   -2.188570    1.206059
     18          1           0       -3.510187   -1.033210    2.171159
     19          6           0       -3.040768   -0.381068    0.158401
     20          1           0       -3.796844    0.387406    0.090086
     21          1           0       -2.948783   -0.841108   -0.816261
     22          8           0       -1.786655    0.173445    0.472689
     23          6           0       -1.811808    1.297560    1.308290
     24          1           0       -2.270172    1.042695    2.261426
     25          1           0       -2.407052    2.083042    0.853673
     26          6           0       -0.397378    1.786941    1.568088
     27          1           0        0.215392    0.996532    1.978921
     28          1           0       -0.449633    2.564914    2.321345
     29         16           0        0.463417    2.596137    0.185355
     30          6           0        1.020228    1.264766   -0.932305
     31          1           0        0.156490    0.792527   -1.373256
     32          1           0        1.548289    1.795730   -1.714631
     33          6           0        1.928096    0.180880   -0.354837
     34          1           0        2.220203   -0.460967   -1.177308
     35          1           0        1.382908   -0.428091    0.350075
     36         16           0        3.437449    0.840036    0.427630
     37          6           0        4.389008   -0.697549    0.625627
     38          1           0        3.708792   -1.477429    0.951245
     39          1           0        5.071297   -0.522178    1.446763
     40          6           0        5.156563   -1.173500   -0.609991
     41          1           0        5.473440   -2.199065   -0.465942
     42          1           0        4.514000   -1.172034   -1.480170
     43         16           0        6.604379   -0.170634   -1.067769
     44          6           0        7.885585   -0.773848    0.079128
     45          1           0        8.651793   -0.008485    0.059366
     46          1           0        7.489309   -0.783100    1.087145
     47          6           0        8.494825   -2.124425   -0.282286
     48          1           0        7.757137   -2.918404   -0.274638
     49          1           0        8.940950   -2.095695   -1.269000
     50          1           0        9.267250   -2.390096    0.433497
 ---------------------------------------------------------------------
 Stoichiometry    C14H30O3S3
 Framework group  C1[X(C14H30O3S3)]
                         Standard orientation:                         
 ---------------------------------------------------------------------
 Center     Atomic      Atomic             Coordinates (Angstroms)
 Number     Number       Type             X           Y           Z
 ---------------------------------------------------------------------
      1          6           0        8.349318    0.532153    1.818138
      2          1           0        9.011715   -0.235172    1.433649
      3          1           0        8.437540    1.406577    1.183161
      4          1           0        8.695499    0.795787    2.812261
      5          6           0        6.903504    0.063882    1.879808
      6          1           0        6.813393   -0.825683    2.498496
      7          1           0        6.286739    0.833702    2.323962
      8          8           0        6.341378   -0.181433    0.616224
      9          6           0        6.759550   -1.344691   -0.034304
     10          1           0        6.750295   -2.187128    0.651849
     11          1           0        7.773136   -1.226892   -0.408799
     12          6           0        5.842688   -1.641865   -1.202830
     13          1           0        5.730735   -0.756922   -1.819903
     14          1           0        6.312540   -2.410542   -1.808045
     15          8           0        4.597974   -2.140456   -0.792530
     16          6           0        3.434170   -1.446340   -1.152398
     17          1           0        2.640113   -2.180740   -1.174417
     18          1           0        3.528476   -1.042120   -2.155920
     19          6           0        3.060552   -0.359492   -0.152945
     20          1           0        3.818897    0.407640   -0.095570
     21          1           0        2.966982   -0.805086    0.828255
     22          8           0        1.808165    0.194137   -0.475567
     23          6           0        1.836852    1.305947   -1.327359
     24          1           0        2.294667    1.035938   -2.276582
     25          1           0        2.434331    2.096160   -0.884012
     26          6           0        0.423943    1.795717   -1.594596
     27          1           0       -0.191086    1.001264   -1.994098
     28          1           0        0.478682    2.562536   -2.359031
     29         16           0       -0.434746    2.627418   -0.223961
     30          6           0       -0.995768    1.314041    0.912723
     31          1           0       -0.133538    0.845675    1.360699
     32          1           0       -1.522420    1.857853    1.687134
     33          6           0       -1.906731    0.224608    0.350777
     34          1           0       -2.200931   -0.404384    1.182383
     35          1           0       -1.363201   -0.396131   -0.345093
     36         16           0       -3.413940    0.876844   -0.441558
     37          6           0       -4.370029   -0.660612   -0.617511
     38          1           0       -3.692066   -1.447148   -0.931616
     39          1           0       -5.051609   -0.495128   -1.441283
     40          6           0       -5.139272   -1.116326    0.624669
     41          1           0       -5.459170   -2.142924    0.495409
     42          1           0       -4.496902   -1.104164    1.494905
     43         16           0       -6.584198   -0.102632    1.067485
     44          6           0       -7.866939   -0.718587   -0.070894
     45          1           0       -8.630869    0.049258   -0.062426
     46          1           0       -7.470468   -0.743620   -1.078566
     47          6           0       -8.480278   -2.061968    0.309888
     48          1           0       -7.744956   -2.858164    0.313939
     49          1           0       -8.926535   -2.017618    1.295963
     50          1           0       -9.253331   -2.335683   -0.402176
 ---------------------------------------------------------------------
 Standard basis: 6-31G(d) (6D, 7F)
   372 basis functions,   752 primitive gaussians,   372 cartesian basis functions
    93 alpha electrons       93 beta electrons
 Requested convergence on RMS density matrix=1.00D-08 within  64 cycles.
 Requested convergence on MAX density matrix=1.00D-06.
 Requested convergence on             energy=1.00D-06.
 SCF Done:  E(RHF) =  -1964.68460229     A.U. after   13 cycles
            NFock= 13  Conv=0.25D-08     -V/T= 2.0006
 Step number   2 out of a maximum of   55
     Eigenvalues ---    0.00229   0.00230   0.00230   0.00230   0.00230
     Eigenvalues ---    0.00294   0.00398   0.00413   0.00453   0.00471
     Eigenvalues ---    0.00484   0.00558   0.00576   0.01459   0.01502
     Eigenvalues ---    0.01509   0.01545   0.01586   0.01604   0.04145
     Eigenvalues ---    0.04236   0.04259   0.04283   0.04314   0.04588
     Eigenvalues ---    0.04762   0.04766   0.04987   0.05071   0.05218
     Eigenvalues ---    0.05305   0.05492   0.05520   0.05639   0.05645
     Eigenvalues ---    0.05656   0.05659   0.05737   0.05755   0.05796
     Eigenvalues ---    0.05848   0.05866   0.05898   0.05946   0.06042
     Eigenvalues ---    0.06101   0.06130   0.11318   0.11348   0.11402
     Eigenvalues ---    0.11514   0.11638   0.11781   0.11788   0.11812
     Eigenvalues ---    0.11831   0.11885   0.11930   0.11995   0.13796
     Eigenvalues ---    0.13808   0.13836   0.13890   0.13995   0.14035
     Eigenvalues ---    0.14062   0.14078   0.14083   0.14110   0.14212
     Eigenvalues ---    0.14309   0.15993   0.16000   0.16000   0.16000
     Eigenvalues ---    0.16000   0.16009   0.21122   0.22014   0.22021
     Eigenvalues ---    0.22024   0.22032   0.22040   0.22047   0.22052
     Eigenvalues ---    0.22054   0.22076   0.22098   0.22454   0.23586
     Eigenvalues ---    0.24187   0.24286   0.24394   0.24496   0.24557
     Eigenvalues ---    0.24756   0.25000   0.25000   0.25000   0.25000
     Eigenvalues ---    0.27195   0.29625   0.29732   0.30011   0.30166
     Eigenvalues ---    0.30222   0.30571   0.30863   0.33528   0.33571
     Eigenvalues ---    0.33604   0.33678   0.33744   0.33808   0.33875
     Eigenvalues ---    0.33914   0.33967   0.34074   0.34189   0.34192
     Eigenvalues ---    0.34213   0.34249   0.34310   0.34335   0.34344
     Eigenvalues ---    0.34359   0.34361   0.34374   0.34381   0.34397
     Eigenvalues ---    0.34408   0.34426   0.34430   0.34439   0.34442
     Eigenvalues ---    0.34484   0.34664   0.37543   0.42215   0.43037
     Eigenvalues ---    0.43374   0.43807   0.43885   0.44441
 Maximum Force            0.014397     0.000015     NO 
 RMS     Force            0.001647     0.000010     NO 
 Maximum Displacement     2.056821     0.000060     NO 
 RMS     Displacement     0.668228     0.000040     NO 
                          Input orientation:                          
 ---------------------------------------------------------------------
 Center     Atomic      Atomic             Coordinates (Angstroms)
 Number     Number       Type             X           Y           Z
 ---------------------------------------------------------------------
      1          6           0       -7.596877    0.036041   -2.086462
      2          1           0       -8.220878   -0.784058   -1.759023
      3          1           0       -7.826975    0.900733   -1.479002
      4          1           0       -7.861630    0.259783   -3.111783
      5          6           0       -6.114682   -0.296871   -1.994860
      6          1           0       -5.884160   -1.175611   -2.585059
      7          1           0       -5.533142    0.521169   -2.388433
      8          8           0       -5.666000   -0.478531   -0.681858
      9          6           0       -6.028418   -1.666140   -0.051169
     10          1           0       -5.866678   -2.510371   -0.709087
     11          1           0       -7.075143   -1.650779    0.228127
     12          6           0       -5.198646   -1.846658    1.199747
     13          1           0       -5.247863   -0.947417    1.797306
     14          1           0       -5.622250   -2.656531    1.778964
     15          8           0       -3.876409   -2.174995    0.893346
     16          6           0       -2.855939   -1.325033    1.322807
     17          1           0       -1.965524   -1.926875    1.409540
     18          1           0       -3.080607   -0.931280    2.305838
     19          6           0       -2.593981   -0.202869    0.328782
     20          1           0       -3.459406    0.427990    0.204089
     21          1           0       -2.362345   -0.636029   -0.630690
     22          8           0       -1.480016    0.549306    0.725611
     23          6           0       -1.738698    1.657275    1.533573
     24          1           0       -2.209435    1.352686    2.461686
     25          1           0       -2.408437    2.339024    1.027582
     26          6           0       -0.433025    2.354488    1.864000
     27          1           0        0.251133    1.661451    2.326113
     28          1           0       -0.627514    3.137238    2.583934
     29         16           0        0.383580    3.211870    0.489706
     30          6           0        0.738070    1.915082   -0.735734
     31          1           0       -0.184178    1.618227   -1.203635
     32          1           0        1.340998    2.422001   -1.473782
     33          6           0        1.457945    0.657207   -0.252272
     34          1           0        1.637851    0.042712   -1.122513
     35          1           0        0.826939    0.093100    0.414779
     36         16           0        3.052204    1.002929    0.555847
     37          6           0        3.755538   -0.671551    0.600647
     38          1           0        2.974762   -1.359324    0.894406
     39          1           0        4.478758   -0.665892    1.400460
     40          6           0        4.400404   -1.162706   -0.698495
     41          1           0        4.558912   -2.229077   -0.637839
     42          1           0        3.741461   -0.997063   -1.535769
     43         16           0        5.967972   -0.360107   -1.147213
     44          6           0        7.171999   -1.216021   -0.084642
     45          1           0        8.052288   -0.591159   -0.114874
     46          1           0        6.821024   -1.203799    0.936171
     47          6           0        7.527626   -2.634051   -0.521753
     48          1           0        6.668715   -3.290420   -0.505731
     49          1           0        7.930413   -2.638818   -1.524179
     50          1           0        8.271262   -3.052279    0.145792
 ---------------------------------------------------------------------
 Stoichiometry    C14H30O3S3
 Framework group  C1[X(C14H30O3S3)]
                         Standard orientation:                         
 ---------------------------------------------------------------------
 Center     Atomic      Atomic             Coordinates (Angstroms)
 Number     Number       Type             X           Y           Z
 ---------------------------------------------------------------------
      1          6           0        7.589692   -0.476471    2.086456
      2          1           0        8.211506   -1.207854    1.588881
      3          1           0        7.823733    0.498908    1.682096
      4          1           0        7.853424   -0.482341    3.136146
      5          6           0        6.106550   -0.776041    1.923141
      6          1           0        5.872068   -1.761370    2.307595
      7          1           0        5.527076   -0.061224    2.484856
      8          8           0        5.659528   -0.665782    0.601663
      9          6           0        6.019053   -1.688864   -0.272166
     10          1           0        5.853352   -2.655509    0.185962
     11          1           0        7.066304   -1.616867   -0.540415
     12          6           0        5.190841   -1.589621   -1.533163
     13          1           0        5.244101   -0.582020   -1.920509
     14          1           0        5.612728   -2.255466   -2.274439
     15          8           0        3.866985   -1.971979   -1.306878
     16          6           0        2.850110   -1.045181   -1.541913
     17          1           0        1.957835   -1.610443   -1.758475
     18          1           0        3.077791   -0.447632   -2.415391
     19          6           0        2.590198   -0.165461   -0.327623
     20          1           0        3.457515    0.419946   -0.067717
     21          1           0        2.355457   -0.796315    0.514273
     22          8           0        1.479445    0.659132   -0.552193
     23          6           0        1.743230    1.915506   -1.099238
     24          1           0        2.214544    1.818621   -2.070956
     25          1           0        2.414375    2.468262   -0.456290
     26          6           0        0.440472    2.672696   -1.271151
     27          1           0       -0.245205    2.099420   -1.873747
     28          1           0        0.638824    3.592721   -1.803163
     29         16           0       -0.375626    3.213204    0.256091
     30          6           0       -0.736571    1.681983    1.169385
     31          1           0        0.183869    1.287001    1.562292
     32          1           0       -1.339070    2.018212    1.999535
     33          6           0       -1.459821    0.562206    0.422915
     34          1           0       -1.643285   -0.226388    1.138282
     35          1           0       -0.829558    0.154599   -0.350369
     36         16           0       -3.051516    1.081418   -0.292044
     37          6           0       -3.760377   -0.540547   -0.701086
     38          1           0       -2.981403   -1.150686   -1.136825
     39          1           0       -4.482193   -0.358218   -1.481162
     40          6           0       -4.409125   -1.300464    0.459304
     41          1           0       -4.571099   -2.327451    0.167732
     42          1           0       -3.751076   -1.323527    1.313184
     43         16           0       -5.974767   -0.609132    1.070537
     44          6           0       -7.179820   -1.208723   -0.154072
     45          1           0       -8.058061   -0.602236    0.010669
     46          1           0       -6.827046   -0.975780   -1.147389
     47          6           0       -7.540949   -2.686604   -0.036591
     48          1           0       -6.684214   -3.326858   -0.194345
     49          1           0       -7.945478   -2.908079    0.940354
     50          1           0       -8.284828   -2.946716   -0.779901
 ---------------------------------------------------------------------
 Standard basis: 6-31G(d) (6D, 7F)
   372 basis functions,   752 primitive gaussians,   372 cartesian basis functions
    93 alpha electrons       93 beta electrons
 Requested convergence on RMS density matrix=1.00D-08 within  64 cycles.
 Requested convergence on MAX density matrix=1.00D-06.
 Requested convergence on             energy=1.00D-06.
 SCF Done:  E(RHF) =  -1964.68390498     A.U. after   13 cycles
            NFock= 13  Conv=0.29D-08     -V/T= 2.0005
 Step number   3 out of a maximum of   55
     Eigenvalues ---    0.00226   0.00230   0.00230   0.00230   0.00233
     Eigenvalues ---    0.00397   0.00410   0.00453   0.00469   0.00484
     Eigenvalues ---    0.00544   0.00569   0.00934   0.01458   0.01502
     Eigenvalues ---    0.01510   0.01543   0.01586   0.01637   0.04184
     Eigenvalues ---    0.04250   0.04288   0.04323   0.04569   0.04708
     Eigenvalues ---    0.04771   0.04915   0.05000   0.05122   0.05327
     Eigenvalues ---    0.05437   0.05495   0.05518   0.05635   0.05642
     Eigenvalues ---    0.05654   0.05674   0.05724   0.05744   0.05810
     Eigenvalues ---    0.05817   0.05870   0.05881   0.05947   0.06092
     Eigenvalues ---    0.06130   0.06160   0.11129   0.11249   0.11365
     Eigenvalues ---    0.11450   0.11491   0.11648   0.11775   0.11783
     Eigenvalues ---    0.11816   0.11829   0.11856   0.11995   0.13750
     Eigenvalues ---    0.13759   0.13839   0.13884   0.13907   0.13963
     Eigenvalues ---    0.14046   0.14060   0.14076   0.14101   0.14181
     Eigenvalues ---    0.14341   0.15981   0.15998   0.16000   0.16000
     Eigenvalues ---    0.16000   0.16000   0.20847   0.21959   0.22013
     Eigenvalues ---    0.22028   0.22035   0.22039   0.22045   0.22047
     Eigenvalues ---    0.22050   0.22055   0.22114   0.23046   0.24006
     Eigenvalues ---    0.24182   0.24290   0.24402   0.24466   0.24496
     Eigenvalues ---    0.24736   0.24841   0.25000   0.25000   0.25000
     Eigenvalues ---    0.28892   0.29607   0.29787   0.29996   0.30136
     Eigenvalues ---    0.30220   0.30676   0.30937   0.33528   0.33572
     Eigenvalues ---    0.33612   0.33681   0.33755   0.33815   0.33884
     Eigenvalues ---    0.33955   0.34024   0.34054   0.34171   0.34190
     Eigenvalues ---    0.34192   0.34214   0.34251   0.34315   0.34336
     Eigenvalues ---    0.34345   0.34359   0.34368   0.34375   0.34382
     Eigenvalues ---    0.34406   0.34421   0.34429   0.34438   0.34442
     Eigenvalues ---    0.34485   0.34670   0.36779   0.41735   0.43040
     Eigenvalues ---    0.43376   0.43759   0.43833   0.44262
 Maximum Force            0.013998     0.000015     NO 
 RMS     Force            0.002078     0.000010     NO 
 Maximum Displacement     1.351626     0.000060     NO 
 RMS     Displacement     0.431447     0.000040     NO 
                          Input orientation:                          
 ---------------------------------------------------------------------
 Center     Atomic      Atomic             Coordinates (Angstroms)
 Number     Number       Type             X           Y           Z
 ---------------------------------------------------------------------
      1          6           0       -7.641149    0.372639   -2.219664
      2          1           0       -8.408238   -0.302262   -1.853871
      3          1           0       -7.724767    1.309288   -1.678574
      4          1           0       -7.843527    0.564327   -3.269538
      5          6           0       -6.242767   -0.208066   -2.055723
      6          1           0       -6.164882   -1.160689   -2.577316
      7          1           0       -5.514704    0.464391   -2.491918
      8          8           0       -5.859355   -0.364791   -0.717081
      9          6           0       -6.443484   -1.426114   -0.023989
     10          1           0       -6.415161   -2.336334   -0.619641
     11          1           0       -7.482539   -1.214824    0.224563
     12          6           0       -5.675705   -1.655149    1.257965
     13          1           0       -5.607573   -0.715867    1.799160
     14          1           0       -6.224096   -2.361683    1.876175
     15          8           0       -4.404201   -2.173145    0.992769
     16          6           0       -3.296373   -1.429202    1.408282
     17          1           0       -2.474339   -2.122147    1.537233
     18          1           0       -3.487195   -0.961527    2.371893
     19          6           0       -2.903151   -0.385505    0.369876
     20          1           0       -3.709852    0.319359    0.198472
     21          1           0       -2.701583   -0.887517   -0.567909
     22          8           0       -1.726469    0.276857    0.757530
     23          6           0       -1.900033    1.452592    1.493678
     24          1           0       -2.424288    1.248523    2.427143
     25          1           0       -2.491790    2.168830    0.929052
     26          6           0       -0.546298    2.051833    1.831694
     27          1           0        0.064025    1.331873    2.362936
     28          1           0       -0.705609    2.892335    2.498651
     29         16           0        0.391080    2.776593    0.455236
     30          6           0        0.807111    1.375684   -0.626712
     31          1           0       -0.103094    0.902978   -0.966687
     32          1           0        1.282255    1.849520   -1.477597
     33          6           0        1.728749    0.301869   -0.056592
     34          1           0        1.891287   -0.429556   -0.841454
     35          1           0        1.250424   -0.203947    0.770902
     36         16           0        3.338110    0.967517    0.475312
     37          6           0        4.250155   -0.590523    0.675694
     38          1           0        3.614212   -1.296293    1.201559
     39          1           0        5.077854   -0.363314    1.335617
     40          6           0        4.758746   -1.234851   -0.616351
     41          1           0        5.066511   -2.254744   -0.411659
     42          1           0        3.967096   -1.289541   -1.352882
     43         16           0        6.122867   -0.360202   -1.437861
     44          6           0        7.547744   -0.855949   -0.421498
     45          1           0        8.345581   -0.192662   -0.734273
     46          1           0        7.344127   -0.629137    0.619039
     47          6           0        7.979996   -2.310215   -0.585857
     48          1           0        7.200058   -3.000108   -0.280733
     49          1           0        8.229877   -2.523497   -1.618852
     50          1           0        8.855356   -2.509646    0.026799
 ---------------------------------------------------------------------
 Stoichiometry    C14H30O3S3
 Framework group  C1[X(C14H30O3S3)]
                         Standard orientation:                         
 ---------------------------------------------------------------------
 Center     Atomic      Atomic             Coordinates (Angstroms)
 Number     Number       Type             X           Y           Z
 ---------------------------------------------------------------------
      1          6           0        7.597670   -0.281580    2.373986
      2          1           0        8.368942   -0.836616    1.849775
      3          1           0        7.693120    0.766563    2.110610
      4          1           0        7.782737   -0.385279    3.439318
      5          6           0        6.200632   -0.785158    2.035962
      6          1           0        6.111201   -1.843387    2.276311
      7          1           0        5.467178   -0.251979    2.627828
      8          8           0        5.839560   -0.567659    0.699604
      9          6           0        6.432360   -1.403729   -0.247795
     10          1           0        6.391346   -2.441751    0.076139
     11          1           0        7.476080   -1.140270   -0.413004
     12          6           0        5.685810   -1.268437   -1.555353
     13          1           0        5.629541   -0.216615   -1.820471
     14          1           0        6.242612   -1.783384   -2.334396
     15          8           0        4.408522   -1.829776   -1.461507
     16          6           0        3.310024   -0.992520   -1.675255
     17          1           0        2.488335   -1.617867   -2.001308
     18          1           0        3.518505   -0.280967   -2.471438
     19          6           0        2.902190   -0.269080   -0.397554
     20          1           0        3.707860    0.356257   -0.027652
     21          1           0        2.683306   -1.006535    0.364244
     22          8           0        1.734143    0.482597   -0.607855
     23          6           0        1.923515    1.813325   -0.992161
     24          1           0        2.462962    1.867984   -1.937600
     25          1           0        2.507628    2.343839   -0.244270
     26          6           0        0.577419    2.492034   -1.174709
     27          1           0       -0.025837    1.948963   -1.891795
     28          1           0        0.750414    3.481489   -1.584230
     29         16           0       -0.381134    2.820381    0.332591
     30          6           0       -0.819448    1.180423    0.984248
     31          1           0        0.083510    0.626171    1.196333
     32          1           0       -1.307624    1.407459    1.924687
     33          6           0       -1.734315    0.309854    0.128292
     34          1           0       -1.912229   -0.606835    0.680958
     35          1           0       -1.243445    0.045644   -0.798331
     36         16           0       -3.332518    1.107257   -0.226592
     37          6           0       -4.245445   -0.330137   -0.858991
     38          1           0       -3.602670   -0.870203   -1.547640
     39          1           0       -5.061173    0.074687   -1.444581
     40          6           0       -4.777726   -1.298948    0.199917
     41          1           0       -5.084862   -2.221926   -0.280270
     42          1           0       -3.998853   -1.558458    0.905743
     43         16           0       -6.153112   -0.671768    1.207724
     44          6           0       -7.561927   -0.860715    0.072571
     45          1           0       -8.363075   -0.302152    0.542136
     46          1           0       -7.340030   -0.359963   -0.863179
     47          6           0       -8.001031   -2.301386   -0.173193
     48          1           0       -7.217985   -2.887502   -0.642942
     49          1           0       -8.269018   -2.786722    0.758280
     50          1           0       -8.866424   -2.319538   -0.830565
 ---------------------------------------------------------------------
 Standard basis: 6-31G(d) (6D, 7F)
   372 basis functions,   752 primitive gaussians,   372 cartesian basis functions
    93 alpha electrons       93 beta electrons
 Requested convergence on RMS density matrix=1.00D-08 within  64 cycles.
 Requested convergence on MAX density matrix=1.00D-06.
 Requested convergence on             energy=1.00D-06.
 SCF Done:  E(RHF) =  -1964.68500006     A.U. after   13 cycles
            NFock= 13  Conv=0.53D-08     -V/T= 2.0006
 Step number   4 out of a maximum of   55
     Eigenvalues ---    0.00227   0.00230   0.00230   0.00233   0.00334
     Eigenvalues ---    0.00374   0.00398   0.00420   0.00453   0.00484
     Eigenvalues ---    0.00552   0.00584   0.01348   0.01383   0.01497
     Eigenvalues ---    0.01509   0.01531   0.01585   0.01704   0.04236
     Eigenvalues ---    0.04276   0.04312   0.04346   0.04674   0.04782
     Eigenvalues ---    0.04960   0.04996   0.05005   0.05281   0.05386
     Eigenvalues ---    0.05515   0.05537   0.05594   0.05643   0.05647
     Eigenvalues ---    0.05681   0.05742   0.05748   0.05778   0.05829
     Eigenvalues ---    0.05857   0.05903   0.05942   0.06053   0.06126
     Eigenvalues ---    0.06177   0.06320   0.11181   0.11241   0.11279
     Eigenvalues ---    0.11420   0.11468   0.11588   0.11756   0.11768
     Eigenvalues ---    0.11797   0.11819   0.11882   0.11935   0.13711
     Eigenvalues ---    0.13772   0.13807   0.13860   0.13895   0.13927
     Eigenvalues ---    0.14014   0.14056   0.14063   0.14092   0.14186
     Eigenvalues ---    0.14402   0.15975   0.16000   0.16000   0.16000
     Eigenvalues ---    0.16003   0.16009   0.20729   0.22015   0.22027
     Eigenvalues ---    0.22031   0.22043   0.22048   0.22053   0.22057
     Eigenvalues ---    0.22073   0.22119   0.22689   0.23550   0.23929
     Eigenvalues ---    0.24191   0.24322   0.24470   0.24496   0.24741
     Eigenvalues ---    0.24938   0.25000   0.25000   0.25002   0.28962
     Eigenvalues ---    0.29635   0.29711   0.29864   0.30014   0.30193
     Eigenvalues ---    0.30223   0.31834   0.32928   0.33528   0.33571
     Eigenvalues ---    0.33604   0.33676   0.33753   0.33809   0.33896
     Eigenvalues ---    0.33952   0.34039   0.34150   0.34191   0.34192
     Eigenvalues ---    0.34222   0.34268   0.34312   0.34335   0.34346
     Eigenvalues ---    0.34359   0.34373   0.34377   0.34383   0.34407
     Eigenvalues ---    0.34424   0.34436   0.34442   0.34463   0.34485
     Eigenvalues ---    0.34771   0.35298   0.37333   0.41042   0.42955
     Eigenvalues ---    0.43373   0.43808   0.44030   0.45350
 Maximum Force            0.005943     0.000015     NO 
 RMS     Force            0.001109     0.000010     NO 
 Maximum Displacement     0.906775     0.000060     NO 
 RMS     Displacement     0.218440     0.000040     NO 
                          Input orientation:                          
 ---------------------------------------------------------------------
 Center     Atomic      Atomic             Coordinates (Angstroms)
 Number     Number       Type             X           Y           Z
 ---------------------------------------------------------------------
      1          6           0       -8.020109    0.376486   -2.019908
      2          1           0       -8.731909   -0.323351   -1.595590
      3          1           0       -8.077550    1.303018   -1.459333
      4          1           0       -8.323371    0.576022   -3.043048
      5          6           0       -6.597840   -0.168303   -1.994540
      6          1           0       -6.544087   -1.111631   -2.534063
      7          1           0       -5.931681    0.528203   -2.486619
      8          8           0       -6.088169   -0.330093   -0.700334
      9          6           0       -6.572956   -1.415195    0.028932
     10          1           0       -6.576874   -2.316073   -0.579920
     11          1           0       -7.589694   -1.234651    0.372597
     12          6           0       -5.686205   -1.638900    1.234563
     13          1           0       -5.592042   -0.708748    1.786160
     14          1           0       -6.164165   -2.366480    1.884520
     15          8           0       -4.434260   -2.133684    0.857112
     16          6           0       -3.296346   -1.421319    1.246422
     17          1           0       -2.478033   -2.128403    1.281893
     18          1           0       -3.420032   -1.014337    2.247030
     19          6           0       -2.946722   -0.319200    0.253366
     20          1           0       -3.743234    0.411838    0.182650
     21          1           0       -2.819739   -0.761165   -0.725928
     22          8           0       -1.730853    0.289726    0.603203
     23          6           0       -1.824212    1.423102    1.414125
     24          1           0       -2.296378    1.177876    2.364606
     25          1           0       -2.424628    2.189141    0.931436
     26          6           0       -0.432821    1.957178    1.701130
     27          1           0        0.182731    1.177327    2.130921
     28          1           0       -0.513099    2.746919    2.439665
     29         16           0        0.433449    2.753044    0.318239
     30          6           0        0.903049    1.383472   -0.778774
     31          1           0        0.009469    0.917125   -1.164164
     32          1           0        1.410961    1.875197   -1.599368
     33          6           0        1.794475    0.295289   -0.186726
     34          1           0        1.975304   -0.431483   -0.970561
     35          1           0        1.283072   -0.213610    0.619722
     36         16           0        3.391254    0.937038    0.407602
     37          6           0        4.285974   -0.628342    0.629110
     38          1           0        3.604177   -1.355885    1.057207
     39          1           0        5.041073   -0.430452    1.378330
     40          6           0        4.927444   -1.217395   -0.630541
     41          1           0        5.209380   -2.246481   -0.440741
     42          1           0        4.217607   -1.235503   -1.446782
     43         16           0        6.371106   -0.316327   -1.267158
     44          6           0        7.693302   -0.868766   -0.145915
     45          1           0        8.489576   -0.150374   -0.297298
     46          1           0        7.366264   -0.757800    0.881025
     47          6           0        8.211828   -2.281332   -0.402340
     48          1           0        7.440195   -3.028537   -0.254682
     49          1           0        8.581789   -2.377923   -1.416054
     50          1           0        9.024529   -2.508258    0.281818
 ---------------------------------------------------------------------
 Stoichiometry    C14H30O3S3
 Framework group  C1[X(C14H30O3S3)]
                         Standard orientation:                         
 ---------------------------------------------------------------------
 Center     Atomic      Atomic             Coordinates (Angstroms)
 Number     Number       Type             X           Y           Z
 ---------------------------------------------------------------------
      1          6           0        8.021931    0.052608    2.096742
      2          1           0        8.733690   -0.577891    1.574874
      3          1           0        8.086125    1.053255    1.683718
      4          1           0        8.319789    0.093073    3.139930
      5          6           0        6.597852   -0.475557    1.981293
      6          1           0        6.537411   -1.489625    2.370979
      7          1           0        5.931315    0.141153    2.569874
      8          8           0        6.095353   -0.436613    0.674815
      9          6           0        6.580518   -1.400565   -0.208195
     10          1           0        6.577487   -2.383465    0.256772
     11          1           0        7.599951   -1.174534   -0.514992
     12          6           0        5.700190   -1.434560   -1.438554
     13          1           0        5.612743   -0.431010   -1.842968
     14          1           0        6.179365   -2.057152   -2.188909
     15          8           0        4.444202   -1.975247   -1.147355
     16          6           0        3.311259   -1.206871   -1.430045
     17          1           0        2.490587   -1.896650   -1.576891
     18          1           0        3.442427   -0.653216   -2.356549
     19          6           0        2.959735   -0.266773   -0.283001
     20          1           0        3.758483    0.441428   -0.097798
     21          1           0        2.825269   -0.851753    0.617106
     22          8           0        1.748224    0.393723   -0.542805
     23          6           0        1.850592    1.636669   -1.171659
     24          1           0        2.327541    1.536496   -2.145813
     25          1           0        2.450909    2.317790   -0.575004
     26          6           0        0.462912    2.214438   -1.381672
     27          1           0       -0.152909    1.511701   -1.928222
     28          1           0        0.550506    3.106806   -1.991244
     29         16           0       -0.408703    2.794978    0.101391
     30          6           0       -0.889882    1.276835    0.975118
     31          1           0       -0.000342    0.753324    1.289991
     32          1           0       -1.400894    1.640534    1.858143
     33          6           0       -1.781728    0.295237    0.219884
     34          1           0       -1.969912   -0.541315    0.883255
     35          1           0       -1.267373   -0.087600   -0.651749
     36         16           0       -3.372556    1.027032   -0.278630
     37          6           0       -4.271665   -0.482480   -0.740127
     38          1           0       -3.589987   -1.139654   -1.270100
     39          1           0       -5.021532   -0.169684   -1.454636
     40          6           0       -4.922823   -1.253085    0.411979
     41          1           0       -5.207388   -2.240122    0.066565
     42          1           0       -4.217959   -1.398159    1.219795
     43         16           0       -6.366960   -0.452614    1.170320
     44          6           0       -7.684432   -0.822369   -0.028898
     45          1           0       -8.478960   -0.131697    0.225571
     46          1           0       -7.350844   -0.558216   -1.025300
     47          6           0       -8.209659   -2.255128    0.007214
     48          1           0       -7.439900   -2.974731   -0.248083
     49          1           0       -8.586037   -2.502869    0.992495
     50          1           0       -9.019074   -2.371836   -0.707823
 ---------------------------------------------------------------------
 Standard basis: 6-31G(d) (6D, 7F)
   372 basis functions,   752 primitive gaussians,   372 cartesian basis functions
    93 alpha electrons       93 beta electrons
 Requested convergence on RMS density matrix=1.00D-08 within  64 cycles.
 Requested convergence on MAX density matrix=1.00D-06.
 Requested convergence on             energy=1.00D-06.
 SCF Done:  E(RHF) =  -1964.68585771     A.U. after   12 cycles
            NFock= 12  Conv=0.81D-08     -V/T= 2.0006
 Step number   5 out of a maximum of   55
     Eigenvalues ---    0.00229   0.00230   0.00230   0.00241   0.00328
     Eigenvalues ---    0.00396   0.00398   0.00453   0.00481   0.00484
     Eigenvalues ---    0.00550   0.00593   0.01190   0.01421   0.01495
     Eigenvalues ---    0.01509   0.01539   0.01585   0.01632   0.04258
     Eigenvalues ---    0.04294   0.04296   0.04405   0.04685   0.04782
     Eigenvalues ---    0.04902   0.04944   0.04999   0.05295   0.05373
     Eigenvalues ---    0.05507   0.05539   0.05602   0.05648   0.05656
     Eigenvalues ---    0.05685   0.05743   0.05752   0.05782   0.05830
     Eigenvalues ---    0.05871   0.05902   0.05980   0.06046   0.06142
     Eigenvalues ---    0.06197   0.06208   0.11226   0.11282   0.11390
     Eigenvalues ---    0.11468   0.11536   0.11697   0.11768   0.11787
     Eigenvalues ---    0.11815   0.11836   0.11874   0.11947   0.13733
     Eigenvalues ---    0.13760   0.13851   0.13869   0.13930   0.13958
     Eigenvalues ---    0.14057   0.14070   0.14085   0.14106   0.14214
     Eigenvalues ---    0.14478   0.15990   0.16000   0.16000   0.16002
     Eigenvalues ---    0.16003   0.16009   0.21372   0.22017   0.22028
     Eigenvalues ---    0.22034   0.22043   0.22052   0.22053   0.22067
     Eigenvalues ---    0.22098   0.22228   0.22665   0.23734   0.24181
     Eigenvalues ---    0.24291   0.24462   0.24486   0.24519   0.24739
     Eigenvalues ---    0.24928   0.25000   0.25001   0.25265   0.28847
     Eigenvalues ---    0.29577   0.29700   0.29887   0.30053   0.30197
     Eigenvalues ---    0.30238   0.31453   0.33194   0.33523   0.33572
     Eigenvalues ---    0.33612   0.33675   0.33753   0.33810   0.33897
     Eigenvalues ---    0.33950   0.34041   0.34190   0.34191   0.34202
     Eigenvalues ---    0.34228   0.34298   0.34325   0.34335   0.34352
     Eigenvalues ---    0.34359   0.34374   0.34382   0.34395   0.34414
     Eigenvalues ---    0.34427   0.34440   0.34444   0.34467   0.34485
     Eigenvalues ---    0.34827   0.35179   0.37684   0.41645   0.42953
     Eigenvalues ---    0.43371   0.43819   0.44044   0.45464
 Maximum Force            0.001698     0.000015     NO 
 RMS     Force            0.000312     0.000010     NO 
 Maximum Displacement     0.303845     0.000060     NO 
 RMS     Displacement     0.088108     0.000040     NO 
                          Input orientation:                          
 ---------------------------------------------------------------------
 Center     Atomic      Atomic             Coordinates (Angstroms)
 Number     Number       Type             X           Y           Z
 ---------------------------------------------------------------------
      1          6           0       -8.006023    0.282499   -2.068100
      2          1           0       -8.703319   -0.426796   -1.634809
      3          1           0       -8.083974    1.215265   -1.519919
      4          1           0       -8.312512    0.461710   -3.094256
      5          6           0       -6.572526   -0.231888   -2.034189
      6          1           0       -6.497736   -1.181265   -2.561249
      7          1           0       -5.920005    0.471951   -2.534806
      8          8           0       -6.061106   -0.365851   -0.737222
      9          6           0       -6.522289   -1.452656    0.005038
     10          1           0       -6.507289   -2.360788   -0.593506
     11          1           0       -7.543414   -1.289010    0.345078
     12          6           0       -5.630767   -1.640049    1.213687
     13          1           0       -5.553201   -0.699176    1.750115
     14          1           0       -6.093513   -2.365708    1.877509
     15          8           0       -4.371394   -2.118590    0.839027
     16          6           0       -3.245089   -1.396641    1.244459
     17          1           0       -2.418483   -2.094631    1.277798
     18          1           0       -3.379837   -1.002498    2.249182
     19          6           0       -2.903840   -0.279370    0.264944
     20          1           0       -3.710257    0.441329    0.195784
     21          1           0       -2.763980   -0.708309   -0.718645
     22          8           0       -1.699540    0.343261    0.631409
     23          6           0       -1.816912    1.471566    1.446823
     24          1           0       -2.300321    1.214449    2.389071
     25          1           0       -2.421555    2.231209    0.958741
     26          6           0       -0.433720    2.018047    1.752484
     27          1           0        0.185289    1.239028    2.178508
     28          1           0       -0.525688    2.796796    2.501529
     29         16           0        0.434118    2.831983    0.380698
     30          6           0        0.912129    1.477185   -0.734845
     31          1           0        0.021448    1.023696   -1.142507
     32          1           0        1.436101    1.977203   -1.540513
     33          6           0        1.789781    0.372508   -0.151746
     34          1           0        1.983895   -0.337612   -0.947898
     35          1           0        1.261322   -0.155855    0.630790
     36         16           0        3.378393    0.992195    0.487855
     37          6           0        4.257058   -0.582992    0.708376
     38          1           0        3.572436   -1.296496    1.155745
     39          1           0        5.030113   -0.392532    1.441495
     40          6           0        4.861505   -1.192013   -0.559806
     41          1           0        5.129902   -2.225086   -0.369672
     42          1           0        4.132144   -1.202673   -1.359537
     43         16           0        6.305847   -0.319637   -1.234702
     44          6           0        7.659228   -0.952726   -0.195773
     45          1           0        8.477129   -0.262931   -0.366343
     46          1           0        7.386821   -0.857690    0.848790
     47          6           0        8.104820   -2.377645   -0.513138
     48          1           0        7.309577   -3.096104   -0.346856
     49          1           0        8.421001   -2.461698   -1.546219
     50          1           0        8.939232   -2.656970    0.124319
 ---------------------------------------------------------------------
 Stoichiometry    C14H30O3S3
 Framework group  C1[X(C14H30O3S3)]
                         Standard orientation:                         
 ---------------------------------------------------------------------
 Center     Atomic      Atomic             Coordinates (Angstroms)
 Number     Number       Type             X           Y           Z
 ---------------------------------------------------------------------
      1          6           0        8.012375   -0.175935    2.110638
      2          1           0        8.709215   -0.779415    1.538547
      3          1           0        8.093934    0.851496    1.772458
      4          1           0        8.316504   -0.218816    3.152135
      5          6           0        6.577804   -0.667473    1.965543
      6          1           0        6.499424   -1.706677    2.279572
      7          1           0        5.925543   -0.083700    2.602376
      8          8           0        6.069578   -0.522481    0.668506
      9          6           0        6.530278   -1.428867   -0.285960
     10          1           0        6.511590   -2.443057    0.106791
     11          1           0        7.552687   -1.199825   -0.581464
     12          6           0        5.641594   -1.353720   -1.508806
     13          1           0        5.567624   -0.320418   -1.834119
     14          1           0        6.104470   -1.923748   -2.310174
     15          8           0        4.380126   -1.897182   -1.246625
     16          6           0        3.256569   -1.102628   -1.492501
     17          1           0        2.428464   -1.775432   -1.674589
     18          1           0        3.394927   -0.505155   -2.390753
     19          6           0        2.915232   -0.217015   -0.299448
     20          1           0        3.723104    0.470460   -0.077589
     21          1           0        2.771742   -0.844008    0.570774
     22          8           0        1.713350    0.472443   -0.528427
     23          6           0        1.835498    1.747429   -1.086317
     24          1           0        2.320858    1.694197   -2.060595
     25          1           0        2.440556    2.384870   -0.447218
     26          6           0        0.454386    2.350095   -1.272372
     27          1           0       -0.165249    1.680622   -1.854950
     28          1           0        0.550153    3.269469   -1.839432
     29         16           0       -0.415286    2.857702    0.238732
     30          6           0       -0.899397    1.298848    1.041239
     31          1           0       -0.010857    0.766860    1.345605
     32          1           0       -1.424397    1.618497    1.933352
     33          6           0       -1.777994    0.345063    0.235663
     34          1           0       -1.975876   -0.516919    0.863069
     35          1           0       -1.248635   -0.007196   -0.639830
     36         16           0       -3.363456    1.090527   -0.261713
     37          6           0       -4.245118   -0.399839   -0.812508
     38          1           0       -3.560924   -1.004418   -1.399277
     39          1           0       -5.015756   -0.056372   -1.490372
     40          6           0       -4.854373   -1.261763    0.296747
     41          1           0       -5.124615   -2.230439   -0.108301
     42          1           0       -4.127198   -1.443479    1.077674
     43         16           0       -6.298534   -0.547936    1.137877
     44          6           0       -7.650550   -0.943012   -0.014418
     45          1           0       -8.467330   -0.302652    0.296518
     46          1           0       -7.375110   -0.629825   -1.014615
     47          6           0       -8.100249   -2.401566   -0.006776
     48          1           0       -7.306204   -3.070786   -0.319637
     49          1           0       -8.419407   -2.701467    0.984430
     50          1           0       -8.933574   -2.537315   -0.690705
 ---------------------------------------------------------------------
 Standard basis: 6-31G(d) (6D, 7F)
   372 basis functions,   752 primitive gaussians,   372 cartesian basis functions
    93 alpha electrons       93 beta electrons
 Requested convergence on RMS density matrix=1.00D-08 within  64 cycles.
 Requested convergence on MAX density matrix=1.00D-06.
 Requested convergence on             energy=1.00D-06.
 SCF Done:  E(RHF) =  -1964.68597001     A.U. after   11 cycles
            NFock= 11  Conv=0.55D-08     -V/T= 2.0006
 Step number   6 out of a maximum of   55
     Eigenvalues ---    0.00223   0.00230   0.00232   0.00306   0.00353
     Eigenvalues ---    0.00397   0.00442   0.00453   0.00484   0.00506
     Eigenvalues ---    0.00559   0.00576   0.00759   0.01472   0.01492
     Eigenvalues ---    0.01507   0.01537   0.01580   0.01603   0.04274
     Eigenvalues ---    0.04290   0.04328   0.04567   0.04732   0.04781
     Eigenvalues ---    0.04892   0.04924   0.05012   0.05305   0.05375
     Eigenvalues ---    0.05513   0.05540   0.05614   0.05651   0.05663
     Eigenvalues ---    0.05680   0.05740   0.05782   0.05792   0.05827
     Eigenvalues ---    0.05879   0.05900   0.05911   0.06052   0.06086
     Eigenvalues ---    0.06140   0.06265   0.11158   0.11247   0.11383
     Eigenvalues ---    0.11444   0.11465   0.11629   0.11772   0.11787
     Eigenvalues ---    0.11817   0.11824   0.11870   0.11950   0.13726
     Eigenvalues ---    0.13754   0.13849   0.13871   0.13899   0.13958
     Eigenvalues ---    0.14010   0.14058   0.14079   0.14096   0.14196
     Eigenvalues ---    0.14545   0.15981   0.15999   0.16000   0.16000
     Eigenvalues ---    0.16002   0.16019   0.21252   0.21615   0.22014
     Eigenvalues ---    0.22024   0.22032   0.22045   0.22051   0.22064
     Eigenvalues ---    0.22096   0.22310   0.23268   0.23563   0.23968
     Eigenvalues ---    0.24187   0.24347   0.24473   0.24523   0.24732
     Eigenvalues ---    0.24772   0.24952   0.25001   0.25544   0.28995
     Eigenvalues ---    0.29710   0.29757   0.29891   0.30024   0.30199
     Eigenvalues ---    0.30314   0.31818   0.33497   0.33548   0.33571
     Eigenvalues ---    0.33625   0.33676   0.33754   0.33823   0.33891
     Eigenvalues ---    0.33986   0.34033   0.34176   0.34191   0.34215
     Eigenvalues ---    0.34234   0.34306   0.34333   0.34342   0.34358
     Eigenvalues ---    0.34361   0.34373   0.34380   0.34389   0.34405
     Eigenvalues ---    0.34434   0.34441   0.34456   0.34484   0.34609
     Eigenvalues ---    0.34892   0.35486   0.37824   0.41844   0.43002
     Eigenvalues ---    0.43427   0.43820   0.44042   0.45745
 Maximum Force            0.000854     0.000015     NO 
 RMS     Force            0.000186     0.000010     NO 
 Maximum Displacement     0.508663     0.000060     NO 
 RMS     Displacement     0.103317     0.000040     NO 
                          Input orientation:                          
 ---------------------------------------------------------------------
 Center     Atomic      Atomic             Coordinates (Angstroms)
 Number     Number       Type             X           Y           Z
 ---------------------------------------------------------------------
      1          6           0       -8.024758    0.212510   -2.033758
      2          1           0       -8.705881   -0.491567   -1.566793
      3          1           0       -8.093954    1.156445   -1.503220
      4          1           0       -8.359812    0.368102   -3.055035
      5          6           0       -6.587702   -0.293543   -2.027099
      6          1           0       -6.520904   -1.253619   -2.536450
      7          1           0       -5.952054    0.403004   -2.559420
      8          8           0       -6.041957   -0.397785   -0.741430
      9          6           0       -6.473421   -1.474287    0.033502
     10          1           0       -6.469149   -2.393558   -0.548659
     11          1           0       -7.485987   -1.311460    0.399660
     12          6           0       -5.541806   -1.626892    1.216122
     13          1           0       -5.454099   -0.670975    1.724060
     14          1           0       -5.971730   -2.338820    1.917139
     15          8           0       -4.294187   -2.100074    0.797435
     16          6           0       -3.160687   -1.391077    1.204292
     17          1           0       -2.330634   -2.086194    1.193203
     18          1           0       -3.272397   -1.033194    2.225741
     19          6           0       -2.852533   -0.237737    0.255584
     20          1           0       -3.671956    0.471878    0.222661
     21          1           0       -2.723997   -0.631116   -0.744454
     22          8           0       -1.653163    0.392844    0.624953
     23          6           0       -1.778272    1.505623    1.461246
     24          1           0       -2.259668    1.224927    2.398543
     25          1           0       -2.392757    2.266461    0.987097
     26          6           0       -0.395971    2.055164    1.770571
     27          1           0        0.232157    1.267604    2.166043
     28          1           0       -0.482484    2.807357    2.546959
     29         16           0        0.449051    2.911734    0.410098
     30          6           0        0.898357    1.595938   -0.767180
     31          1           0       -0.000634    1.190613   -1.206732
     32          1           0        1.447450    2.115127   -1.543790
     33          6           0        1.737858    0.437324   -0.234105
     34          1           0        1.928282   -0.231954   -1.065853
     35          1           0        1.181353   -0.124036    0.504547
     36         16           0        3.330084    0.976475    0.467710
     37          6           0        4.158789   -0.632232    0.636098
     38          1           0        3.432157   -1.355563    0.993387
     39          1           0        4.890154   -0.510733    1.425214
     40          6           0        4.827788   -1.171087   -0.631407
     41          1           0        5.061099   -2.221453   -0.495898
     42          1           0        4.149577   -1.110163   -1.473242
     43         16           0        6.333651   -0.294763   -1.149586
     44          6           0        7.595559   -1.021549   -0.057736
     45          1           0        8.426395   -0.326689   -0.097170
     46          1           0        7.234127   -1.013559    0.964369
     47          6           0        8.064666   -2.418286   -0.456051
     48          1           0        7.256228   -3.140815   -0.420101
     49          1           0        8.467772   -2.417643   -1.462165
     50          1           0        8.841000   -2.758709    0.224100
 ---------------------------------------------------------------------
 Stoichiometry    C14H30O3S3
 Framework group  C1[X(C14H30O3S3)]
                         Standard orientation:                         
 ---------------------------------------------------------------------
 Center     Atomic      Atomic             Coordinates (Angstroms)
 Number     Number       Type             X           Y           Z
 ---------------------------------------------------------------------
      1          6           0        8.043381   -0.224407    2.040645
      2          1           0        8.722847   -0.818789    1.438361
      3          1           0        8.113897    0.808196    1.715019
      4          1           0        8.379515   -0.282249    3.071734
      5          6           0        6.605393   -0.715971    1.931919
      6          1           0        6.537230   -1.760027    2.233492
      7          1           0        5.971440   -0.142444    2.596570
      8          8           0        6.058457   -0.553272    0.652841
      9          6           0        6.487341   -1.448547   -0.326995
     10          1           0        6.481835   -2.467711    0.054142
     11          1           0        7.499919   -1.215705   -0.653100
     12          6           0        5.554526   -1.353697   -1.514701
     13          1           0        5.468180   -0.313748   -1.815569
     14          1           0        5.982597   -1.907323   -2.347380
     15          8           0        4.306368   -1.900684   -1.200603
     16          6           0        3.173855   -1.121431   -1.452020
     17          1           0        2.342536   -1.802670   -1.582864
     18          1           0        3.285426   -0.561738   -2.378418
     19          6           0        2.868557   -0.186815   -0.286480
     20          1           0        3.689307    0.499601   -0.109573
     21          1           0        2.740078   -0.776826    0.611699
     22          8           0        1.670059    0.508106   -0.517222
     23          6           0        1.796559    1.768611   -1.107511
     24          1           0        2.276709    1.685442   -2.083010
     25          1           0        2.412809    2.414951   -0.488024
     26          6           0        0.415030    2.372194   -1.295911
     27          1           0       -0.214851    1.683578   -1.843862
     28          1           0        0.502319    3.267558   -1.901520
     29         16           0       -0.427360    2.932738    0.212345
     30          6           0       -0.878163    1.404095    1.095071
     31          1           0        0.020425    0.915725    1.441070
[...]
     19          6           0       -2.808498   -0.210097    0.192220
     20          1           0       -3.637299    0.489105    0.185819
     21          1           0       -2.686053   -0.577004   -0.818371
     22          8           0       -1.612537    0.426495    0.561756
     23          6           0       -1.743282    1.514261    1.431156
     24          1           0       -2.223436    1.204639    2.359074
     25          1           0       -2.359264    2.286589    0.978891
     26          6           0       -0.366959    2.063861    1.760591
     27          1           0        0.265177    1.276243    2.149855
     28          1           0       -0.468212    2.806405    2.544409
     29         16           0        0.487969    2.953191    0.428452
     30          6           0        0.944070    1.668190   -0.777314
     31          1           0        0.049117    1.291096   -1.249001
     32          1           0        1.517673    2.206852   -1.522057
     33          6           0        1.749582    0.478865   -0.261707
     34          1           0        1.965150   -0.155393   -1.114416
     35          1           0        1.157176   -0.102036    0.432093
     36         16           0        3.319106    0.967881    0.522380
     37          6           0        4.121263   -0.658566    0.641524
     38          1           0        3.376782   -1.385245    0.951227
     39          1           0        4.834421   -0.579082    1.451875
     40          6           0        4.814031   -1.153653   -0.630939
     41          1           0        5.033162   -2.210935   -0.533395
     42          1           0        4.157734   -1.050793   -1.485409
     43         16           0        6.340967   -0.274478   -1.078398
     44          6           0        7.565476   -1.055899    0.018623
     45          1           0        8.408930   -0.375847    0.014470
     46          1           0        7.183268   -1.068220    1.032799
     47          6           0        8.017494   -2.449250   -0.409414
     48          1           0        7.195582   -3.156891   -0.414357
     49          1           0        8.444804   -2.427138   -1.405056
     50          1           0        8.770630   -2.824468    0.278127
 ---------------------------------------------------------------------
 Stoichiometry    C14H30O3S3
 Framework group  C1[X(C14H30O3S3)]
                         Standard orientation:                         
 ---------------------------------------------------------------------
 Center     Atomic      Atomic             Coordinates (Angstroms)
 Number     Number       Type             X           Y           Z
 ---------------------------------------------------------------------
      1          6           0        8.151715   -0.254261    1.925201
      2          1           0        8.790813   -0.866268    1.297323
      3          1           0        8.233688    0.775270    1.593452
      4          1           0        8.529466   -0.317731    2.941267
      5          6           0        6.699482   -0.710701    1.878730
      6          1           0        6.618339   -1.751074    2.188150
      7          1           0        6.107733   -0.118848    2.565328
      8          8           0        6.103334   -0.540290    0.622471
      9          6           0        6.480587   -1.442198   -0.373494
     10          1           0        6.491546   -2.458908    0.012403
     11          1           0        7.474970   -1.213294   -0.752339
     12          6           0        5.486342   -1.351115   -1.509581
     13          1           0        5.379408   -0.310904   -1.800968
     14          1           0        5.868975   -1.900808   -2.366217
     15          8           0        4.258988   -1.901349   -1.124046
     16          6           0        3.107363   -1.147457   -1.369431
     17          1           0        2.282390   -1.843749   -1.448218
     18          1           0        3.181398   -0.621393   -2.318387
     19          6           0        2.829254   -0.175444   -0.228814
     20          1           0        3.658613    0.508852   -0.088319
     21          1           0        2.713193   -0.736942    0.688878
     22          8           0        1.631369    0.521466   -0.455791
     23          6           0        1.757211    1.761082   -1.091167
     24          1           0        2.231002    1.643377   -2.065391
     25          1           0        2.376750    2.427822   -0.497791
     26          6           0        0.379166    2.364638   -1.295042
     27          1           0       -0.256123    1.670319   -1.829637
     28          1           0        0.475818    3.248876   -1.915344
     29         16           0       -0.466283    2.969383    0.193549
     30          6           0       -0.915408    1.469117    1.121244
     31          1           0       -0.017653    1.005892    1.502149
     32          1           0       -1.483678    1.847789    1.962372
     33          6           0       -1.725208    0.406335    0.383740
     34          1           0       -1.935635   -0.385630    1.093934
     35          1           0       -1.137831   -0.023891   -0.416037
     36         16           0       -3.299492    1.041261   -0.276437
     37          6           0       -4.103658   -0.529040   -0.712842
     38          1           0       -3.361790   -1.178763   -1.166407
     39          1           0       -4.822081   -0.289654   -1.486238
     40          6           0       -4.788402   -1.268781    0.439596
     41          1           0       -5.008978   -2.285379    0.134221
     42          1           0       -4.126409   -1.338348    1.293030
     43         16           0       -6.311683   -0.497607    1.063778
     44          6           0       -7.543993   -1.044779   -0.159133
     45          1           0       -8.386882   -0.379750   -0.013612
     46          1           0       -7.168487   -0.853999   -1.157825
     47          6           0       -7.994243   -2.495815   -0.015143
     48          1           0       -7.172857   -3.189707   -0.157123
     49          1           0       -8.414964   -2.673324    0.967643
     50          1           0       -8.752181   -2.726523   -0.758797
 ---------------------------------------------------------------------
 Standard basis: 6-31G(d) (6D, 7F)
   372 basis functions,   752 primitive gaussians,   372 cartesian basis functions
    93 alpha electrons       93 beta electrons
 Requested convergence on RMS density matrix=1.00D-08 within  64 cycles.
 Requested convergence on MAX density matrix=1.00D-06.
 Requested convergence on             energy=1.00D-06.
 SCF Done:  E(RHF) =  -1964.68614902     A.U. after    4 cycles
            NFock=  4  Conv=0.20D-08     -V/T= 2.0006
 Step number  28 out of a maximum of   55
     Eigenvalues ---    0.00219   0.00241   0.00319   0.00358   0.00385
     Eigenvalues ---    0.00411   0.00444   0.00462   0.00487   0.00520
     Eigenvalues ---    0.00552   0.00631   0.00675   0.00751   0.00826
     Eigenvalues ---    0.00928   0.01503   0.01549   0.01624   0.04458
     Eigenvalues ---    0.04558   0.04733   0.04791   0.04903   0.05068
     Eigenvalues ---    0.05152   0.05268   0.05437   0.05502   0.05544
     Eigenvalues ---    0.05576   0.05655   0.05671   0.05690   0.05713
     Eigenvalues ---    0.05735   0.05753   0.05833   0.05882   0.05915
     Eigenvalues ---    0.05975   0.06038   0.06084   0.06215   0.06283
     Eigenvalues ---    0.06412   0.06726   0.11319   0.11336   0.11442
     Eigenvalues ---    0.11511   0.11614   0.11739   0.11808   0.11844
     Eigenvalues ---    0.11923   0.12062   0.12257   0.12358   0.13615
     Eigenvalues ---    0.13724   0.13849   0.13877   0.13916   0.14064
     Eigenvalues ---    0.14099   0.14120   0.14196   0.14390   0.14482
     Eigenvalues ---    0.15081   0.15992   0.15998   0.16007   0.16018
     Eigenvalues ---    0.16054   0.16124   0.20358   0.21722   0.21960
     Eigenvalues ---    0.22086   0.22258   0.22538   0.22761   0.23267
     Eigenvalues ---    0.23695   0.23811   0.24061   0.24183   0.24329
     Eigenvalues ---    0.24428   0.24572   0.24816   0.24845   0.25266
     Eigenvalues ---    0.26274   0.26502   0.28091   0.29161   0.29816
     Eigenvalues ---    0.30013   0.30075   0.30269   0.30393   0.30735
     Eigenvalues ---    0.32398   0.33227   0.33507   0.33580   0.33667
     Eigenvalues ---    0.33690   0.33789   0.33831   0.33909   0.34024
     Eigenvalues ---    0.34086   0.34201   0.34239   0.34270   0.34287
     Eigenvalues ---    0.34301   0.34341   0.34365   0.34376   0.34423
     Eigenvalues ---    0.34427   0.34447   0.34460   0.34497   0.34542
     Eigenvalues ---    0.34550   0.34650   0.34780   0.35248   0.35576
     Eigenvalues ---    0.35728   0.36643   0.39754   0.42794   0.43200
     Eigenvalues ---    0.43826   0.44096   0.44432   0.51290
 Maximum Force            0.000000     0.000015     YES
 RMS     Force            0.000000     0.000010     YES
 Maximum Displacement     0.000066     0.000060     NO 
 RMS     Displacement     0.000017     0.000040     YES
 Optimization completed on the basis of negligible forces.
    -- Stationary point found.
                          Input orientation:                          
 ---------------------------------------------------------------------
 Center     Atomic      Atomic             Coordinates (Angstroms)
 Number     Number       Type             X           Y           Z
 ---------------------------------------------------------------------
      1          6           0       -8.116557    0.147116   -1.969143
      2          1           0       -8.759444   -0.577514   -1.480433
      3          1           0       -8.201307    1.089666   -1.438927
      4          1           0       -8.487546    0.288227   -2.979870
      5          6           0       -6.664404   -0.310513   -2.005237
      6          1           0       -6.580625   -1.268147   -2.515746
      7          1           0       -6.068466    0.406138   -2.555820
      8          8           0       -6.076671   -0.394998   -0.736359
      9          6           0       -6.459987   -1.477428    0.056811
     10          1           0       -6.467815   -2.396525   -0.524511
     11          1           0       -7.456982   -1.328075    0.467190
     12          6           0       -5.473326   -1.615934    1.194717
     13          1           0       -5.368912   -0.655000    1.688764
     14          1           0       -5.861301   -2.325409    1.921708
     15          8           0       -4.243137   -2.078979    0.715115
     16          6           0       -3.093588   -1.390196    1.113767
     17          1           0       -2.268758   -2.088820    1.057280
     18          1           0       -3.174194   -1.064287    2.148189
     19          6           0       -2.808498   -0.210097    0.192220
     20          1           0       -3.637299    0.489105    0.185819
     21          1           0       -2.686053   -0.577004   -0.818371
     22          8           0       -1.612537    0.426495    0.561756
     23          6           0       -1.743282    1.514261    1.431156
     24          1           0       -2.223436    1.204639    2.359074
     25          1           0       -2.359264    2.286589    0.978891
     26          6           0       -0.366959    2.063861    1.760591
     27          1           0        0.265177    1.276243    2.149855
     28          1           0       -0.468212    2.806405    2.544409
     29         16           0        0.487969    2.953191    0.428452
     30          6           0        0.944070    1.668190   -0.777314
     31          1           0        0.049117    1.291096   -1.249001
     32          1           0        1.517673    2.206852   -1.522057
     33          6           0        1.749582    0.478865   -0.261707
     34          1           0        1.965150   -0.155393   -1.114416
     35          1           0        1.157176   -0.102036    0.432093
     36         16           0        3.319106    0.967881    0.522380
     37          6           0        4.121263   -0.658566    0.641524
     38          1           0        3.376782   -1.385245    0.951227
     39          1           0        4.834421   -0.579082    1.451875
     40          6           0        4.814031   -1.153653   -0.630939
     41          1           0        5.033162   -2.210935   -0.533395
     42          1           0        4.157734   -1.050793   -1.485409
     43         16           0        6.340967   -0.274478   -1.078398
     44          6           0        7.565476   -1.055899    0.018623
     45          1           0        8.408930   -0.375847    0.014470
     46          1           0        7.183268   -1.068220    1.032799
     47          6           0        8.017494   -2.449250   -0.409414
     48          1           0        7.195582   -3.156891   -0.414357
     49          1           0        8.444804   -2.427138   -1.405056
     50          1           0        8.770630   -2.824468    0.278127
 ---------------------------------------------------------------------
 Stoichiometry    C14H30O3S3
 Framework group  C1[X(C14H30O3S3)]
                         Standard orientation:                         
 ---------------------------------------------------------------------
 Center     Atomic      Atomic             Coordinates (Angstroms)
 Number     Number       Type             X           Y           Z
 ---------------------------------------------------------------------
      1          6           0        8.151715   -0.254261    1.925201
      2          1           0        8.790813   -0.866268    1.297323
      3          1           0        8.233688    0.775270    1.593452
      4          1           0        8.529466   -0.317731    2.941267
      5          6           0        6.699482   -0.710701    1.878730
      6          1           0        6.618339   -1.751074    2.188150
      7          1           0        6.107733   -0.118848    2.565328
      8          8           0        6.103334   -0.540290    0.622471
      9          6           0        6.480587   -1.442198   -0.373494
     10          1           0        6.491546   -2.458908    0.012403
     11          1           0        7.474970   -1.213294   -0.752339
     12          6           0        5.486342   -1.351115   -1.509581
     13          1           0        5.379408   -0.310904   -1.800968
     14          1           0        5.868975   -1.900808   -2.366217
     15          8           0        4.258988   -1.901349   -1.124046
     16          6           0        3.107363   -1.147457   -1.369431
     17          1           0        2.282390   -1.843749   -1.448218
     18          1           0        3.181398   -0.621393   -2.318387
     19          6           0        2.829254   -0.175444   -0.228814
     20          1           0        3.658613    0.508852   -0.088319
     21          1           0        2.713193   -0.736942    0.688878
     22          8           0        1.631369    0.521466   -0.455791
     23          6           0        1.757211    1.761082   -1.091167
     24          1           0        2.231002    1.643377   -2.065391
     25          1           0        2.376750    2.427822   -0.497791
     26          6           0        0.379166    2.364638   -1.295042
     27          1           0       -0.256123    1.670319   -1.829637
     28          1           0        0.475818    3.248876   -1.915344
     29         16           0       -0.466283    2.969383    0.193549
     30          6           0       -0.915408    1.469117    1.121244
     31          1           0       -0.017653    1.005892    1.502149
     32          1           0       -1.483678    1.847789    1.962372
     33          6           0       -1.725208    0.406335    0.383740
     34          1           0       -1.935635   -0.385630    1.093934
     35          1           0       -1.137831   -0.023891   -0.416037
     36         16           0       -3.299492    1.041261   -0.276437
     37          6           0       -4.103658   -0.529040   -0.712842
     38          1           0       -3.361790   -1.178763   -1.166407
     39          1           0       -4.822081   -0.289654   -1.486238
     40          6           0       -4.788402   -1.268781    0.439596
     41          1           0       -5.008978   -2.285379    0.134221
     42          1           0       -4.126409   -1.338348    1.293030
     43         16           0       -6.311683   -0.497607    1.063778
     44          6           0       -7.543993   -1.044779   -0.159133
     45          1           0       -8.386882   -0.379750   -0.013612
     46          1           0       -7.168487   -0.853999   -1.157825
     47          6           0       -7.994243   -2.495815   -0.015143
     48          1           0       -7.172857   -3.189707   -0.157123
     49          1           0       -8.414964   -2.673324    0.967643
     50          1           0       -8.752181   -2.726523   -0.758797
 ---------------------------------------------------------------------
 Mulliken charges:
     1  C   -0.507335
     2  H    0.162075
     3  H    0.174223
     4  H    0.162695
     5  C    0.015177
     6  H    0.144902
     7  H    0.172901
     8  O   -0.628230
     9  C    0.012419
    10  H    0.155570
    11  H    0.140125
    12  C    0.006430
    13  H    0.154548
    14  H    0.155716
    15  O   -0.633012
    16  C   -0.004553
    17  H    0.176149
    18  H    0.141312
    19  C   -0.012655
    20  H    0.171975
    21  H    0.178819
    22  O   -0.642902
    23  C    0.029433
    24  H    0.139771
    25  H    0.163999
    26  C   -0.500846
    27  H    0.210916
    28  H    0.199646
    29  S    0.120888
    30  C   -0.473878
    31  H    0.221410
    32  H    0.205841
    33  C   -0.470329
    34  H    0.186082
    35  H    0.205586
    36  S    0.156533
    37  C   -0.480837
    38  H    0.189080
    39  H    0.202942
    40  C   -0.472981
    41  H    0.192109
    42  H    0.203355
    43  S    0.132952
    44  C   -0.478713
    45  H    0.201040
    46  H    0.185795
    47  C   -0.472079
    48  H    0.161065
    49  H    0.180004
    50  H    0.164868
 Sum of Mulliken charges =  -0.00000
 Dipole moment (field-independent basis, Debye):
    X=              3.8951    Y=             -3.4773    Z=             -2.1338  Tot=              5.6406
 Quadrupole moment (field-independent basis, Debye-Ang):
   XX=           -124.9277   YY=           -157.5879   ZZ=           -142.5258
   XY=             13.1252   XZ=              9.1627   YZ=             -2.8795
 Traceless Quadrupole moment (field-independent basis, Debye-Ang):
   XX=             16.7528   YY=            -15.9074   ZZ=             -0.8454
   XY=             13.1252   XZ=              9.1627   YZ=             -2.8795
 Octapole moment (field-independent basis, Debye-Ang**2):
  XXX=            167.0907  YYY=            -29.9148  ZZZ=             -4.6992  XYY=             27.3302
  XXY=            -91.9943  XXZ=            -64.3511  XZZ=             60.6635  YZZ=              2.6074
  YYZ=            -10.4300  XYZ=            -18.7360
 Hexadecapole moment (field-independent basis, Debye-Ang**3):
 XXXX=         -19126.7115 YYYY=          -2379.4303 ZZZZ=          -1104.0547 XXXY=            -42.5874
 XXXZ=            546.0465 YYYX=             38.0468 YYYZ=            -47.4953 ZZZX=             53.7151
 ZZZY=              7.3126 XXYY=          -3935.2681 XXZZ=          -3655.0520 YYZZ=           -550.8701
 XXYZ=             31.0923 YYXZ=              0.8341 ZZXY=            -39.6965
 Job cpu time:       0 days  2 hours 50 minutes 30.4 seconds.
 Normal termination of Gaussian 16 at Sat Jul  8 20:14:48 2023.
