 Copyright (c) 1988-2019, Gaussian, Inc.  All Rights Reserved.
  
 This is part of the Gaussian(R) 16 program.  It is based on
 the Gaussian(R) 09 system (copyright 2009, Gaussian, Inc.),
 the Gaussian(R) 03 system (copyright 2003, Gaussian, Inc.),
 the Gaussian(R) 98 system (copyright 1998, Gaussian, Inc.),
 the Gaussian(R) 94 system (copyright 1995, Gaussian, Inc.),
 the Gaussian 92(TM) system (copyright 1992, Gaussian, Inc.),
 the Gaussian 90(TM) system (copyright 1990, Gaussian, Inc.),
 the Gaussian 88(TM) system (copyright 1988, Gaussian, Inc.),
 the Gaussian 86(TM) system (copyright 1986, Carnegie Mellon
 University), and the Gaussian 82(TM) system (copyright 1983,
 Carnegie Mellon University). Gaussian is a federally registered
 trademark of Gaussian, Inc.
 Cite this work as:
 Gaussian 16, Revision C.01,
 M. J. Frisch, G. W. Trucks, H. B. Schlegel, G. E. Scuseria, 
 M. A. Robb, J. R. Cheeseman, G. Scalmani, V. Barone, 
 G. A. Petersson, H. Nakatsuji, X. Li, M. Caricato, A. V. Marenich, 
 J. Bloino, B. G. Janesko, R. Gomperts, B. Mennucci, H. P. Hratchian, 
 J. V. Ortiz, A. F. Izmaylov, J. L. Sonnenberg, D. Williams-Young, 
 F. Ding, F. Lipparini, F. Egidi, J. Goings, B. Peng, A. Petrone, 
 T. Henderson, D. Ranasinghe, V. G. Zakrzewski, J. Gao, N. Rega, 
 G. Zheng, W. Liang, M. Hada, M. Ehara, K. Toyota, R. Fukuda, 
 J. Hasegawa, M. Ishida, T. Nakajima, Y. Honda, O. Kitao, H. Nakai, 
 T. Vreven, K. Throssell, J. A. Montgomery, Jr., J. E. Peralta, 
 F. Ogliaro, M. J. Bearpark, J. J. Heyd, E. N. Brothers, K. N. Kudin, 
 V. N. Staroverov, T. A. Keith, R. Kobayashi, J. Normand, 
 K. Raghavachari, A. P. Rendell, J. C. Burant, S. S. Iyengar, 
 J. Tomasi, M. Cossi, J. M. Millam, M. Klene, C. Adamo, R. Cammi, 
 J. W. Ochterski, R. L. Martin, K. Morokuma, O. Farkas, 
 J. B. Foresman, and D. J. Fox, Gaussian, Inc., Wallingford CT, 2019.
 
 ******************************************
 Gaussian 16:  EM64L-G16RevC.01  3-Jul-2019
                 8-Jul-2023 
 ******************************************
 ----------------------------------------------------------------------
 #P HF/6-31G(d) Opt=(Tight,MaxCycle=55) GFInput GFPrint SCF(Conver=8,XQ
 C,MaxConventionalCycles=64,MaxCycle=128) Test
 ----------------------------------------------------------------------
 1/6=55,7=10,18=20,19=15,38=1/1,3;
 2/9=110,12=2,17=6,18=5,40=1/2;
 3/5=1,6=6,7=1,11=9,24=110,25=1,30=1,71=1/1,2,3;
 4//1;
 5/5=2,6=8,7=128,8=3,13=1,38=5,85=64/2,8;
 6/7=2,8=2,9=2,10=2,28=1/1;
 7//1,2,3,16;
 1/6=55,7=10,18=20,19=15/3(2);
 2/9=110/2;
 99//99;
 2/9=110/2;
 3/5=1,6=6,7=1,11=9,25=1,30=1,71=1/1,2,3;
 4/5=5,16=3,69=1/1;
 5/5=2,6=8,7=128,8=3,13=1,38=5,85=64/2,8;
 7//1,2,3,16;
 1/6=55,7=10,18=20,19=15/3(-5);
 2/9=110/2;
 6/7=2,8=2,9=2,10=2,19=2,28=1/1;
 99/9=1/99;
 ----------------------------------------------------------
 Optimization step - Input generated by PyRED DVE-DMDS-OPLS
 ----------------------------------------------------------
 Symbolic Z-matrix:
 Charge =  0 Multiplicity = 1
 C                     4.53484   5.23941   0.35933 
 H                     4.0505    5.36531  -0.60236 
 H                     4.06438   5.90803   1.07346 
 H                     5.57646   5.52117   0.25531 
 C                     4.42202   3.8014    0.82506 
 H                     4.89678   3.67783   1.79687 
 H                     3.37618   3.52356   0.93723 
 O                     5.05646   2.98256  -0.11908 
 C                     5.02581   1.60941   0.13958 
 H                     5.02662   1.40699   1.20766 
 H                     5.93449   1.18863  -0.27381 
 C                     3.80591   0.9582   -0.50301 
 H                     2.89762   1.37813  -0.0895 
 H                     3.80545   1.15905  -1.57064 
 O                     3.76946  -0.41938  -0.2482 
 C                     4.42814  -1.23705  -1.17297 
 H                     5.49902  -1.03911  -1.17743 
 H                     4.04793  -1.05347  -2.17474 
 C                     4.19987  -2.69087  -0.8132 
 H                     4.51109  -2.86823   0.21269 
 H                     4.81663  -3.30479  -1.46071 
 O                     2.87464  -3.08905  -1.01138 
 C                     2.03626  -3.04249   0.11123 
 H                     2.04762  -2.0555    0.55389 
 H                     2.37222  -3.75339   0.86238 
 C                     0.64109  -3.41372  -0.36399 
 H                     0.65051  -4.41865  -0.76616 
 H                     0.33586  -2.75266  -1.1644 
 S                    -0.59975  -3.4173    0.96384 
 C                    -0.96702  -1.6452    1.16994 
 H                    -1.4263   -1.56808   2.14709 
 H                    -0.04722  -1.07777   1.20683 
 C                    -1.89615  -1.08573   0.0945 
 H                    -2.81472  -1.65631   0.05251 
 H                    -1.43336  -1.16132  -0.88092 
 S                    -2.2704    0.68462   0.30287 
 C                    -3.53277   0.66141   1.61244 
 H                    -3.53668   1.66299   2.02198 
 H                    -3.20468  -0.00303   2.40411 
 C                    -4.95111   0.27504   1.18754 
 H                    -4.96527  -0.67518   0.6677 
 H                    -5.54317   0.14574   2.08685 
 S                    -5.84396   1.50882   0.19251 
 C                    -5.56825   0.94313  -1.51747 
 H                    -4.51273   0.98197  -1.74267 
 H                    -5.89931  -0.08569  -1.59939 
 C                    -6.35469   1.82726  -2.4811 
 H                    -7.41825   1.78908  -2.27292 
 H                    -6.03282   2.86079  -2.41546 
 H                    -6.1972    1.4912   -3.50097 
 
 ITRead=  0  0  0  0  0  0  0  0  0  0  0  0  0  0  0  0  0  0  0  0
 ITRead=  0  0  0  0  0  0  0  0  0  0  0  0  0  0  0  0  0  0  0  0
 ITRead=  0  0  0  0  0  0  0  0  0  0
 MicOpt= -1 -1 -1 -1 -1 -1 -1 -1 -1 -1 -1 -1 -1 -1 -1 -1 -1 -1 -1 -1
 MicOpt= -1 -1 -1 -1 -1 -1 -1 -1 -1 -1 -1 -1 -1 -1 -1 -1 -1 -1 -1 -1
 MicOpt= -1 -1 -1 -1 -1 -1 -1 -1 -1 -1
 NAtoms=     50 NQM=       50 NQMF=       0 NMMI=      0 NMMIF=      0
                NMic=       0 NMicF=      0.
                          Input orientation:                          
 ---------------------------------------------------------------------
 Center     Atomic      Atomic             Coordinates (Angstroms)
 Number     Number       Type             X           Y           Z
 ---------------------------------------------------------------------
      1          6           0        4.534838    5.239411    0.359330
      2          1           0        4.050502    5.365307   -0.602364
      3          1           0        4.064379    5.908025    1.073462
      4          1           0        5.576464    5.521166    0.255310
      5          6           0        4.422015    3.801404    0.825061
      6          1           0        4.896780    3.677832    1.796866
      7          1           0        3.376181    3.523562    0.937229
      8          8           0        5.056457    2.982561   -0.119076
      9          6           0        5.025810    1.609410    0.139577
     10          1           0        5.026622    1.406985    1.207661
     11          1           0        5.934486    1.188630   -0.273811
     12          6           0        3.805914    0.958201   -0.503005
     13          1           0        2.897624    1.378129   -0.089504
     14          1           0        3.805445    1.159053   -1.570643
     15          8           0        3.769461   -0.419377   -0.248202
     16          6           0        4.428137   -1.237045   -1.172970
     17          1           0        5.499021   -1.039106   -1.177431
     18          1           0        4.047930   -1.053465   -2.174738
     19          6           0        4.199871   -2.690866   -0.813197
     20          1           0        4.511092   -2.868232    0.212687
     21          1           0        4.816634   -3.304792   -1.460711
     22          8           0        2.874636   -3.089047   -1.011385
     23          6           0        2.036262   -3.042494    0.111228
     24          1           0        2.047617   -2.055503    0.553894
     25          1           0        2.372222   -3.753392    0.862377
     26          6           0        0.641088   -3.413717   -0.363991
     27          1           0        0.650508   -4.418647   -0.766160
     28          1           0        0.335860   -2.752661   -1.164402
     29         16           0       -0.599752   -3.417299    0.963844
     30          6           0       -0.967023   -1.645201    1.169940
     31          1           0       -1.426300   -1.568078    2.147091
     32          1           0       -0.047224   -1.077767    1.206825
     33          6           0       -1.896147   -1.085731    0.094499
     34          1           0       -2.814718   -1.656307    0.052511
     35          1           0       -1.433355   -1.161318   -0.880921
     36         16           0       -2.270398    0.684622    0.302867
     37          6           0       -3.532775    0.661409    1.612444
     38          1           0       -3.536678    1.662988    2.021980
     39          1           0       -3.204679   -0.003027    2.404114
     40          6           0       -4.951114    0.275039    1.187538
     41          1           0       -4.965273   -0.675181    0.667700
     42          1           0       -5.543174    0.145742    2.086848
     43         16           0       -5.843958    1.508823    0.192508
     44          6           0       -5.568251    0.943134   -1.517469
     45          1           0       -4.512731    0.981969   -1.742665
     46          1           0       -5.899305   -0.085686   -1.599393
     47          6           0       -6.354688    1.827255   -2.481096
     48          1           0       -7.418251    1.789081   -2.272917
     49          1           0       -6.032823    2.860791   -2.415460
     50          1           0       -6.197204    1.491202   -3.500968
 ---------------------------------------------------------------------
 Stoichiometry    C14H30O3S3
 Framework group  C1[X(C14H30O3S3)]
                         Standard orientation:                         
 ---------------------------------------------------------------------
 Center     Atomic      Atomic             Coordinates (Angstroms)
 Number     Number       Type             X           Y           Z
 ---------------------------------------------------------------------
      1          6           0       -4.534838    5.239411   -0.359330
      2          1           0       -4.050502    5.365307    0.602364
      3          1           0       -4.064379    5.908025   -1.073462
      4          1           0       -5.576464    5.521166   -0.255310
      5          6           0       -4.422015    3.801404   -0.825061
      6          1           0       -4.896780    3.677832   -1.796866
      7          1           0       -3.376181    3.523562   -0.937229
      8          8           0       -5.056457    2.982561    0.119076
      9          6           0       -5.025810    1.609410   -0.139577
     10          1           0       -5.026622    1.406985   -1.207661
     11          1           0       -5.934486    1.188630    0.273811
     12          6           0       -3.805914    0.958201    0.503005
     13          1           0       -2.897624    1.378129    0.089504
     14          1           0       -3.805445    1.159053    1.570643
     15          8           0       -3.769461   -0.419377    0.248202
     16          6           0       -4.428137   -1.237045    1.172970
     17          1           0       -5.499021   -1.039106    1.177431
     18          1           0       -4.047930   -1.053465    2.174738
     19          6           0       -4.199871   -2.690866    0.813197
     20          1           0       -4.511092   -2.868232   -0.212687
     21          1           0       -4.816634   -3.304792    1.460711
     22          8           0       -2.874636   -3.089047    1.011385
     23          6           0       -2.036262   -3.042494   -0.111228
     24          1           0       -2.047617   -2.055503   -0.553894
     25          1           0       -2.372222   -3.753392   -0.862377
     26          6           0       -0.641088   -3.413717    0.363991
     27          1           0       -0.650508   -4.418647    0.766160
     28          1           0       -0.335860   -2.752661    1.164402
     29         16           0        0.599752   -3.417299   -0.963844
     30          6           0        0.967023   -1.645201   -1.169940
     31          1           0        1.426300   -1.568078   -2.147091
     32          1           0        0.047224   -1.077767   -1.206825
     33          6           0        1.896147   -1.085731   -0.094499
     34          1           0        2.814718   -1.656307   -0.052511
     35          1           0        1.433355   -1.161318    0.880921
     36         16           0        2.270398    0.684622   -0.302867
     37          6           0        3.532775    0.661409   -1.612444
     38          1           0        3.536678    1.662988   -2.021980
     39          1           0        3.204679   -0.003027   -2.404114
     40          6           0        4.951114    0.275039   -1.187538
     41          1           0        4.965273   -0.675181   -0.667700
     42          1           0        5.543174    0.145742   -2.086848
     43         16           0        5.843958    1.508823   -0.192508
     44          6           0        5.568251    0.943134    1.517469
     45          1           0        4.512731    0.981969    1.742665
     46          1           0        5.899305   -0.085686    1.599393
     47          6           0        6.354688    1.827255    2.481096
     48          1           0        7.418251    1.789081    2.272917
     49          1           0        6.032823    2.860791    2.415460
     50          1           0        6.197204    1.491202    3.500968
 ---------------------------------------------------------------------
 Standard basis: 6-31G(d) (6D, 7F)
   372 basis functions,   752 primitive gaussians,   372 cartesian basis functions
    93 alpha electrons       93 beta electrons
 Requested convergence on RMS density matrix=1.00D-08 within  64 cycles.
 Requested convergence on MAX density matrix=1.00D-06.
 Requested convergence on             energy=1.00D-06.
 SCF Done:  E(RHF) =  -1964.69168231     A.U. after   13 cycles
            NFock= 13  Conv=0.39D-08     -V/T= 2.0006
 Mulliken charges:
     1  C   -0.488615
     2  H    0.173862
     3  H    0.158226
     4  H    0.174988
     5  C    0.015753
     6  H    0.142805
     7  H    0.140099
     8  O   -0.631125
     9  C   -0.002196
    10  H    0.152515
    11  H    0.168231
    12  C   -0.005390
    13  H    0.174134
    14  H    0.158105
    15  O   -0.642702
    16  C    0.009448
    17  H    0.136746
    18  H    0.157835
    19  C    0.000073
    20  H    0.156202
    21  H    0.170081
    22  O   -0.638012
    23  C    0.025498
    24  H    0.179597
    25  H    0.153424
    26  C   -0.495246
    27  H    0.211523
    28  H    0.200983
    29  S    0.107185
    30  C   -0.475366
    31  H    0.200478
    32  H    0.214407
    33  C   -0.476549
    34  H    0.204553
    35  H    0.205407
    36  S    0.118414
    37  C   -0.470220
    38  H    0.217875
    39  H    0.191317
    40  C   -0.478260
    41  H    0.194639
    42  H    0.204545
    43  S    0.114721
    44  C   -0.460339
    45  H    0.218673
    46  H    0.179813
    47  C   -0.497538
    48  H    0.177976
    49  H    0.179769
    50  H    0.171660
 Sum of Mulliken charges =  -0.00000
 Dipole moment (field-independent basis, Debye):
    X=             -1.6318    Y=             -0.5131    Z=             -0.3542  Tot=              1.7468
 Quadrupole moment (field-independent basis, Debye-Ang):
   XX=           -150.0059   YY=           -158.8820   ZZ=           -143.1490
   XY=             -2.5625   XZ=              3.4478   YZ=             -4.6921
 Traceless Quadrupole moment (field-independent basis, Debye-Ang):
   XX=              0.6730   YY=             -8.2030   ZZ=              7.5300
   XY=             -2.5625   XZ=              3.4478   YZ=             -4.6921
 Octapole moment (field-independent basis, Debye-Ang**2):
  XXX=           -155.7895  YYY=             35.4184  ZZZ=              3.2100  XYY=            -44.8445
  XXY=            -93.8543  XXZ=             13.1898  XZZ=              8.4019  YZZ=             15.0295
  YYZ=             -1.4594  XYZ=             22.3394
 Hexadecapole moment (field-independent basis, Debye-Ang**3):
 XXXX=         -15074.5368 YYYY=          -5484.4946 ZZZZ=          -1094.4525 XXXY=             -0.6851
 XXXZ=            166.6703 YYYX=             -5.6718 YYYZ=           -109.3928 ZZZX=            -43.0286
 ZZZY=            -23.4719 XXYY=          -3452.5878 XXZZ=          -2422.2786 YYZZ=          -1119.8738
 XXYZ=            -47.6871 YYXZ=            106.6828 ZZXY=              3.4028
 Step number   1 out of a maximum of   55
     Eigenvalues ---    0.00230   0.00230   0.00230   0.00230   0.00230
     Eigenvalues ---    0.00230   0.00366   0.00404   0.00422   0.00437
     Eigenvalues ---    0.00502   0.00558   0.00568   0.01667   0.01671
     Eigenvalues ---    0.01673   0.01703   0.01720   0.01723   0.04182
     Eigenvalues ---    0.04187   0.04474   0.04487   0.04567   0.04983
     Eigenvalues ---    0.05010   0.05014   0.05045   0.05339   0.05386
     Eigenvalues ---    0.05515   0.05515   0.05640   0.05647   0.05671
     Eigenvalues ---    0.05686   0.05706   0.05743   0.05755   0.05768
     Eigenvalues ---    0.05810   0.05883   0.05899   0.05935   0.05968
     Eigenvalues ---    0.06068   0.06138   0.11042   0.11148   0.11280
     Eigenvalues ---    0.11288   0.11496   0.11583   0.11588   0.11597
     Eigenvalues ---    0.11623   0.11694   0.11800   0.11857   0.13595
     Eigenvalues ---    0.13612   0.13710   0.13773   0.13910   0.13925
     Eigenvalues ---    0.13936   0.13943   0.13950   0.14008   0.14122
     Eigenvalues ---    0.14142   0.16000   0.16000   0.16000   0.16000
     Eigenvalues ---    0.16000   0.16000   0.21957   0.21958   0.22014
     Eigenvalues ---    0.22015   0.22016   0.22017   0.22023   0.22025
     Eigenvalues ---    0.22036   0.22057   0.22073   0.22079   0.24450
     Eigenvalues ---    0.24497   0.24498   0.24661   0.24668   0.24795
     Eigenvalues ---    0.25000   0.25000   0.25000   0.25000   0.25000
     Eigenvalues ---    0.25000   0.29405   0.29668   0.29794   0.29905
     Eigenvalues ---    0.30374   0.30780   0.30856   0.34925   0.34973
     Eigenvalues ---    0.35055   0.35113   0.35149   0.35150   0.35206
     Eigenvalues ---    0.35236   0.35335   0.35362   0.35432   0.35458
     Eigenvalues ---    0.35463   0.35466   0.35471   0.35503   0.35508
     Eigenvalues ---    0.35531   0.35593   0.35609   0.35666   0.35699
     Eigenvalues ---    0.35699   0.35720   0.35733   0.35744   0.35749
     Eigenvalues ---    0.35781   0.35829   0.35997   0.45309   0.45360
     Eigenvalues ---    0.45386   0.45761   0.45973   0.46015
 Maximum Force            0.000001     0.000015     YES
 RMS     Force            0.000000     0.000010     YES
 Maximum Displacement     0.000430     0.000060     NO 
 RMS     Displacement     0.000078     0.000040     NO 
                          Input orientation:                          
 ---------------------------------------------------------------------
 Center     Atomic      Atomic             Coordinates (Angstroms)
 Number     Number       Type             X           Y           Z
 ---------------------------------------------------------------------
      1          6           0        4.534941    5.239408    0.359316
      2          1           0        4.050620    5.365304   -0.602386
      3          1           0        4.064483    5.908036    1.073436
      4          1           0        5.576572    5.521146    0.255308
      5          6           0        4.422088    3.801407    0.825057
      6          1           0        4.896838    3.677835    1.796869
      7          1           0        3.376248    3.523582    0.937211
      8          8           0        5.056529    2.982545   -0.119064
      9          6           0        5.025868    1.609398    0.139602
     10          1           0        5.026670    1.406984    1.207688
     11          1           0        5.934540    1.188601   -0.273775
     12          6           0        3.805970    0.958194   -0.502981
     13          1           0        2.897680    1.378132   -0.089490
     14          1           0        3.805511    1.159039   -1.570620
     15          8           0        3.769511   -0.419381   -0.248169
     16          6           0        4.428179   -1.237058   -1.172933
     17          1           0        5.499064   -1.039129   -1.177390
     18          1           0        4.047978   -1.053473   -2.174703
     19          6           0        4.199894   -2.690876   -0.813162
     20          1           0        4.511099   -2.868244    0.212725
     21          1           0        4.816653   -3.304813   -1.460668
     22          8           0        2.874654   -3.089035   -1.011364
     23          6           0        2.036269   -3.042473    0.111240
     24          1           0        2.047640   -2.055483    0.553909
     25          1           0        2.372208   -3.753380    0.862389
     26          6           0        0.641093   -3.413665   -0.363999
     27          1           0        0.650504   -4.418587   -0.766186
     28          1           0        0.335884   -2.752591   -1.164402
     29         16           0       -0.599766   -3.417251    0.963817
     30          6           0       -0.967060   -1.645156    1.169901
     31          1           0       -1.426369   -1.568032    2.147036
     32          1           0       -0.047266   -1.077716    1.206815
     33          6           0       -1.896150   -1.085692    0.094427
     34          1           0       -2.814703   -1.656291    0.052387
     35          1           0       -1.433311   -1.161251   -0.880973
     36         16           0       -2.270454    0.684648    0.302808
     37          6           0       -3.532807    0.661393    1.612407
     38          1           0       -3.536727    1.662968    2.021950
     39          1           0       -3.204680   -0.003041    2.404066
     40          6           0       -4.951146    0.274991    1.187526
     41          1           0       -4.965290   -0.675223    0.667678
     42          1           0       -5.543181    0.145666    2.086848
     43         16           0       -5.844048    1.508762    0.192534
     44          6           0       -5.568345    0.943123   -1.517459
     45          1           0       -4.512832    0.982024   -1.742678
     46          1           0       -5.899340   -0.085713   -1.599397
     47          6           0       -6.354853    1.827218   -2.481052
     48          1           0       -7.418410    1.788975   -2.272853
     49          1           0       -6.033051    2.860772   -2.415399
     50          1           0       -6.197368    1.491198   -3.500934
 ---------------------------------------------------------------------
 Stoichiometry    C14H30O3S3
 Framework group  C1[X(C14H30O3S3)]
                         Standard orientation:                         
 ---------------------------------------------------------------------
 Center     Atomic      Atomic             Coordinates (Angstroms)
 Number     Number       Type             X           Y           Z
 ---------------------------------------------------------------------
      1          6           0       -4.534976    5.239384   -0.359318
      2          1           0       -4.050656    5.365282    0.602383
      3          1           0       -4.064522    5.908014   -1.073438
      4          1           0       -5.576609    5.521116   -0.255310
      5          6           0       -4.422116    3.801383   -0.825059
      6          1           0       -4.896865    3.677808   -1.796872
      7          1           0       -3.376275    3.523564   -0.937214
      8          8           0       -5.056552    2.982518    0.119061
      9          6           0       -5.025884    1.609370   -0.139604
     10          1           0       -5.026685    1.406957   -1.207690
     11          1           0       -5.934554    1.188569    0.273772
     12          6           0       -3.805982    0.958174    0.502979
     13          1           0       -2.897695    1.378116    0.089488
     14          1           0       -3.805525    1.159018    1.570617
     15          8           0       -3.769516   -0.419402    0.248166
     16          6           0       -4.428180   -1.237082    1.172931
     17          1           0       -5.499066   -1.039158    1.177388
     18          1           0       -4.047980   -1.053495    2.174700
     19          6           0       -4.199887   -2.690899    0.813160
     20          1           0       -4.511092   -2.868268   -0.212727
     21          1           0       -4.816643   -3.304839    1.460665
     22          8           0       -2.874645   -3.089051    1.011362
     23          6           0       -2.036261   -3.042484   -0.111242
     24          1           0       -2.047637   -2.055495   -0.553912
     25          1           0       -2.372196   -3.753394   -0.862391
     26          6           0       -0.641082   -3.413669    0.363997
     27          1           0       -0.650489   -4.418591    0.766184
     28          1           0       -0.335877   -2.752594    1.164400
     29         16           0        0.599776   -3.417248   -0.963819
     30          6           0        0.967061   -1.645152   -1.169903
     31          1           0        1.426369   -1.568025   -2.147038
     32          1           0        0.047264   -1.077717   -1.206818
     33          6           0        1.896148   -1.085683   -0.094429
     34          1           0        2.814704   -1.656277   -0.052389
     35          1           0        1.433309   -1.161244    0.880971
     36         16           0        2.270443    0.684659   -0.302811
     37          6           0        3.532796    0.661410   -1.612409
     38          1           0        3.536710    1.662986   -2.021952
     39          1           0        3.204673   -0.003025   -2.404068
     40          6           0        4.951137    0.275016   -1.187529
     41          1           0        4.965286   -0.675198   -0.667680
     42          1           0        5.543173    0.145694   -2.086850
     43         16           0        5.844032    1.508792   -0.192536
     44          6           0        5.568332    0.943152    1.517457
     45          1           0        4.512819    0.982047    1.742675
     46          1           0        5.899333   -0.085683    1.599394
     47          6           0        6.354836    1.827251    2.481050
     48          1           0        7.418393    1.789013    2.272851
     49          1           0        6.033028    2.860803    2.415397
     50          1           0        6.197353    1.491230    3.500931
 ---------------------------------------------------------------------
 Standard basis: 6-31G(d) (6D, 7F)
   372 basis functions,   752 primitive gaussians,   372 cartesian basis functions
    93 alpha electrons       93 beta electrons
 Requested convergence on RMS density matrix=1.00D-08 within  64 cycles.
 Requested convergence on MAX density matrix=1.00D-06.
 Requested convergence on             energy=1.00D-06.
 SCF Done:  E(RHF) =  -1964.69168231     A.U. after    4 cycles
            NFock=  4  Conv=0.50D-08     -V/T= 2.0006
 Step number   2 out of a maximum of   55
     Eigenvalues ---    0.00210   0.00230   0.00230   0.00230   0.00230
     Eigenvalues ---    0.00312   0.00367   0.00421   0.00436   0.00488
     Eigenvalues ---    0.00557   0.00563   0.00585   0.01468   0.01667
     Eigenvalues ---    0.01672   0.01691   0.01721   0.01725   0.04145
     Eigenvalues ---    0.04187   0.04320   0.04548   0.04625   0.04987
     Eigenvalues ---    0.05007   0.05027   0.05165   0.05337   0.05386
     Eigenvalues ---    0.05513   0.05528   0.05633   0.05670   0.05682
     Eigenvalues ---    0.05695   0.05724   0.05743   0.05753   0.05769
     Eigenvalues ---    0.05794   0.05883   0.05894   0.05954   0.05985
     Eigenvalues ---    0.06059   0.06138   0.11042   0.11186   0.11231
     Eigenvalues ---    0.11303   0.11474   0.11548   0.11588   0.11612
     Eigenvalues ---    0.11687   0.11731   0.11800   0.11867   0.13463
     Eigenvalues ---    0.13607   0.13645   0.13711   0.13863   0.13920
     Eigenvalues ---    0.13936   0.13950   0.13989   0.14027   0.14125
     Eigenvalues ---    0.14236   0.15989   0.16000   0.16000   0.16000
     Eigenvalues ---    0.16000   0.16009   0.20746   0.21960   0.21964
     Eigenvalues ---    0.22014   0.22016   0.22017   0.22022   0.22029
     Eigenvalues ---    0.22046   0.22061   0.22078   0.23011   0.24225
     Eigenvalues ---    0.24475   0.24503   0.24514   0.24668   0.24706
     Eigenvalues ---    0.24846   0.25000   0.25000   0.25000   0.25000
     Eigenvalues ---    0.26299   0.29395   0.29691   0.29792   0.29956
     Eigenvalues ---    0.30480   0.30783   0.30853   0.34602   0.34973
     Eigenvalues ---    0.34977   0.35057   0.35121   0.35149   0.35159
     Eigenvalues ---    0.35231   0.35301   0.35335   0.35405   0.35450
     Eigenvalues ---    0.35462   0.35463   0.35477   0.35503   0.35512
     Eigenvalues ---    0.35526   0.35576   0.35614   0.35645   0.35669
     Eigenvalues ---    0.35701   0.35720   0.35737   0.35743   0.35754
     Eigenvalues ---    0.35796   0.35997   0.36087   0.45112   0.45332
     Eigenvalues ---    0.45398   0.45753   0.45942   0.46117
 Maximum Force            0.000001     0.000015     YES
 RMS     Force            0.000000     0.000010     YES
 Maximum Displacement     0.000649     0.000060     NO 
 RMS     Displacement     0.000129     0.000040     NO 
                          Input orientation:                          
 ---------------------------------------------------------------------
 Center     Atomic      Atomic             Coordinates (Angstroms)
 Number     Number       Type             X           Y           Z
 ---------------------------------------------------------------------
      1          6           0        4.534797    5.239422    0.359230
      2          1           0        4.050487    5.365300   -0.602479
      3          1           0        4.064324    5.908055    1.073336
      4          1           0        5.576426    5.521169    0.255232
      5          6           0        4.421952    3.801426    0.824988
      6          1           0        4.896691    3.677870    1.796807
      7          1           0        3.376113    3.523593    0.937131
      8          8           0        5.056412    2.982558   -0.119114
      9          6           0        5.025774    1.609415    0.139572
     10          1           0        5.026577    1.407018    1.207661
     11          1           0        5.934454    1.188626   -0.273794
     12          6           0        3.805891    0.958178   -0.503005
     13          1           0        2.897591    1.378100   -0.089523
     14          1           0        3.805433    1.159010   -1.570646
     15          8           0        3.769466   -0.419395   -0.248176
     16          6           0        4.428142   -1.237068   -1.172939
     17          1           0        5.499023   -1.039122   -1.177400
     18          1           0        4.047935   -1.053492   -2.174708
     19          6           0        4.199874   -2.690888   -0.813161
     20          1           0        4.511075   -2.868245    0.212727
     21          1           0        4.816641   -3.304822   -1.460660
     22          8           0        2.874638   -3.089059   -1.011368
     23          6           0        2.036249   -3.042509    0.111233
     24          1           0        2.047612   -2.055521    0.553908
     25          1           0        2.372189   -3.753419    0.862378
     26          6           0        0.641077   -3.413704   -0.364018
     27          1           0        0.650500   -4.418617   -0.766226
     28          1           0        0.335866   -2.752617   -1.164408
     29         16           0       -0.599789   -3.417325    0.963790
     30          6           0       -0.967030   -1.645231    1.169971
     31          1           0       -1.426330   -1.568144    2.147112
     32          1           0       -0.047217   -1.077823    1.206912
     33          6           0       -1.896105   -1.085679    0.094530
     34          1           0       -2.814666   -1.656260    0.052441
     35          1           0       -1.433257   -1.161176   -0.880870
     36         16           0       -2.270379    0.684654    0.303025
     37          6           0       -3.532828    0.661335    1.612529
     38          1           0       -3.536781    1.662891    2.022115
     39          1           0       -3.204758   -0.003132    2.404183
     40          6           0       -4.951135    0.274945    1.187529
     41          1           0       -4.965238   -0.675246    0.667639
     42          1           0       -5.543233    0.145577    2.086804
     43         16           0       -5.843975    1.508755    0.192531
     44          6           0       -5.568135    0.943211   -1.517471
     45          1           0       -4.512607    0.982147   -1.742612
     46          1           0       -5.899099   -0.085629   -1.599485
     47          6           0       -6.354595    1.827336   -2.481076
     48          1           0       -7.418167    1.789052   -2.272958
     49          1           0       -6.032826    2.860895   -2.415342
     50          1           0       -6.197025    1.491376   -3.500963
 ---------------------------------------------------------------------
 Stoichiometry    C14H30O3S3
 Framework group  C1[X(C14H30O3S3)]
                         Standard orientation:                         
 ---------------------------------------------------------------------
 Center     Atomic      Atomic             Coordinates (Angstroms)
 Number     Number       Type             X           Y           Z
 ---------------------------------------------------------------------
      1          6           0       -4.534799    5.239432   -0.359219
      2          1           0       -4.050489    5.365309    0.602490
      3          1           0       -4.064325    5.908064   -1.073325
      4          1           0       -5.576428    5.521178   -0.255221
      5          6           0       -4.421955    3.801435   -0.824977
      6          1           0       -4.896693    3.677879   -1.796796
      7          1           0       -3.376116    3.523601   -0.937120
      8          8           0       -5.056415    2.982568    0.119125
      9          6           0       -5.025778    1.609424   -0.139561
     10          1           0       -5.026581    1.407028   -1.207650
     11          1           0       -5.934458    1.188636    0.273805
     12          6           0       -3.805895    0.958187    0.503016
     13          1           0       -2.897595    1.378109    0.089534
     14          1           0       -3.805437    1.159019    1.570657
     15          8           0       -3.769471   -0.419386    0.248187
     16          6           0       -4.428147   -1.237059    1.172950
     17          1           0       -5.499028   -1.039113    1.177411
     18          1           0       -4.047940   -1.053483    2.174719
     19          6           0       -4.199880   -2.690879    0.813172
     20          1           0       -4.511081   -2.868236   -0.212716
     21          1           0       -4.816648   -3.304813    1.460671
     22          8           0       -2.874644   -3.089050    1.011379
     23          6           0       -2.036256   -3.042501   -0.111222
     24          1           0       -2.047618   -2.055513   -0.553897
     25          1           0       -2.372196   -3.753411   -0.862367
     26          6           0       -0.641083   -3.413697    0.364029
     27          1           0       -0.650507   -4.418610    0.766237
     28          1           0       -0.335872   -2.752610    1.164419
     29         16           0        0.599783   -3.417319   -0.963779
     30          6           0        0.967025   -1.645224   -1.169960
     31          1           0        1.426324   -1.568137   -2.147101
     32          1           0        0.047212   -1.077816   -1.206901
     33          6           0        1.896100   -1.085673   -0.094519
     34          1           0        2.814660   -1.656255   -0.052430
     35          1           0        1.433252   -1.161170    0.880881
     36         16           0        2.270375    0.684660   -0.303013
     37          6           0        3.532824    0.661340   -1.612518
     38          1           0        3.536777    1.662896   -2.022104
     39          1           0        3.204753   -0.003127   -2.404172
     40          6           0        4.951130    0.274950   -1.187518
     41          1           0        4.965233   -0.675242   -0.667628
     42          1           0        5.543229    0.145581   -2.086793
     43         16           0        5.843972    1.508758   -0.192520
     44          6           0        5.568131    0.943214    1.517482
     45          1           0        4.512603    0.982152    1.742623
     46          1           0        5.899094   -0.085625    1.599496
     47          6           0        6.354591    1.827340    2.481087
     48          1           0        7.418163    1.789055    2.272969
     49          1           0        6.032823    2.860899    2.415353
     50          1           0        6.197021    1.491379    3.500974
 ---------------------------------------------------------------------
 Standard basis: 6-31G(d) (6D, 7F)
   372 basis functions,   752 primitive gaussians,   372 cartesian basis functions
    93 alpha electrons       93 beta electrons
 Requested convergence on RMS density matrix=1.00D-08 within  64 cycles.
 Requested convergence on MAX density matrix=1.00D-06.
 Requested convergence on             energy=1.00D-06.
 SCF Done:  E(RHF) =  -1964.69168231     A.U. after    5 cycles
            NFock=  5  Conv=0.10D-07     -V/T= 2.0006
 Step number   3 out of a maximum of   55
     Eigenvalues ---    0.00208   0.00230   0.00230   0.00230   0.00236
     Eigenvalues ---    0.00329   0.00367   0.00422   0.00436   0.00485
     Eigenvalues ---    0.00558   0.00562   0.00752   0.01279   0.01667
     Eigenvalues ---    0.01673   0.01696   0.01720   0.01725   0.04133
     Eigenvalues ---    0.04187   0.04505   0.04560   0.04956   0.04997
     Eigenvalues ---    0.05021   0.05089   0.05200   0.05333   0.05388
     Eigenvalues ---    0.05514   0.05553   0.05627   0.05677   0.05687
     Eigenvalues ---    0.05694   0.05724   0.05743   0.05754   0.05769
     Eigenvalues ---    0.05801   0.05883   0.05898   0.05953   0.06008
     Eigenvalues ---    0.06107   0.06139   0.11041   0.11188   0.11272
     Eigenvalues ---    0.11408   0.11469   0.11587   0.11606   0.11633
     Eigenvalues ---    0.11688   0.11739   0.11820   0.11868   0.13546
     Eigenvalues ---    0.13623   0.13651   0.13713   0.13878   0.13920
     Eigenvalues ---    0.13936   0.13960   0.13990   0.14084   0.14125
     Eigenvalues ---    0.14315   0.15993   0.16000   0.16000   0.16000
     Eigenvalues ---    0.16000   0.16038   0.20487   0.21962   0.21966
     Eigenvalues ---    0.22015   0.22016   0.22019   0.22027   0.22046
     Eigenvalues ---    0.22055   0.22074   0.22747   0.23181   0.24380
     Eigenvalues ---    0.24473   0.24512   0.24549   0.24669   0.24765
     Eigenvalues ---    0.24925   0.25000   0.25000   0.25000   0.25733
     Eigenvalues ---    0.26328   0.29403   0.29707   0.29792   0.29967
     Eigenvalues ---    0.30588   0.30785   0.30874   0.34964   0.34975
     Eigenvalues ---    0.35054   0.35109   0.35146   0.35151   0.35227
     Eigenvalues ---    0.35294   0.35335   0.35403   0.35416   0.35462
     Eigenvalues ---    0.35463   0.35475   0.35502   0.35510   0.35515
     Eigenvalues ---    0.35573   0.35609   0.35642   0.35669   0.35699
     Eigenvalues ---    0.35711   0.35731   0.35740   0.35753   0.35792
     Eigenvalues ---    0.35931   0.35998   0.38216   0.45165   0.45333
     Eigenvalues ---    0.45451   0.45759   0.45934   0.46937
 Maximum Force            0.000001     0.000015     YES
 RMS     Force            0.000000     0.000010     YES
 Maximum Displacement     0.000317     0.000060     NO 
 RMS     Displacement     0.000064     0.000040     NO 
                          Input orientation:                          
 ---------------------------------------------------------------------
 Center     Atomic      Atomic             Coordinates (Angstroms)
 Number     Number       Type             X           Y           Z
 ---------------------------------------------------------------------
      1          6           0        4.534853    5.239419    0.359250
      2          1           0        4.050566    5.365300   -0.602471
      3          1           0        4.064368    5.908054    1.073344
      4          1           0        5.576488    5.521158    0.255276
      5          6           0        4.421987    3.801423    0.825005
      6          1           0        4.896703    3.677864    1.796836
      7          1           0        3.376144    3.523598    0.937126
      8          8           0        5.056463    2.982552   -0.119083
      9          6           0        5.025812    1.609409    0.139606
     10          1           0        5.026592    1.407014    1.207695
     11          1           0        5.934499    1.188617   -0.273742
     12          6           0        3.805939    0.958176   -0.502996
     13          1           0        2.897632    1.378103   -0.089531
     14          1           0        3.805501    1.159007   -1.570637
     15          8           0        3.769500   -0.419396   -0.248166
     16          6           0        4.428183   -1.237077   -1.172917
     17          1           0        5.499067   -1.039143   -1.177362
     18          1           0        4.047993   -1.053502   -2.174692
     19          6           0        4.199895   -2.690893   -0.813137
     20          1           0        4.511082   -2.868251    0.212757
     21          1           0        4.816667   -3.304834   -1.460626
     22          8           0        2.874659   -3.089055   -1.011360
     23          6           0        2.036257   -3.042498    0.111231
     24          1           0        2.047621   -2.055511    0.553907
     25          1           0        2.372181   -3.753412    0.862380
     26          6           0        0.641087   -3.413684   -0.364034
     27          1           0        0.650507   -4.418599   -0.766239
     28          1           0        0.335891   -2.752597   -1.164431
     29         16           0       -0.599792   -3.417294    0.963760
     30          6           0       -0.967047   -1.645199    1.169909
     31          1           0       -1.426349   -1.568101    2.147049
     32          1           0       -0.047240   -1.077781    1.206841
     33          6           0       -1.896129   -1.085675    0.094460
     34          1           0       -2.814687   -1.656261    0.052388
     35          1           0       -1.433286   -1.161190   -0.880941
     36         16           0       -2.270412    0.684660    0.302919
     37          6           0       -3.532807    0.661363    1.612475
     38          1           0       -3.536744    1.662928    2.022043
     39          1           0       -3.204705   -0.003089    2.404128
     40          6           0       -4.951131    0.274967    1.187539
     41          1           0       -4.965256   -0.675236    0.667668
     42          1           0       -5.543194    0.145618    2.086840
     43         16           0       -5.844011    1.508756    0.192551
     44          6           0       -5.568236    0.943177   -1.517450
     45          1           0       -4.512716    0.982101   -1.742630
     46          1           0       -5.899211   -0.085662   -1.599433
     47          6           0       -6.354724    1.827290   -2.481042
     48          1           0       -7.418289    1.789018   -2.272886
     49          1           0       -6.032945    2.860848   -2.415340
     50          1           0       -6.197192    1.491310   -3.500929
 ---------------------------------------------------------------------
 Stoichiometry    C14H30O3S3
 Framework group  C1[X(C14H30O3S3)]
                         Standard orientation:                         
 ---------------------------------------------------------------------
 Center     Atomic      Atomic             Coordinates (Angstroms)
 Number     Number       Type             X           Y           Z
 ---------------------------------------------------------------------
      1          6           0       -4.534860    5.239422   -0.359247
      2          1           0       -4.050573    5.365304    0.602474
      3          1           0       -4.064374    5.908058   -1.073341
      4          1           0       -5.576494    5.521161   -0.255273
      5          6           0       -4.421994    3.801426   -0.825002
      6          1           0       -4.896709    3.677868   -1.796833
      7          1           0       -3.376150    3.523602   -0.937123
      8          8           0       -5.056469    2.982555    0.119086
      9          6           0       -5.025818    1.609413   -0.139603
     10          1           0       -5.026598    1.407017   -1.207692
     11          1           0       -5.934505    1.188620    0.273745
     12          6           0       -3.805945    0.958180    0.502999
     13          1           0       -2.897638    1.378106    0.089534
     14          1           0       -3.805507    1.159011    1.570640
     15          8           0       -3.769506   -0.419393    0.248169
     16          6           0       -4.428189   -1.237073    1.172920
     17          1           0       -5.499073   -1.039140    1.177366
     18          1           0       -4.047999   -1.053498    2.174695
     19          6           0       -4.199901   -2.690889    0.813140
     20          1           0       -4.511088   -2.868247   -0.212753
     21          1           0       -4.816673   -3.304831    1.460629
     22          8           0       -2.874665   -3.089051    1.011363
     23          6           0       -2.036263   -3.042494   -0.111228
     24          1           0       -2.047628   -2.055508   -0.553904
     25          1           0       -2.372187   -3.753408   -0.862377
     26          6           0       -0.641093   -3.413680    0.364038
     27          1           0       -0.650513   -4.418595    0.766243
     28          1           0       -0.335897   -2.752593    1.164434
     29         16           0        0.599786   -3.417291   -0.963757
     30          6           0        0.967041   -1.645195   -1.169906
     31          1           0        1.426343   -1.568097   -2.147046
     32          1           0        0.047234   -1.077778   -1.206838
     33          6           0        1.896123   -1.085671   -0.094457
     34          1           0        2.814681   -1.656258   -0.052385
     35          1           0        1.433280   -1.161187    0.880945
     36         16           0        2.270405    0.684664   -0.302916
     37          6           0        3.532801    0.661367   -1.612472
     38          1           0        3.536738    1.662932   -2.022040
     39          1           0        3.204699   -0.003085   -2.404125
     40          6           0        4.951125    0.274970   -1.187536
     41          1           0        4.965249   -0.675232   -0.667665
     42          1           0        5.543188    0.145621   -2.086836
     43         16           0        5.844004    1.508760   -0.192548
     44          6           0        5.568230    0.943181    1.517453
     45          1           0        4.512709    0.982105    1.742633
     46          1           0        5.899205   -0.085658    1.599436
     47          6           0        6.354718    1.827294    2.481046
     48          1           0        7.418283    1.789022    2.272890
     49          1           0        6.032939    2.860852    2.415343
     50          1           0        6.197186    1.491313    3.500933
 ---------------------------------------------------------------------
 Standard basis: 6-31G(d) (6D, 7F)
   372 basis functions,   752 primitive gaussians,   372 cartesian basis functions
    93 alpha electrons       93 beta electrons
 Requested convergence on RMS density matrix=1.00D-08 within  64 cycles.
 Requested convergence on MAX density matrix=1.00D-06.
 Requested convergence on             energy=1.00D-06.
 SCF Done:  E(RHF) =  -1964.69168231     A.U. after    4 cycles
            NFock=  4  Conv=0.71D-08     -V/T= 2.0006
 Step number   4 out of a maximum of   55
     Eigenvalues ---    0.00165   0.00230   0.00230   0.00231   0.00277
     Eigenvalues ---    0.00365   0.00416   0.00432   0.00451   0.00490
     Eigenvalues ---    0.00557   0.00578   0.00901   0.01027   0.01671
     Eigenvalues ---    0.01683   0.01702   0.01725   0.01781   0.04137
     Eigenvalues ---    0.04186   0.04507   0.04578   0.04949   0.04984
     Eigenvalues ---    0.05023   0.05124   0.05308   0.05352   0.05388
     Eigenvalues ---    0.05516   0.05543   0.05656   0.05678   0.05685
     Eigenvalues ---    0.05694   0.05726   0.05742   0.05758   0.05773
     Eigenvalues ---    0.05805   0.05884   0.05899   0.05956   0.05992
     Eigenvalues ---    0.06086   0.06137   0.11039   0.11191   0.11285
     Eigenvalues ---    0.11350   0.11490   0.11587   0.11610   0.11630
     Eigenvalues ---    0.11693   0.11785   0.11814   0.11873   0.13590
     Eigenvalues ---    0.13633   0.13705   0.13715   0.13886   0.13918
     Eigenvalues ---    0.13935   0.13989   0.14042   0.14073   0.14125
     Eigenvalues ---    0.14190   0.15999   0.16000   0.16000   0.16000
     Eigenvalues ---    0.16002   0.16019   0.20865   0.21962   0.21964
     Eigenvalues ---    0.22015   0.22019   0.22025   0.22036   0.22052
     Eigenvalues ---    0.22067   0.22079   0.22905   0.23452   0.24440
     Eigenvalues ---    0.24482   0.24510   0.24571   0.24670   0.24774
     Eigenvalues ---    0.24929   0.25000   0.25000   0.25018   0.25936
     Eigenvalues ---    0.26503   0.29408   0.29707   0.29792   0.30098
     Eigenvalues ---    0.30533   0.30826   0.30857   0.34947   0.34974
     Eigenvalues ---    0.35055   0.35115   0.35147   0.35162   0.35227
     Eigenvalues ---    0.35301   0.35337   0.35397   0.35445   0.35461
     Eigenvalues ---    0.35465   0.35472   0.35503   0.35513   0.35525
     Eigenvalues ---    0.35584   0.35610   0.35623   0.35683   0.35699
     Eigenvalues ---    0.35715   0.35728   0.35741   0.35766   0.35796
     Eigenvalues ---    0.35897   0.36001   0.36124   0.45314   0.45395
     Eigenvalues ---    0.45448   0.45793   0.45997   0.46086
 Maximum Force            0.000000     0.000015     YES
 RMS     Force            0.000000     0.000010     YES
 Maximum Displacement     0.000681     0.000060     NO 
 RMS     Displacement     0.000148     0.000040     NO 
                          Input orientation:                          
 ---------------------------------------------------------------------
 Center     Atomic      Atomic             Coordinates (Angstroms)
 Number     Number       Type             X           Y           Z
 ---------------------------------------------------------------------
      1          6           0        4.534754    5.239437    0.359158
      2          1           0        4.050478    5.365311   -0.602569
      3          1           0        4.064258    5.908075    1.073243
      4          1           0        5.576389    5.521178    0.255195
      5          6           0        4.421886    3.801444    0.824922
      6          1           0        4.896590    3.677894    1.796759
      7          1           0        3.376042    3.523618    0.937033
      8          8           0        5.056376    2.982570   -0.119154
      9          6           0        5.025745    1.609431    0.139555
     10          1           0        5.026534    1.407051    1.207647
     11          1           0        5.934438    1.188649   -0.273792
     12          6           0        3.805882    0.958166   -0.503034
     13          1           0        2.897568    1.378076   -0.089567
     14          1           0        3.805432    1.158988   -1.570678
     15          8           0        3.769474   -0.419405   -0.248189
     16          6           0        4.428141   -1.237086   -1.172951
     17          1           0        5.499025   -1.039151   -1.177420
     18          1           0        4.047931   -1.053519   -2.174720
     19          6           0        4.199859   -2.690900   -0.813159
     20          1           0        4.511060   -2.868251    0.212732
     21          1           0        4.816623   -3.304845   -1.460653
     22          8           0        2.874619   -3.089063   -1.011361
     23          6           0        2.036238   -3.042518    0.111247
     24          1           0        2.047616   -2.055537    0.553937
     25          1           0        2.372172   -3.753443    0.862381
     26          6           0        0.641059   -3.413691   -0.363997
     27          1           0        0.650475   -4.418597   -0.766228
     28          1           0        0.335845   -2.752585   -1.164371
     29         16           0       -0.599794   -3.417348    0.963822
     30          6           0       -0.967032   -1.645258    1.170050
     31          1           0       -1.426378   -1.568207    2.147173
     32          1           0       -0.047219   -1.077854    1.207056
     33          6           0       -1.896056   -1.085660    0.094589
     34          1           0       -2.814607   -1.656253    0.052422
     35          1           0       -1.433157   -1.161095   -0.880792
     36         16           0       -2.270367    0.684654    0.303167
     37          6           0       -3.532887    0.661237    1.612600
     38          1           0       -3.536877    1.662773    2.022240
     39          1           0       -3.204849   -0.003268    2.404236
     40          6           0       -4.951165    0.274850    1.187503
     41          1           0       -4.965227   -0.675311    0.667556
     42          1           0       -5.543307    0.145419    2.086740
     43         16           0       -5.843982    1.508703    0.192539
     44          6           0       -5.568014    0.943294   -1.517487
     45          1           0       -4.512477    0.982315   -1.742571
     46          1           0       -5.898907   -0.085563   -1.599590
     47          6           0       -6.354483    1.827434   -2.481070
     48          1           0       -7.418064    1.789061   -2.273015
     49          1           0       -6.032790    2.861012   -2.415244
     50          1           0       -6.196832    1.491559   -3.500974
 ---------------------------------------------------------------------
 Stoichiometry    C14H30O3S3
 Framework group  C1[X(C14H30O3S3)]
                         Standard orientation:                         
 ---------------------------------------------------------------------
 Center     Atomic      Atomic             Coordinates (Angstroms)
 Number     Number       Type             X           Y           Z
 ---------------------------------------------------------------------
      1          6           0       -4.534760    5.239451   -0.359134
      2          1           0       -4.050484    5.365325    0.602593
      3          1           0       -4.064263    5.908089   -1.073219
      4          1           0       -5.576395    5.521192   -0.255171
      5          6           0       -4.421892    3.801458   -0.824897
      6          1           0       -4.896596    3.677908   -1.796735
      7          1           0       -3.376048    3.523632   -0.937008
      8          8           0       -5.056382    2.982584    0.119179
      9          6           0       -5.025751    1.609445   -0.139530
     10          1           0       -5.026540    1.407064   -1.207623
     11          1           0       -5.934444    1.188663    0.273817
     12          6           0       -3.805888    0.958180    0.503059
     13          1           0       -2.897575    1.378090    0.089592
     14          1           0       -3.805439    1.159001    1.570702
     15          8           0       -3.769480   -0.419391    0.248214
     16          6           0       -4.428148   -1.237073    1.172976
     17          1           0       -5.499032   -1.039138    1.177444
     18          1           0       -4.047937   -1.053505    2.174744
     19          6           0       -4.199866   -2.690886    0.813183
     20          1           0       -4.511067   -2.868237   -0.212708
     21          1           0       -4.816630   -3.304831    1.460677
     22          8           0       -2.874626   -3.089050    1.011385
     23          6           0       -2.036245   -3.042504   -0.111223
     24          1           0       -2.047623   -2.055523   -0.553912
     25          1           0       -2.372179   -3.753430   -0.862357
     26          6           0       -0.641066   -3.413678    0.364021
     27          1           0       -0.650482   -4.418583    0.766252
     28          1           0       -0.335852   -2.752572    1.164396
     29         16           0        0.599787   -3.417334   -0.963797
     30          6           0        0.967026   -1.645245   -1.170026
     31          1           0        1.426371   -1.568194   -2.147149
     32          1           0        0.047213   -1.077841   -1.207032
     33          6           0        1.896049   -1.085647   -0.094565
     34          1           0        2.814600   -1.656240   -0.052398
     35          1           0        1.433150   -1.161082    0.880817
     36         16           0        2.270361    0.684667   -0.303142
     37          6           0        3.532881    0.661250   -1.612576
     38          1           0        3.536871    1.662785   -2.022215
     39          1           0        3.204842   -0.003255   -2.404212
     40          6           0        4.951159    0.274863   -1.187479
     41          1           0        4.965221   -0.675298   -0.667531
     42          1           0        5.543301    0.145432   -2.086716
     43         16           0        5.843976    1.508715   -0.192515
     44          6           0        5.568007    0.943307    1.517511
     45          1           0        4.512470    0.982328    1.742596
     46          1           0        5.898900   -0.085550    1.599615
     47          6           0        6.354477    1.827447    2.481095
     48          1           0        7.418057    1.789074    2.273039
     49          1           0        6.032784    2.861024    2.415268
     50          1           0        6.196826    1.491572    3.500998
 ---------------------------------------------------------------------
 Standard basis: 6-31G(d) (6D, 7F)
   372 basis functions,   752 primitive gaussians,   372 cartesian basis functions
    93 alpha electrons       93 beta electrons
 Requested convergence on RMS density matrix=1.00D-08 within  64 cycles.
 Requested convergence on MAX density matrix=1.00D-06.
 Requested convergence on             energy=1.00D-06.
 SCF Done:  E(RHF) =  -1964.69168231     A.U. after    5 cycles
            NFock=  5  Conv=0.94D-08     -V/T= 2.0006
 Step number   5 out of a maximum of   55
     Eigenvalues ---    0.00200   0.00213   0.00230   0.00238   0.00323
     Eigenvalues ---    0.00369   0.00411   0.00430   0.00486   0.00557
     Eigenvalues ---    0.00571   0.00623   0.00843   0.00989   0.01674
     Eigenvalues ---    0.01684   0.01700   0.01747   0.01776   0.04155
     Eigenvalues ---    0.04198   0.04522   0.04712   0.04943   0.04982
     Eigenvalues ---    0.05025   0.05098   0.05295   0.05386   0.05417
     Eigenvalues ---    0.05515   0.05559   0.05652   0.05683   0.05687
     Eigenvalues ---    0.05695   0.05720   0.05743   0.05758   0.05778
     Eigenvalues ---    0.05801   0.05888   0.05898   0.05956   0.05997
     Eigenvalues ---    0.06069   0.06138   0.11046   0.11193   0.11282
     Eigenvalues ---    0.11393   0.11495   0.11586   0.11617   0.11641
     Eigenvalues ---    0.11698   0.11794   0.11837   0.11875   0.13593
     Eigenvalues ---    0.13630   0.13711   0.13741   0.13878   0.13921
     Eigenvalues ---    0.13941   0.13987   0.14038   0.14053   0.14141
     Eigenvalues ---    0.14235   0.15998   0.16000   0.16000   0.16000
     Eigenvalues ---    0.16001   0.16035   0.20717   0.21962   0.21966
     Eigenvalues ---    0.22015   0.22019   0.22027   0.22044   0.22052
     Eigenvalues ---    0.22074   0.22550   0.23211   0.23436   0.24436
     Eigenvalues ---    0.24476   0.24509   0.24559   0.24671   0.24769
     Eigenvalues ---    0.24957   0.25000   0.25000   0.25057   0.25693
     Eigenvalues ---    0.27927   0.29414   0.29729   0.29792   0.30339
     Eigenvalues ---    0.30626   0.30857   0.31143   0.34935   0.34975
     Eigenvalues ---    0.35056   0.35114   0.35147   0.35175   0.35219
     Eigenvalues ---    0.35287   0.35338   0.35368   0.35458   0.35460
     Eigenvalues ---    0.35465   0.35479   0.35503   0.35511   0.35530
     Eigenvalues ---    0.35543   0.35613   0.35635   0.35698   0.35701
     Eigenvalues ---    0.35721   0.35739   0.35759   0.35764   0.35784
     Eigenvalues ---    0.35896   0.35989   0.36081   0.45305   0.45386
     Eigenvalues ---    0.45454   0.45776   0.46003   0.47125
 Maximum Force            0.000002     0.000015     YES
 RMS     Force            0.000000     0.000010     YES
 Maximum Displacement     0.000196     0.000060     NO 
 RMS     Displacement     0.000060     0.000040     NO 
                          Input orientation:                          
 ---------------------------------------------------------------------
 Center     Atomic      Atomic             Coordinates (Angstroms)
 Number     Number       Type             X           Y           Z
 ---------------------------------------------------------------------
      1          6           0        4.534696    5.239437    0.359129
      2          1           0        4.050458    5.365297   -0.602619
      3          1           0        4.064169    5.908082    1.073187
      4          1           0        5.576334    5.521182    0.255202
      5          6           0        4.421818    3.801448    0.824904
      6          1           0        4.896486    3.677911    1.796761
      7          1           0        3.375971    3.523618    0.936979
      8          8           0        5.056346    2.982565   -0.119138
      9          6           0        5.025715    1.609429    0.139588
     10          1           0        5.026470    1.407063    1.207683
     11          1           0        5.934422    1.188642   -0.273724
     12          6           0        3.805874    0.958151   -0.503029
     13          1           0        2.897545    1.378062   -0.089595
     14          1           0        3.805457    1.158960   -1.570674
     15          8           0        3.769469   -0.419417   -0.248170
     16          6           0        4.428171   -1.237102   -1.172903
     17          1           0        5.499053   -1.039156   -1.177339
     18          1           0        4.047990   -1.053545   -2.174685
     19          6           0        4.199894   -2.690915   -0.813105
     20          1           0        4.511068   -2.868254    0.212796
     21          1           0        4.816680   -3.304861   -1.460576
     22          8           0        2.874663   -3.089090   -1.011339
     23          6           0        2.036253   -3.042542    0.111247
     24          1           0        2.047614   -2.055558    0.553930
     25          1           0        2.372173   -3.753460    0.862394
     26          6           0        0.641087   -3.413726   -0.364031
     27          1           0        0.650516   -4.418635   -0.766253
     28          1           0        0.335892   -2.752628   -1.164418
     29         16           0       -0.599799   -3.417370    0.963757
     30          6           0       -0.967030   -1.645278    1.169980
     31          1           0       -1.426374   -1.568224    2.147103
     32          1           0       -0.047215   -1.077878    1.206983
     33          6           0       -1.896054   -1.085679    0.094520
     34          1           0       -2.814611   -1.656262    0.052361
     35          1           0       -1.433161   -1.161126   -0.880863
     36         16           0       -2.270346    0.684642    0.303085
     37          6           0       -3.532818    0.661254    1.612566
     38          1           0       -3.536778    1.662791    2.022201
     39          1           0       -3.204761   -0.003252    2.404193
     40          6           0       -4.951118    0.274886    1.187523
     41          1           0       -4.965213   -0.675279    0.667583
     42          1           0       -5.543229    0.145471    2.086782
     43         16           0       -5.843950    1.508744    0.192580
     44          6           0       -5.568034    0.943330   -1.517454
     45          1           0       -4.512502    0.982337   -1.742566
     46          1           0       -5.898942   -0.085523   -1.599546
     47          6           0       -6.354517    1.827479   -2.481018
     48          1           0       -7.418092    1.789118   -2.272936
     49          1           0       -6.032811    2.861053   -2.415200
     50          1           0       -6.196894    1.491602   -3.500925
 ---------------------------------------------------------------------
 Stoichiometry    C14H30O3S3
 Framework group  C1[X(C14H30O3S3)]
                         Standard orientation:                         
 ---------------------------------------------------------------------
 Center     Atomic      Atomic             Coordinates (Angstroms)
 Number     Number       Type             X           Y           Z
 ---------------------------------------------------------------------
      1          6           0       -4.534641    5.239501   -0.359111
      2          1           0       -4.050401    5.365356    0.602637
      3          1           0       -4.064107    5.908141   -1.073169
      4          1           0       -5.576275    5.521257   -0.255185
      5          6           0       -4.421778    3.801511   -0.824886
      6          1           0       -4.896448    3.677979   -1.796743
      7          1           0       -3.375934    3.523670   -0.936961
      8          8           0       -5.056316    2.982634    0.119155
      9          6           0       -5.025700    1.609498   -0.139570
     10          1           0       -5.026457    1.407132   -1.207665
     11          1           0       -5.934411    1.188721    0.273742
     12          6           0       -3.805865    0.958208    0.503047
     13          1           0       -2.897532    1.378109    0.089613
     14          1           0       -3.805447    1.159016    1.570692
     15          8           0       -3.769475   -0.419361    0.248187
     16          6           0       -4.428187   -1.237039    1.172921
     17          1           0       -5.499067   -1.039082    1.177357
     18          1           0       -4.048004   -1.053487    2.174702
     19          6           0       -4.199925   -2.690855    0.813122
     20          1           0       -4.511101   -2.868190   -0.212779
     21          1           0       -4.816718   -3.304794    1.460594
     22          8           0       -2.874698   -3.089044    1.011356
     23          6           0       -2.036288   -3.042505   -0.111229
     24          1           0       -2.047639   -2.055521   -0.553912
     25          1           0       -2.372216   -3.753420   -0.862376
     26          6           0       -0.641127   -3.413705    0.364049
     27          1           0       -0.650566   -4.418613    0.766271
     28          1           0       -0.335924   -2.752610    1.164436
     29         16           0        0.599760   -3.417362   -0.963740
     30          6           0        0.967010   -1.645274   -1.169962
     31          1           0        1.426355   -1.568225   -2.147086
     32          1           0        0.047201   -1.077864   -1.206965
     33          6           0        1.896041   -1.085685   -0.094502
     34          1           0        2.814591   -1.656278   -0.052343
     35          1           0        1.433146   -1.161127    0.880880
     36         16           0        2.270352    0.684631   -0.303067
     37          6           0        3.532824    0.661230   -1.612548
     38          1           0        3.536794    1.662767   -2.022183
     39          1           0        3.204759   -0.003273   -2.404175
     40          6           0        4.951119    0.274846   -1.187505
     41          1           0        4.965204   -0.675319   -0.667566
     42          1           0        5.543229    0.145425   -2.086764
     43         16           0        5.843964    1.508695   -0.192562
     44          6           0        5.568042    0.943284    1.517471
     45          1           0        4.512511    0.982302    1.742584
     46          1           0        5.898939   -0.085572    1.599564
     47          6           0        6.354535    1.827424    2.481036
     48          1           0        7.418110    1.789051    2.272954
     49          1           0        6.032840    2.861001    2.415218
     50          1           0        6.196909    1.491549    3.500943
 ---------------------------------------------------------------------
 Standard basis: 6-31G(d) (6D, 7F)
   372 basis functions,   752 primitive gaussians,   372 cartesian basis functions
    93 alpha electrons       93 beta electrons
 Requested convergence on RMS density matrix=1.00D-08 within  64 cycles.
 Requested convergence on MAX density matrix=1.00D-06.
 Requested convergence on             energy=1.00D-06.
 SCF Done:  E(RHF) =  -1964.69168231     A.U. after    4 cycles
            NFock=  4  Conv=0.48D-08     -V/T= 2.0006
 Step number   6 out of a maximum of   55
     Eigenvalues ---    0.00188   0.00229   0.00234   0.00308   0.00356
     Eigenvalues ---    0.00397   0.00428   0.00471   0.00554   0.00565
     Eigenvalues ---    0.00598   0.00641   0.00848   0.00921   0.01672
     Eigenvalues ---    0.01695   0.01699   0.01732   0.01780   0.04177
     Eigenvalues ---    0.04203   0.04504   0.04729   0.04937   0.04975
     Eigenvalues ---    0.05023   0.05052   0.05340   0.05384   0.05476
     Eigenvalues ---    0.05515   0.05549   0.05653   0.05682   0.05691
     Eigenvalues ---    0.05698   0.05731   0.05743   0.05759   0.05778
     Eigenvalues ---    0.05832   0.05883   0.05899   0.05957   0.06001
     Eigenvalues ---    0.06090   0.06134   0.11044   0.11196   0.11280
     Eigenvalues ---    0.11387   0.11523   0.11584   0.11614   0.11634
     Eigenvalues ---    0.11701   0.11782   0.11869   0.11879   0.13594
     Eigenvalues ---    0.13617   0.13707   0.13717   0.13864   0.13921
     Eigenvalues ---    0.13954   0.13989   0.14039   0.14099   0.14130
     Eigenvalues ---    0.14234   0.15994   0.15998   0.16000   0.16000
     Eigenvalues ---    0.16000   0.16035   0.20362   0.21877   0.21964
     Eigenvalues ---    0.22003   0.22015   0.22020   0.22051   0.22057
     Eigenvalues ---    0.22070   0.22727   0.23093   0.23839   0.24442
     Eigenvalues ---    0.24488   0.24512   0.24590   0.24672   0.24754
     Eigenvalues ---    0.24815   0.24963   0.25000   0.25146   0.25439
     Eigenvalues ---    0.28401   0.29448   0.29732   0.29800   0.30311
     Eigenvalues ---    0.30628   0.30853   0.31493   0.34888   0.34976
     Eigenvalues ---    0.35056   0.35084   0.35137   0.35149   0.35178
     Eigenvalues ---    0.35240   0.35324   0.35343   0.35423   0.35458
     Eigenvalues ---    0.35463   0.35470   0.35497   0.35505   0.35512
     Eigenvalues ---    0.35530   0.35610   0.35634   0.35664   0.35699
     Eigenvalues ---    0.35713   0.35730   0.35744   0.35769   0.35788
     Eigenvalues ---    0.35958   0.36007   0.36209   0.45306   0.45352
     Eigenvalues ---    0.45490   0.45766   0.45993   0.46677
 Maximum Force            0.000000     0.000015     YES
 RMS     Force            0.000000     0.000010     YES
 Maximum Displacement     0.000413     0.000060     NO 
 RMS     Displacement     0.000116     0.000040     NO 
                          Input orientation:                          
 ---------------------------------------------------------------------
 Center     Atomic      Atomic             Coordinates (Angstroms)
 Number     Number       Type             X           Y           Z
 ---------------------------------------------------------------------
      1          6           0        4.534872    5.239423    0.359219
      2          1           0        4.050608    5.365313   -0.602512
      3          1           0        4.064377    5.908063    1.073304
      4          1           0        5.576511    5.521152    0.255269
      5          6           0        4.421980    3.801427    0.824968
      6          1           0        4.896673    3.677861    1.796809
      7          1           0        3.376131    3.523614    0.937065
      8          8           0        5.056467    2.982551   -0.119108
      9          6           0        5.025815    1.609410    0.139589
     10          1           0        5.026593    1.407021    1.207679
     11          1           0        5.934503    1.188612   -0.273755
     12          6           0        3.805944    0.958173   -0.503011
     13          1           0        2.897635    1.378098   -0.089549
     14          1           0        3.805508    1.158999   -1.570653
     15          8           0        3.769513   -0.419399   -0.248175
     16          6           0        4.428181   -1.237082   -1.172935
     17          1           0        5.499066   -1.039157   -1.177390
     18          1           0        4.047982   -1.053501   -2.174706
     19          6           0        4.199884   -2.690897   -0.813157
     20          1           0        4.511076   -2.868259    0.212735
     21          1           0        4.816646   -3.304844   -1.460650
     22          8           0        2.874642   -3.089044   -1.011370
     23          6           0        2.036255   -3.042496    0.111233
     24          1           0        2.047643   -2.055517    0.553927
     25          1           0        2.372178   -3.753429    0.862364
     26          6           0        0.641074   -3.413649   -0.364022
     27          1           0        0.650475   -4.418554   -0.766254
     28          1           0        0.335875   -2.752537   -1.164396
     29         16           0       -0.599786   -3.417281    0.963792
     30          6           0       -0.967047   -1.645191    1.169977
     31          1           0       -1.426371   -1.568122    2.147109
     32          1           0       -0.047242   -1.077772    1.206947
     33          6           0       -1.896107   -1.085636    0.094525
     34          1           0       -2.814656   -1.656235    0.052405
     35          1           0       -1.433237   -1.161102   -0.880867
     36         16           0       -2.270423    0.684684    0.303051
     37          6           0       -3.532886    0.661309    1.612541
     38          1           0       -3.536867    1.662859    2.022145
     39          1           0       -3.204809   -0.003165    2.404186
     40          6           0       -4.951179    0.274894    1.187518
     41          1           0       -4.965255   -0.675288    0.667609
     42          1           0       -5.543283    0.145494    2.086785
     43         16           0       -5.844044    1.508700    0.192539
     44          6           0       -5.568182    0.943198   -1.517474
     45          1           0       -4.512655    0.982171   -1.742613
     46          1           0       -5.899114   -0.085652   -1.599508
     47          6           0       -6.354670    1.827317   -2.481062
     48          1           0       -7.418241    1.788992   -2.272949
     49          1           0       -6.032936    2.860886   -2.415306
     50          1           0       -6.197084    1.491384   -3.500956
 ---------------------------------------------------------------------
 Stoichiometry    C14H30O3S3
 Framework group  C1[X(C14H30O3S3)]
                         Standard orientation:                         
 ---------------------------------------------------------------------
 Center     Atomic      Atomic             Coordinates (Angstroms)
 Number     Number       Type             X           Y           Z
 ---------------------------------------------------------------------
      1          6           0       -4.534900    5.239412   -0.359205
      2          1           0       -4.050637    5.365303    0.602527
      3          1           0       -4.064408    5.908053   -1.073290
      4          1           0       -5.576541    5.521136   -0.255255
      5          6           0       -4.422003    3.801416   -0.824954
      6          1           0       -4.896696    3.677848   -1.796795
      7          1           0       -3.376153    3.523606   -0.937051
      8          8           0       -5.056488    2.982537    0.119122
      9          6           0       -5.025830    1.609396   -0.139575
     10          1           0       -5.026607    1.407007   -1.207665
     11          1           0       -5.934517    1.188596    0.273769
     12          6           0       -3.805957    0.958163    0.503025
     13          1           0       -2.897649    1.378092    0.089564
     14          1           0       -3.805522    1.158990    1.570667
     15          8           0       -3.769521   -0.419408    0.248189
     16          6           0       -4.428185   -1.237094    1.172949
     17          1           0       -5.499072   -1.039172    1.177404
     18          1           0       -4.047987   -1.053511    2.174720
     19          6           0       -4.199884   -2.690908    0.813171
     20          1           0       -4.511075   -2.868270   -0.212721
     21          1           0       -4.816643   -3.304857    1.460664
     22          8           0       -2.874640   -3.089050    1.011384
     23          6           0       -2.036253   -3.042498   -0.111219
     24          1           0       -2.047645   -2.055520   -0.553913
     25          1           0       -2.372173   -3.753433   -0.862350
     26          6           0       -0.641070   -3.413647    0.364036
     27          1           0       -0.650468   -4.418551    0.766268
     28          1           0       -0.335874   -2.752534    1.164411
     29         16           0        0.599789   -3.417274   -0.963778
     30          6           0        0.967043   -1.645183   -1.169963
[...]
     19          6           0        4.199927   -2.690933   -0.813104
     20          1           0        4.511096   -2.868272    0.212798
     21          1           0        4.816726   -3.304868   -1.460573
     22          8           0        2.874701   -3.089121   -1.011348
     23          6           0        2.036289   -3.042602    0.111237
     24          1           0        2.047663   -2.055635    0.553955
     25          1           0        2.372197   -3.753553    0.862359
     26          6           0        0.641118   -3.413747   -0.364057
     27          1           0        0.650524   -4.418649   -0.766297
     28          1           0        0.335943   -2.752626   -1.164433
     29         16           0       -0.599775   -3.417382    0.963726
     30          6           0       -0.966997   -1.645287    1.169935
     31          1           0       -1.426319   -1.568218    2.147068
     32          1           0       -0.047179   -1.077889    1.206909
     33          6           0       -1.896043   -1.085702    0.094487
     34          1           0       -2.814619   -1.656259    0.052384
     35          1           0       -1.433187   -1.161205   -0.880910
     36         16           0       -2.270273    0.684639    0.302989
     37          6           0       -3.532691    0.661347    1.612524
     38          1           0       -3.536600    1.662901    2.022121
     39          1           0       -3.204624   -0.003139    2.404163
     40          6           0       -4.951021    0.275012    1.187554
     41          1           0       -4.965170   -0.675177    0.667658
     42          1           0       -5.543104    0.145660    2.086841
     43         16           0       -5.843841    1.508859    0.192584
     44          6           0       -5.568060    0.943315   -1.517428
     45          1           0       -4.512535    0.982207   -1.742591
     46          1           0       -5.899072   -0.085510   -1.599443
     47          6           0       -6.354502    1.827482   -2.481009
     48          1           0       -7.418071    1.789243   -2.272869
     49          1           0       -6.032687    2.861027   -2.415274
     50          1           0       -6.196967    1.491523   -3.500902
 ---------------------------------------------------------------------
 Stoichiometry    C14H30O3S3
 Framework group  C1[X(C14H30O3S3)]
                         Standard orientation:                         
 ---------------------------------------------------------------------
 Center     Atomic      Atomic             Coordinates (Angstroms)
 Number     Number       Type             X           Y           Z
 ---------------------------------------------------------------------
      1          6           0       -4.534403    5.239571   -0.359153
      2          1           0       -4.050210    5.365424    0.602618
      3          1           0       -4.063813    5.908190   -1.073194
      4          1           0       -5.576035    5.521358   -0.255285
      5          6           0       -4.421556    3.801573   -0.824907
      6          1           0       -4.896180    3.678043   -1.796786
      7          1           0       -3.375714    3.523703   -0.936926
      8          8           0       -5.056163    2.982725    0.119112
      9          6           0       -5.025590    1.609586   -0.139606
     10          1           0       -5.026335    1.407216   -1.207700
     11          1           0       -5.934324    1.188845    0.273691
     12          6           0       -3.805793    0.958251    0.503037
     13          1           0       -2.897435    1.378115    0.089621
     14          1           0       -3.805389    1.159061    1.570682
     15          8           0       -3.769452   -0.419320    0.248180
     16          6           0       -4.428212   -1.236971    1.172903
     17          1           0       -5.499084   -1.038975    1.177318
     18          1           0       -4.048041   -1.053430    2.174691
     19          6           0       -4.199996   -2.690796    0.813112
     20          1           0       -4.511171   -2.868125   -0.212790
     21          1           0       -4.816814   -3.304712    1.460582
     22          8           0       -2.874782   -3.089024    1.011357
     23          6           0       -2.036369   -3.042531   -0.111228
     24          1           0       -2.047713   -2.055563   -0.553947
     25          1           0       -2.372298   -3.753472   -0.862350
     26          6           0       -0.641210   -3.413719    0.364065
     27          1           0       -0.650646   -4.418620    0.766305
     28          1           0       -0.336014   -2.752607    1.164442
     29         16           0        0.599683   -3.417392   -0.963717
     30          6           0        0.966960   -1.645308   -1.169927
     31          1           0        1.426284   -1.568253   -2.147060
     32          1           0        0.047159   -1.077882   -1.206900
     33          6           0        1.896023   -1.085751   -0.094478
     34          1           0        2.814582   -1.656336   -0.052375
     35          1           0        1.433164   -1.161240    0.880918
     36         16           0        2.270307    0.684578   -0.302981
     37          6           0        3.532724    0.661248   -1.612515
     38          1           0        3.536664    1.662801   -2.022112
     39          1           0        3.204637   -0.003228   -2.404154
     40          6           0        4.951042    0.274869   -1.187545
     41          1           0        4.965162   -0.675319   -0.667649
     42          1           0        5.543121    0.145499   -2.086832
     43         16           0        5.843900    1.508689   -0.192576
     44          6           0        5.568102    0.943154    1.517436
     45          1           0        4.512578    0.982078    1.742599
     46          1           0        5.899082   -0.085682    1.599451
     47          6           0        6.354571    1.827297    2.481017
     48          1           0        7.418139    1.789025    2.272878
     49          1           0        6.032787    2.860851    2.415282
     50          1           0        6.197026    1.491342    3.500911
 ---------------------------------------------------------------------
 Standard basis: 6-31G(d) (6D, 7F)
   372 basis functions,   752 primitive gaussians,   372 cartesian basis functions
    93 alpha electrons       93 beta electrons
 Requested convergence on RMS density matrix=1.00D-08 within  64 cycles.
 Requested convergence on MAX density matrix=1.00D-06.
 Requested convergence on             energy=1.00D-06.
 SCF Done:  E(RHF) =  -1964.69168231     A.U. after    4 cycles
            NFock=  4  Conv=0.24D-08     -V/T= 2.0006
 Step number  18 out of a maximum of   55
     Eigenvalues ---    0.00190   0.00245   0.00294   0.00366   0.00378
     Eigenvalues ---    0.00419   0.00441   0.00477   0.00557   0.00621
     Eigenvalues ---    0.00671   0.00721   0.00917   0.01114   0.01347
     Eigenvalues ---    0.01682   0.01714   0.01762   0.02524   0.04540
     Eigenvalues ---    0.04696   0.04797   0.04922   0.05024   0.05056
     Eigenvalues ---    0.05156   0.05384   0.05475   0.05517   0.05555
     Eigenvalues ---    0.05620   0.05671   0.05700   0.05725   0.05736
     Eigenvalues ---    0.05749   0.05782   0.05801   0.05817   0.05851
     Eigenvalues ---    0.05879   0.05919   0.05972   0.06039   0.06071
     Eigenvalues ---    0.06143   0.06369   0.11065   0.11232   0.11281
     Eigenvalues ---    0.11408   0.11430   0.11613   0.11629   0.11689
     Eigenvalues ---    0.11723   0.11830   0.11901   0.11932   0.13398
     Eigenvalues ---    0.13633   0.13661   0.13724   0.13829   0.13925
     Eigenvalues ---    0.13967   0.14057   0.14151   0.14186   0.14306
     Eigenvalues ---    0.14928   0.15993   0.16000   0.16003   0.16005
     Eigenvalues ---    0.16053   0.16059   0.20797   0.21735   0.21914
     Eigenvalues ---    0.22004   0.22173   0.22338   0.22603   0.22684
     Eigenvalues ---    0.22794   0.23551   0.24178   0.24293   0.24379
     Eigenvalues ---    0.24541   0.24554   0.24603   0.24738   0.24869
     Eigenvalues ---    0.25330   0.25925   0.26493   0.27107   0.29036
     Eigenvalues ---    0.29785   0.29873   0.30151   0.30262   0.30795
     Eigenvalues ---    0.30937   0.31313   0.34140   0.34952   0.35004
     Eigenvalues ---    0.35060   0.35100   0.35150   0.35170   0.35238
     Eigenvalues ---    0.35323   0.35347   0.35349   0.35428   0.35462
     Eigenvalues ---    0.35463   0.35486   0.35504   0.35527   0.35543
     Eigenvalues ---    0.35625   0.35639   0.35658   0.35698   0.35706
     Eigenvalues ---    0.35735   0.35750   0.35818   0.35878   0.36008
     Eigenvalues ---    0.36436   0.36684   0.39162   0.44933   0.45359
     Eigenvalues ---    0.45571   0.45834   0.46004   0.47751
 Maximum Force            0.000000     0.000015     YES
 RMS     Force            0.000000     0.000010     YES
 Maximum Displacement     0.000147     0.000060     NO 
 RMS     Displacement     0.000032     0.000040     YES
 Optimization completed on the basis of negligible forces.
    -- Stationary point found.
                          Input orientation:                          
 ---------------------------------------------------------------------
 Center     Atomic      Atomic             Coordinates (Angstroms)
 Number     Number       Type             X           Y           Z
 ---------------------------------------------------------------------
      1          6           0        4.534577    5.239424    0.359162
      2          1           0        4.050387    5.365291   -0.602610
      3          1           0        4.064007    5.908057    1.073203
      4          1           0        5.576217    5.521178    0.255293
      5          6           0        4.421685    3.801429    0.824916
      6          1           0        4.896306    3.677885    1.796795
      7          1           0        3.375834    3.523591    0.936935
      8          8           0        5.056267    2.982561   -0.119104
      9          6           0        5.025652    1.609424    0.139615
     10          1           0        5.026391    1.407053    1.207709
     11          1           0        5.934374    1.188655   -0.273682
     12          6           0        3.805836    0.958126   -0.503028
     13          1           0        2.897490    1.378017   -0.089613
     14          1           0        3.805437    1.158935   -1.570673
     15          8           0        3.769452   -0.419444   -0.248172
     16          6           0        4.428187   -1.237115   -1.172894
     17          1           0        5.499066   -1.039152   -1.177309
     18          1           0        4.048022   -1.053562   -2.174683
     19          6           0        4.199927   -2.690933   -0.813104
     20          1           0        4.511096   -2.868272    0.212798
     21          1           0        4.816726   -3.304868   -1.460573
     22          8           0        2.874701   -3.089121   -1.011348
     23          6           0        2.036289   -3.042602    0.111237
     24          1           0        2.047663   -2.055635    0.553955
     25          1           0        2.372197   -3.753553    0.862359
     26          6           0        0.641118   -3.413747   -0.364057
     27          1           0        0.650524   -4.418649   -0.766297
     28          1           0        0.335943   -2.752626   -1.164433
     29         16           0       -0.599775   -3.417382    0.963726
     30          6           0       -0.966997   -1.645287    1.169935
     31          1           0       -1.426319   -1.568218    2.147068
     32          1           0       -0.047179   -1.077889    1.206909
     33          6           0       -1.896043   -1.085702    0.094487
     34          1           0       -2.814619   -1.656259    0.052384
     35          1           0       -1.433187   -1.161205   -0.880910
     36         16           0       -2.270273    0.684639    0.302989
     37          6           0       -3.532691    0.661347    1.612524
     38          1           0       -3.536600    1.662901    2.022121
     39          1           0       -3.204624   -0.003139    2.404163
     40          6           0       -4.951021    0.275012    1.187554
     41          1           0       -4.965170   -0.675177    0.667658
     42          1           0       -5.543104    0.145660    2.086841
     43         16           0       -5.843841    1.508859    0.192584
     44          6           0       -5.568060    0.943315   -1.517428
     45          1           0       -4.512535    0.982207   -1.742591
     46          1           0       -5.899072   -0.085510   -1.599443
     47          6           0       -6.354502    1.827482   -2.481009
     48          1           0       -7.418071    1.789243   -2.272869
     49          1           0       -6.032687    2.861027   -2.415274
     50          1           0       -6.196967    1.491523   -3.500902
 ---------------------------------------------------------------------
 Stoichiometry    C14H30O3S3
 Framework group  C1[X(C14H30O3S3)]
                         Standard orientation:                         
 ---------------------------------------------------------------------
 Center     Atomic      Atomic             Coordinates (Angstroms)
 Number     Number       Type             X           Y           Z
 ---------------------------------------------------------------------
      1          6           0       -4.534403    5.239571   -0.359153
      2          1           0       -4.050210    5.365424    0.602618
      3          1           0       -4.063813    5.908190   -1.073194
      4          1           0       -5.576035    5.521358   -0.255285
      5          6           0       -4.421556    3.801573   -0.824907
      6          1           0       -4.896180    3.678043   -1.796786
      7          1           0       -3.375714    3.523703   -0.936926
      8          8           0       -5.056163    2.982725    0.119112
      9          6           0       -5.025590    1.609586   -0.139606
     10          1           0       -5.026335    1.407216   -1.207700
     11          1           0       -5.934324    1.188845    0.273691
     12          6           0       -3.805793    0.958251    0.503037
     13          1           0       -2.897435    1.378115    0.089621
     14          1           0       -3.805389    1.159061    1.570682
     15          8           0       -3.769452   -0.419320    0.248180
     16          6           0       -4.428212   -1.236971    1.172903
     17          1           0       -5.499084   -1.038975    1.177318
     18          1           0       -4.048041   -1.053430    2.174691
     19          6           0       -4.199996   -2.690796    0.813112
     20          1           0       -4.511171   -2.868125   -0.212790
     21          1           0       -4.816814   -3.304712    1.460582
     22          8           0       -2.874782   -3.089024    1.011357
     23          6           0       -2.036369   -3.042531   -0.111228
     24          1           0       -2.047713   -2.055563   -0.553947
     25          1           0       -2.372298   -3.753472   -0.862350
     26          6           0       -0.641210   -3.413719    0.364065
     27          1           0       -0.650646   -4.418620    0.766305
     28          1           0       -0.336014   -2.752607    1.164442
     29         16           0        0.599683   -3.417392   -0.963717
     30          6           0        0.966960   -1.645308   -1.169927
     31          1           0        1.426284   -1.568253   -2.147060
     32          1           0        0.047159   -1.077882   -1.206900
     33          6           0        1.896023   -1.085751   -0.094478
     34          1           0        2.814582   -1.656336   -0.052375
     35          1           0        1.433164   -1.161240    0.880918
     36         16           0        2.270307    0.684578   -0.302981
     37          6           0        3.532724    0.661248   -1.612515
     38          1           0        3.536664    1.662801   -2.022112
     39          1           0        3.204637   -0.003228   -2.404154
     40          6           0        4.951042    0.274869   -1.187545
     41          1           0        4.965162   -0.675319   -0.667649
     42          1           0        5.543121    0.145499   -2.086832
     43         16           0        5.843900    1.508689   -0.192576
     44          6           0        5.568102    0.943154    1.517436
     45          1           0        4.512578    0.982078    1.742599
     46          1           0        5.899082   -0.085682    1.599451
     47          6           0        6.354571    1.827297    2.481017
     48          1           0        7.418139    1.789025    2.272878
     49          1           0        6.032787    2.860851    2.415282
     50          1           0        6.197026    1.491342    3.500911
 ---------------------------------------------------------------------
 Mulliken charges:
     1  C   -0.488615
     2  H    0.173862
     3  H    0.158226
     4  H    0.174987
     5  C    0.015753
     6  H    0.142805
     7  H    0.140100
     8  O   -0.631125
     9  C   -0.002194
    10  H    0.152514
    11  H    0.168231
    12  C   -0.005392
    13  H    0.174133
    14  H    0.158105
    15  O   -0.642702
    16  C    0.009450
    17  H    0.136746
    18  H    0.157835
    19  C    0.000071
    20  H    0.156203
    21  H    0.170081
    22  O   -0.638013
    23  C    0.025498
    24  H    0.179595
    25  H    0.153424
    26  C   -0.495247
    27  H    0.211524
    28  H    0.200983
    29  S    0.107186
    30  C   -0.475367
    31  H    0.200479
    32  H    0.214407
    33  C   -0.476549
    34  H    0.204554
    35  H    0.205407
    36  S    0.118413
    37  C   -0.470221
    38  H    0.217875
    39  H    0.191318
    40  C   -0.478260
    41  H    0.194639
    42  H    0.204545
    43  S    0.114722
    44  C   -0.460339
    45  H    0.218673
    46  H    0.179813
    47  C   -0.497538
    48  H    0.177976
    49  H    0.179769
    50  H    0.171661
 Sum of Mulliken charges =  -0.00000
 Dipole moment (field-independent basis, Debye):
    X=             -1.6317    Y=             -0.5130    Z=             -0.3541  Tot=              1.7467
 Quadrupole moment (field-independent basis, Debye-Ang):
   XX=           -150.0071   YY=           -158.8822   ZZ=           -143.1490
   XY=             -2.5616   XZ=              3.4477   YZ=             -4.6907
 Traceless Quadrupole moment (field-independent basis, Debye-Ang):
   XX=              0.6723   YY=             -8.2027   ZZ=              7.5305
   XY=             -2.5616   XZ=              3.4477   YZ=             -4.6907
 Octapole moment (field-independent basis, Debye-Ang**2):
  XXX=           -155.7961  YYY=             35.4258  ZZZ=              3.2086  XYY=            -44.8364
  XXY=            -93.8526  XXZ=             13.1930  XZZ=              8.4037  YZZ=             15.0270
  YYZ=             -1.4592  XYZ=             22.3389
 Hexadecapole moment (field-independent basis, Debye-Ang**3):
 XXXX=         -15073.7952 YYYY=          -5484.6952 ZZZZ=          -1094.3999 XXXY=             -0.6377
 XXXZ=            166.7204 YYYX=             -5.6476 YYYZ=           -109.4230 ZZZX=            -42.9530
 ZZZY=            -23.4936 XXYY=          -3452.5040 XXZZ=          -2422.1657 YYZZ=          -1119.8965
 XXYZ=            -47.6630 YYXZ=            106.7062 ZZXY=              3.3988
 Job cpu time:       0 days  1 hours 21 minutes 36.8 seconds.
 Normal termination of Gaussian 16 at Sat Jul  8 16:31:35 2023.
