 Copyright (c) 1988-2019, Gaussian, Inc.  All Rights Reserved.
  
 This is part of the Gaussian(R) 16 program.  It is based on
 the Gaussian(R) 09 system (copyright 2009, Gaussian, Inc.),
 the Gaussian(R) 03 system (copyright 2003, Gaussian, Inc.),
 the Gaussian(R) 98 system (copyright 1998, Gaussian, Inc.),
 the Gaussian(R) 94 system (copyright 1995, Gaussian, Inc.),
 the Gaussian 92(TM) system (copyright 1992, Gaussian, Inc.),
 the Gaussian 90(TM) system (copyright 1990, Gaussian, Inc.),
 the Gaussian 88(TM) system (copyright 1988, Gaussian, Inc.),
 the Gaussian 86(TM) system (copyright 1986, Carnegie Mellon
 University), and the Gaussian 82(TM) system (copyright 1983,
 Carnegie Mellon University). Gaussian is a federally registered
 trademark of Gaussian, Inc.
 Cite this work as:
 Gaussian 16, Revision C.01,
 M. J. Frisch, G. W. Trucks, H. B. Schlegel, G. E. Scuseria, 
 M. A. Robb, J. R. Cheeseman, G. Scalmani, V. Barone, 
 G. A. Petersson, H. Nakatsuji, X. Li, M. Caricato, A. V. Marenich, 
 J. Bloino, B. G. Janesko, R. Gomperts, B. Mennucci, H. P. Hratchian, 
 J. V. Ortiz, A. F. Izmaylov, J. L. Sonnenberg, D. Williams-Young, 
 F. Ding, F. Lipparini, F. Egidi, J. Goings, B. Peng, A. Petrone, 
 T. Henderson, D. Ranasinghe, V. G. Zakrzewski, J. Gao, N. Rega, 
 G. Zheng, W. Liang, M. Hada, M. Ehara, K. Toyota, R. Fukuda, 
 J. Hasegawa, M. Ishida, T. Nakajima, Y. Honda, O. Kitao, H. Nakai, 
 T. Vreven, K. Throssell, J. A. Montgomery, Jr., J. E. Peralta, 
 F. Ogliaro, M. J. Bearpark, J. J. Heyd, E. N. Brothers, K. N. Kudin, 
 V. N. Staroverov, T. A. Keith, R. Kobayashi, J. Normand, 
 K. Raghavachari, A. P. Rendell, J. C. Burant, S. S. Iyengar, 
 J. Tomasi, M. Cossi, J. M. Millam, M. Klene, C. Adamo, R. Cammi, 
 J. W. Ochterski, R. L. Martin, K. Morokuma, O. Farkas, 
 J. B. Foresman, and D. J. Fox, Gaussian, Inc., Wallingford CT, 2019.
 
 ******************************************
 Gaussian 16:  EM64L-G16RevC.01  3-Jul-2019
                 8-Jul-2023 
 ******************************************
 ----------------------------------------------------------------------
 #P HF/6-31G(d) Opt=(Tight,MaxCycle=55) GFInput GFPrint SCF(Conver=8,XQ
 C,MaxConventionalCycles=64,MaxCycle=128) Test
 ----------------------------------------------------------------------
 1/6=55,7=10,18=20,19=15,38=1/1,3;
 2/9=110,12=2,17=6,18=5,40=1/2;
 3/5=1,6=6,7=1,11=9,24=110,25=1,30=1,71=1/1,2,3;
 4//1;
 5/5=2,6=8,7=128,8=3,13=1,38=5,85=64/2,8;
 6/7=2,8=2,9=2,10=2,28=1/1;
 7//1,2,3,16;
 1/6=55,7=10,18=20,19=15/3(2);
 2/9=110/2;
 99//99;
 2/9=110/2;
 3/5=1,6=6,7=1,11=9,25=1,30=1,71=1/1,2,3;
 4/5=5,16=3,69=1/1;
 5/5=2,6=8,7=128,8=3,13=1,38=5,85=64/2,8;
 7//1,2,3,16;
 1/6=55,7=10,18=20,19=15/3(-5);
 2/9=110/2;
 6/7=2,8=2,9=2,10=2,19=2,28=1/1;
 99/9=1/99;
 ----------------------------------------------------------
 Optimization step - Input generated by PyRED DVE-DMDS-OPLS
 ----------------------------------------------------------
 Symbolic Z-matrix:
 Charge =  0 Multiplicity = 1
 C                     8.66385   1.35344   2.0947 
 H                     9.03906   1.99859   1.30838 
 H                     7.6749    1.69814   2.37499 
 H                     9.31765   1.44284   2.95662 
 C                     8.60843  -0.08447   1.6179 
 H                     9.6043   -0.43489   1.34838 
 H                     8.239    -0.73527   2.40919 
 O                     7.76206  -0.15484   0.50695 
 C                     7.62888  -1.42971  -0.04377 
 H                     7.26767  -2.13489   0.7024 
 H                     8.59576  -1.78635  -0.40133 
 C                     6.65835  -1.39222  -1.2077 
 H                     6.94325  -0.59512  -1.88995 
 H                     6.72889  -2.33376  -1.74072 
 O                     5.32274  -1.26206  -0.82139 
 C                     4.8453    0.03567  -0.59695 
 H                     5.07006   0.67906  -1.44417 
 H                     5.28937   0.4767    0.28518 
 C                     3.34435  -0.07365  -0.42588 
 H                     3.1173   -0.72364   0.41599 
 H                     2.91039  -0.51955  -1.31674 
 O                     2.8519    1.21586  -0.19955 
 C                     1.47929   1.32195   0.03864 
 H                     1.32948   2.22416   0.61634 
 H                     1.13237   0.48398   0.63801 
 C                     0.691     1.42305  -1.2655 
 H                     0.84479   0.55294  -1.8919 
 H                     1.0389    2.28483  -1.82096 
 S                    -1.09212   1.66985  -1.02346 
 C                    -1.64551  -0.02417  -0.64743 
 H                    -1.34167  -0.68323  -1.45099 
 H                    -1.18819  -0.37047   0.27002 
 C                    -3.16535  -0.03495  -0.50719 
 H                    -3.62545   0.28798  -1.43295 
 H                    -3.46631   0.64436   0.27963 
 S                    -3.72203  -1.72491  -0.12204 
 C                    -5.53038  -1.52809  -0.16215 
 H                    -5.9283   -2.53097  -0.24359 
 H                    -5.80246  -1.00236  -1.06885 
 C                    -6.10767  -0.84502   1.07591 
 H                    -5.85702  -1.41977   1.95786 
 H                    -5.68982   0.14314   1.21403 
 S                    -7.92434  -0.74011   1.06563 
 C                    -8.24556   0.65492  -0.05987 
 H                    -7.7101    0.50132  -0.98901 
 H                    -9.30066   0.57518  -0.29289 
 C                    -7.94251   2.03218   0.52289 
 H                    -6.89095   2.14779   0.76144 
 H                    -8.2028    2.80462  -0.1953 
 H                    -8.51191   2.20198   1.42906 
 
 ITRead=  0  0  0  0  0  0  0  0  0  0  0  0  0  0  0  0  0  0  0  0
 ITRead=  0  0  0  0  0  0  0  0  0  0  0  0  0  0  0  0  0  0  0  0
 ITRead=  0  0  0  0  0  0  0  0  0  0
 MicOpt= -1 -1 -1 -1 -1 -1 -1 -1 -1 -1 -1 -1 -1 -1 -1 -1 -1 -1 -1 -1
 MicOpt= -1 -1 -1 -1 -1 -1 -1 -1 -1 -1 -1 -1 -1 -1 -1 -1 -1 -1 -1 -1
 MicOpt= -1 -1 -1 -1 -1 -1 -1 -1 -1 -1
 NAtoms=     50 NQM=       50 NQMF=       0 NMMI=      0 NMMIF=      0
                NMic=       0 NMicF=      0.
                          Input orientation:                          
 ---------------------------------------------------------------------
 Center     Atomic      Atomic             Coordinates (Angstroms)
 Number     Number       Type             X           Y           Z
 ---------------------------------------------------------------------
      1          6           0        8.663849    1.353441    2.094696
      2          1           0        9.039061    1.998590    1.308379
      3          1           0        7.674897    1.698142    2.374991
      4          1           0        9.317652    1.442835    2.956622
      5          6           0        8.608425   -0.084466    1.617898
      6          1           0        9.604298   -0.434894    1.348383
      7          1           0        8.239003   -0.735273    2.409188
      8          8           0        7.762061   -0.154841    0.506947
      9          6           0        7.628877   -1.429705   -0.043765
     10          1           0        7.267674   -2.134894    0.702395
     11          1           0        8.595757   -1.786348   -0.401330
     12          6           0        6.658350   -1.392222   -1.207702
     13          1           0        6.943248   -0.595122   -1.889950
     14          1           0        6.728893   -2.333758   -1.740723
     15          8           0        5.322744   -1.262062   -0.821388
     16          6           0        4.845296    0.035673   -0.596950
     17          1           0        5.070057    0.679060   -1.444174
     18          1           0        5.289370    0.476702    0.285180
     19          6           0        3.344349   -0.073648   -0.425880
     20          1           0        3.117301   -0.723642    0.415990
     21          1           0        2.910394   -0.519545   -1.316744
     22          8           0        2.851897    1.215858   -0.199549
     23          6           0        1.479291    1.321945    0.038641
     24          1           0        1.329484    2.224160    0.616340
     25          1           0        1.132367    0.483982    0.638010
     26          6           0        0.691000    1.423048   -1.265497
     27          1           0        0.844788    0.552944   -1.891899
     28          1           0        1.038899    2.284833   -1.820961
     29         16           0       -1.092122    1.669852   -1.023458
     30          6           0       -1.645513   -0.024170   -0.647426
     31          1           0       -1.341665   -0.683226   -1.450987
     32          1           0       -1.188186   -0.370467    0.270018
     33          6           0       -3.165355   -0.034949   -0.507189
     34          1           0       -3.625452    0.287979   -1.432946
     35          1           0       -3.466310    0.644364    0.279634
     36         16           0       -3.722032   -1.724905   -0.122038
     37          6           0       -5.530380   -1.528086   -0.162152
     38          1           0       -5.928303   -2.530973   -0.243590
     39          1           0       -5.802457   -1.002363   -1.068852
     40          6           0       -6.107669   -0.845022    1.075912
     41          1           0       -5.857018   -1.419772    1.957862
     42          1           0       -5.689825    0.143142    1.214028
     43         16           0       -7.924337   -0.740110    1.065628
     44          6           0       -8.245561    0.654916   -0.059873
     45          1           0       -7.710098    0.501317   -0.989012
     46          1           0       -9.300655    0.575179   -0.292885
     47          6           0       -7.942506    2.032184    0.522894
     48          1           0       -6.890955    2.147788    0.761436
     49          1           0       -8.202800    2.804620   -0.195300
     50          1           0       -8.511905    2.201980    1.429059
 ---------------------------------------------------------------------
 Stoichiometry    C14H30O3S3
 Framework group  C1[X(C14H30O3S3)]
                         Standard orientation:                         
 ---------------------------------------------------------------------
 Center     Atomic      Atomic             Coordinates (Angstroms)
 Number     Number       Type             X           Y           Z
 ---------------------------------------------------------------------
      1          6           0        8.663849    1.353441    2.094696
      2          1           0        9.039061    1.998590    1.308379
      3          1           0        7.674897    1.698142    2.374991
      4          1           0        9.317652    1.442835    2.956622
      5          6           0        8.608425   -0.084466    1.617898
      6          1           0        9.604298   -0.434894    1.348383
      7          1           0        8.239003   -0.735273    2.409188
      8          8           0        7.762061   -0.154841    0.506947
      9          6           0        7.628877   -1.429705   -0.043765
     10          1           0        7.267674   -2.134894    0.702395
     11          1           0        8.595757   -1.786348   -0.401330
     12          6           0        6.658350   -1.392222   -1.207702
     13          1           0        6.943248   -0.595122   -1.889950
     14          1           0        6.728893   -2.333758   -1.740723
     15          8           0        5.322744   -1.262062   -0.821388
     16          6           0        4.845296    0.035673   -0.596950
     17          1           0        5.070057    0.679060   -1.444174
     18          1           0        5.289370    0.476702    0.285180
     19          6           0        3.344349   -0.073648   -0.425880
     20          1           0        3.117301   -0.723642    0.415990
     21          1           0        2.910394   -0.519545   -1.316744
     22          8           0        2.851897    1.215858   -0.199549
     23          6           0        1.479291    1.321945    0.038641
     24          1           0        1.329484    2.224160    0.616340
     25          1           0        1.132367    0.483982    0.638010
     26          6           0        0.691000    1.423048   -1.265497
     27          1           0        0.844788    0.552944   -1.891899
     28          1           0        1.038899    2.284833   -1.820961
     29         16           0       -1.092122    1.669852   -1.023458
     30          6           0       -1.645513   -0.024170   -0.647426
     31          1           0       -1.341665   -0.683226   -1.450987
     32          1           0       -1.188186   -0.370467    0.270018
     33          6           0       -3.165355   -0.034949   -0.507189
     34          1           0       -3.625452    0.287979   -1.432946
     35          1           0       -3.466310    0.644364    0.279634
     36         16           0       -3.722032   -1.724905   -0.122038
     37          6           0       -5.530380   -1.528086   -0.162152
     38          1           0       -5.928303   -2.530973   -0.243590
     39          1           0       -5.802457   -1.002363   -1.068852
     40          6           0       -6.107669   -0.845022    1.075912
     41          1           0       -5.857018   -1.419772    1.957862
     42          1           0       -5.689825    0.143142    1.214028
     43         16           0       -7.924337   -0.740110    1.065628
     44          6           0       -8.245561    0.654916   -0.059873
     45          1           0       -7.710098    0.501317   -0.989012
     46          1           0       -9.300655    0.575179   -0.292885
     47          6           0       -7.942506    2.032184    0.522894
     48          1           0       -6.890955    2.147788    0.761436
     49          1           0       -8.202800    2.804620   -0.195300
     50          1           0       -8.511905    2.201980    1.429059
 ---------------------------------------------------------------------
 Standard basis: 6-31G(d) (6D, 7F)
   372 basis functions,   752 primitive gaussians,   372 cartesian basis functions
    93 alpha electrons       93 beta electrons
 Requested convergence on RMS density matrix=1.00D-08 within  64 cycles.
 Requested convergence on MAX density matrix=1.00D-06.
 Requested convergence on             energy=1.00D-06.
 SCF Done:  E(RHF) =  -1964.69671965     A.U. after   13 cycles
            NFock= 13  Conv=0.47D-08     -V/T= 2.0006
 Mulliken charges:
     1  C   -0.490449
     2  H    0.174304
     3  H    0.175635
     4  H    0.157999
     5  C    0.023124
     6  H    0.137612
     7  H    0.141180
     8  O   -0.625101
     9  C    0.009953
    10  H    0.152127
    11  H    0.135120
    12  C    0.002772
    13  H    0.156396
    14  H    0.169504
    15  O   -0.647332
    16  C    0.013480
    17  H    0.149229
    18  H    0.182445
    19  C    0.007582
    20  H    0.153312
    21  H    0.146930
    22  O   -0.640791
    23  C    0.028149
    24  H    0.187412
    25  H    0.145930
    26  C   -0.505186
    27  H    0.195366
    28  H    0.214075
    29  S    0.116890
    30  C   -0.478231
    31  H    0.206696
    32  H    0.206290
    33  C   -0.479586
    34  H    0.203757
    35  H    0.203800
    36  S    0.127170
    37  C   -0.476713
    38  H    0.219012
    39  H    0.194562
    40  C   -0.476915
    41  H    0.216921
    42  H    0.197145
    43  S    0.115557
    44  C   -0.476297
    45  H    0.187865
    46  H    0.201811
    47  C   -0.474021
    48  H    0.162808
    49  H    0.168652
    50  H    0.182052
 Sum of Mulliken charges =  -0.00000
 Dipole moment (field-independent basis, Debye):
    X=              2.0490    Y=              0.1715    Z=             -0.5695  Tot=              2.1336
 Quadrupole moment (field-independent basis, Debye-Ang):
   XX=           -128.5446   YY=           -155.2987   ZZ=           -147.9807
   XY=            -17.4885   XZ=             11.5956   YZ=              1.0795
 Traceless Quadrupole moment (field-independent basis, Debye-Ang):
   XX=             15.3968   YY=            -11.3574   ZZ=             -4.0394
   XY=            -17.4885   XZ=             11.5956   YZ=              1.0795
 Octapole moment (field-independent basis, Debye-Ang**2):
  XXX=            360.2603  YYY=             -2.6028  ZZZ=             -1.7193  XYY=             38.7358
  XXY=             31.6620  XXZ=            -49.7530  XZZ=             66.7109  YZZ=             -1.6849
  YYZ=              3.2260  XYZ=             -1.7904
 Hexadecapole moment (field-independent basis, Debye-Ang**3):
 XXXX=         -27926.0986 YYYY=          -1570.9399 ZZZZ=          -1016.5203 XXXY=          -1316.9080
 XXXZ=           1080.0186 YYYX=            -29.6847 YYYZ=             -6.4722 ZZZX=             45.9533
 ZZZY=              6.8205 XXYY=          -5221.1377 XXZZ=          -5086.4752 YYZZ=           -431.3509
 XXYZ=             75.3578 YYXZ=            -31.6767 ZZXY=             -7.8068
 Step number   1 out of a maximum of   55
     Eigenvalues ---    0.00230   0.00230   0.00230   0.00230   0.00230
     Eigenvalues ---    0.00230   0.00405   0.00406   0.00418   0.00424
     Eigenvalues ---    0.00555   0.00555   0.00573   0.01680   0.01708
     Eigenvalues ---    0.01713   0.01729   0.01739   0.01757   0.04330
     Eigenvalues ---    0.04438   0.04468   0.04469   0.04862   0.04953
     Eigenvalues ---    0.05050   0.05063   0.05275   0.05347   0.05489
     Eigenvalues ---    0.05523   0.05587   0.05623   0.05635   0.05657
     Eigenvalues ---    0.05662   0.05688   0.05741   0.05757   0.05823
     Eigenvalues ---    0.05830   0.05854   0.05933   0.06052   0.06085
     Eigenvalues ---    0.06112   0.06114   0.10930   0.10941   0.11045
     Eigenvalues ---    0.11098   0.11370   0.11373   0.11582   0.11584
     Eigenvalues ---    0.11652   0.11688   0.11753   0.11832   0.13574
     Eigenvalues ---    0.13582   0.13585   0.13636   0.13746   0.13823
     Eigenvalues ---    0.13948   0.13951   0.13956   0.13977   0.14050
     Eigenvalues ---    0.14091   0.16000   0.16000   0.16000   0.16000
     Eigenvalues ---    0.16000   0.16000   0.21960   0.21962   0.21971
     Eigenvalues ---    0.22009   0.22014   0.22018   0.22025   0.22027
     Eigenvalues ---    0.22030   0.22031   0.22039   0.22101   0.24504
     Eigenvalues ---    0.24530   0.24567   0.24623   0.24641   0.24872
     Eigenvalues ---    0.25000   0.25000   0.25000   0.25000   0.25000
     Eigenvalues ---    0.25000   0.29674   0.29682   0.29764   0.29807
     Eigenvalues ---    0.30761   0.30764   0.30891   0.34717   0.34860
     Eigenvalues ---    0.34916   0.35004   0.35096   0.35125   0.35139
     Eigenvalues ---    0.35150   0.35204   0.35235   0.35335   0.35462
     Eigenvalues ---    0.35487   0.35496   0.35502   0.35563   0.35580
     Eigenvalues ---    0.35594   0.35622   0.35628   0.35655   0.35662
     Eigenvalues ---    0.35670   0.35731   0.35739   0.35751   0.35752
     Eigenvalues ---    0.35784   0.35786   0.35802   0.45476   0.45825
     Eigenvalues ---    0.45888   0.46096   0.46217   0.46443
 Maximum Force            0.000003     0.000015     YES
 RMS     Force            0.000001     0.000010     YES
 Maximum Displacement     0.001534     0.000060     NO 
 RMS     Displacement     0.000345     0.000040     NO 
                          Input orientation:                          
 ---------------------------------------------------------------------
 Center     Atomic      Atomic             Coordinates (Angstroms)
 Number     Number       Type             X           Y           Z
 ---------------------------------------------------------------------
      1          6           0        8.663842    1.353692    2.094605
      2          1           0        9.039078    1.998726    1.308207
      3          1           0        7.674891    1.698447    2.374834
      4          1           0        9.317630    1.443194    2.956530
      5          6           0        8.608407   -0.084279    1.618003
      6          1           0        9.604279   -0.434760    1.348556
      7          1           0        8.238961   -0.734974    2.409374
      8          8           0        7.762065   -0.154800    0.507047
      9          6           0        7.628870   -1.429737   -0.043488
     10          1           0        7.267652   -2.134811    0.702773
     11          1           0        8.595749   -1.786446   -0.400989
     12          6           0        6.658354   -1.392405   -1.207438
     13          1           0        6.943271   -0.595408   -1.889797
     14          1           0        6.728886   -2.334017   -1.740324
     15          8           0        5.322747   -1.262179   -0.821155
     16          6           0        4.845304    0.035589   -0.596901
     17          1           0        5.070076    0.678857   -1.444212
     18          1           0        5.289378    0.476738    0.285166
     19          6           0        3.344354   -0.073688   -0.425820
     20          1           0        3.117291   -0.723572    0.416129
     21          1           0        2.910398   -0.519696   -1.316627
     22          8           0        2.851907    1.215850   -0.199661
     23          6           0        1.479300    1.321984    0.038490
     24          1           0        1.329494    2.224284    0.616053
     25          1           0        1.132358    0.484114    0.637976
     26          6           0        0.691024    1.422916   -1.265672
     27          1           0        0.844816    0.552730   -1.891958
     28          1           0        1.038934    2.284625   -1.821246
     29         16           0       -1.092099    1.669761   -1.023696
     30          6           0       -1.645575   -0.024277   -0.647868
     31          1           0       -1.341788   -0.683248   -1.451520
     32          1           0       -1.188239   -0.370718    0.269517
     33          6           0       -3.165416   -0.034993   -0.507595
     34          1           0       -3.625514    0.288113   -1.433288
     35          1           0       -3.466312    0.644212    0.279342
     36         16           0       -3.722192   -1.724980   -0.122722
     37          6           0       -5.530532   -1.528013   -0.162563
     38          1           0       -5.928541   -2.530849   -0.244204
     39          1           0       -5.802682   -1.002047   -1.069099
     40          6           0       -6.107624   -0.845217    1.075741
     41          1           0       -5.856904   -1.420205    1.957514
     42          1           0       -5.689695    0.142881    1.214057
     43         16           0       -7.924286   -0.740178    1.065692
     44          6           0       -8.245548    0.655095   -0.059493
     45          1           0       -7.710214    0.501643   -0.988729
     46          1           0       -9.300675    0.575486   -0.292391
     47          6           0       -7.942323    2.032224    0.523515
     48          1           0       -6.890734    2.147711    0.761942
     49          1           0       -8.202659    2.804822   -0.194488
     50          1           0       -8.511590    2.201876    1.429789
 ---------------------------------------------------------------------
 Stoichiometry    C14H30O3S3
 Framework group  C1[X(C14H30O3S3)]
                         Standard orientation:                         
 ---------------------------------------------------------------------
 Center     Atomic      Atomic             Coordinates (Angstroms)
 Number     Number       Type             X           Y           Z
 ---------------------------------------------------------------------
      1          6           0        8.663875    1.354181    2.094255
      2          1           0        9.039107    1.999022    1.307697
      3          1           0        7.674929    1.699009    2.374410
      4          1           0        9.317672    1.443890    2.956152
      5          6           0        8.608429   -0.083906    1.618005
      6          1           0        9.604296   -0.434458    1.348634
      7          1           0        8.238987   -0.734405    2.409538
      8          8           0        7.762075   -0.154693    0.507074
      9          6           0        7.628869   -1.429764   -0.043148
     10          1           0        7.267654   -2.134654    0.703288
     11          1           0        8.595743   -1.786565   -0.400571
     12          6           0        6.658342   -1.392711   -1.207098
     13          1           0        6.943257   -0.595882   -1.889655
     14          1           0        6.728864   -2.334453   -1.739755
     15          8           0        5.322739   -1.262383   -0.820834
     16          6           0        4.845305    0.035441   -0.596893
     17          1           0        5.070072    0.678501   -1.444363
     18          1           0        5.289390    0.476804    0.285063
     19          6           0        3.344356   -0.073786   -0.425771
     20          1           0        3.117298   -0.723463    0.416339
     21          1           0        2.910390   -0.520009   -1.316465
     22          8           0        2.851918    1.215810   -0.199922
     23          6           0        1.479314    1.322009    0.038216
     24          1           0        1.329518    2.224450    0.615561
     25          1           0        1.132373    0.484287    0.637910
     26          6           0        0.691026    1.422627   -1.265963
     27          1           0        0.844807    0.552287   -1.892038
     28          1           0        1.038936    2.284198   -1.821750
     29         16           0       -1.092093    1.669540   -1.024030
     30          6           0       -1.645574   -0.024404   -0.647783
     31          1           0       -1.341799   -0.683572   -1.451277
     32          1           0       -1.188231   -0.370623    0.269682
     33          6           0       -3.165414   -0.035077   -0.507493
     34          1           0       -3.625520    0.287805   -1.433260
     35          1           0       -3.466299    0.644322    0.279281
     36         16           0       -3.722195   -1.724967   -0.122202
     37          6           0       -5.530534   -1.528001   -0.162074
     38          1           0       -5.928550   -2.530854   -0.243467
     39          1           0       -5.802691   -1.002254   -1.068736
     40          6           0       -6.107612   -0.844900    1.076069
     41          1           0       -5.856886   -1.419674    1.957980
     42          1           0       -5.689676    0.143230    1.214140
     43         16           0       -7.924273   -0.739854    1.066012
     44          6           0       -8.245538    0.655147   -0.059510
     45          1           0       -7.710214    0.501466   -0.988715
     46          1           0       -9.300668    0.575486   -0.292380
     47          6           0       -7.942301    2.032417    0.523158
     48          1           0       -6.890709    2.147956    0.761547
     49          1           0       -8.202640    2.804841   -0.195031
     50          1           0       -8.511558    2.202293    1.429396
 ---------------------------------------------------------------------
 Standard basis: 6-31G(d) (6D, 7F)
   372 basis functions,   752 primitive gaussians,   372 cartesian basis functions
    93 alpha electrons       93 beta electrons
 Requested convergence on RMS density matrix=1.00D-08 within  64 cycles.
 Requested convergence on MAX density matrix=1.00D-06.
 Requested convergence on             energy=1.00D-06.
 SCF Done:  E(RHF) =  -1964.69671965     A.U. after    6 cycles
            NFock=  6  Conv=0.76D-08     -V/T= 2.0006
 Step number   2 out of a maximum of   55
     Eigenvalues ---    0.00184   0.00230   0.00230   0.00230   0.00230
     Eigenvalues ---    0.00387   0.00405   0.00408   0.00423   0.00503
     Eigenvalues ---    0.00555   0.00556   0.00571   0.01654   0.01683
     Eigenvalues ---    0.01713   0.01718   0.01739   0.01754   0.04322
     Eigenvalues ---    0.04427   0.04468   0.04543   0.04894   0.04950
     Eigenvalues ---    0.05057   0.05079   0.05288   0.05348   0.05489
     Eigenvalues ---    0.05525   0.05588   0.05623   0.05633   0.05655
     Eigenvalues ---    0.05662   0.05696   0.05741   0.05756   0.05824
     Eigenvalues ---    0.05826   0.05866   0.05930   0.06052   0.06077
     Eigenvalues ---    0.06108   0.06118   0.10921   0.10942   0.11052
     Eigenvalues ---    0.11094   0.11352   0.11371   0.11577   0.11593
     Eigenvalues ---    0.11656   0.11700   0.11752   0.11833   0.13479
     Eigenvalues ---    0.13582   0.13592   0.13635   0.13747   0.13817
     Eigenvalues ---    0.13916   0.13951   0.13975   0.14025   0.14075
     Eigenvalues ---    0.14128   0.15976   0.16000   0.16000   0.16000
     Eigenvalues ---    0.16000   0.16003   0.21336   0.21961   0.21966
     Eigenvalues ---    0.21993   0.22010   0.22015   0.22023   0.22027
     Eigenvalues ---    0.22027   0.22031   0.22100   0.23280   0.24434
     Eigenvalues ---    0.24531   0.24571   0.24619   0.24650   0.24764
     Eigenvalues ---    0.24890   0.25000   0.25000   0.25000   0.25000
     Eigenvalues ---    0.27017   0.29656   0.29692   0.29802   0.29811
     Eigenvalues ---    0.30735   0.30763   0.30975   0.34717   0.34837
     Eigenvalues ---    0.34918   0.34996   0.35058   0.35125   0.35131
     Eigenvalues ---    0.35178   0.35214   0.35273   0.35333   0.35376
     Eigenvalues ---    0.35465   0.35491   0.35498   0.35536   0.35564
     Eigenvalues ---    0.35590   0.35609   0.35636   0.35640   0.35656
     Eigenvalues ---    0.35669   0.35708   0.35735   0.35750   0.35766
     Eigenvalues ---    0.35781   0.35793   0.35893   0.45280   0.45702
     Eigenvalues ---    0.45913   0.46047   0.46203   0.46463
 Maximum Force            0.000003     0.000015     YES
 RMS     Force            0.000000     0.000010     YES
 Maximum Displacement     0.000871     0.000060     NO 
 RMS     Displacement     0.000227     0.000040     NO 
                          Input orientation:                          
 ---------------------------------------------------------------------
 Center     Atomic      Atomic             Coordinates (Angstroms)
 Number     Number       Type             X           Y           Z
 ---------------------------------------------------------------------
      1          6           0        8.663599    1.353632    2.094855
      2          1           0        9.038901    1.998688    1.308506
      3          1           0        7.674628    1.698383    2.375015
      4          1           0        9.317319    1.443108    2.956835
      5          6           0        8.608199   -0.084325    1.618209
      6          1           0        9.604090   -0.434802    1.348834
      7          1           0        8.238688   -0.735040    2.409533
      8          8           0        7.761946   -0.154814    0.507184
      9          6           0        7.628789   -1.429736   -0.043394
     10          1           0        7.267515   -2.134827    0.702822
     11          1           0        8.595694   -1.786439   -0.400831
     12          6           0        6.658360   -1.392370   -1.207415
     13          1           0        6.943330   -0.595357   -1.889732
     14          1           0        6.728927   -2.333968   -1.740320
     15          8           0        5.322725   -1.262150   -0.821226
     16          6           0        4.845268    0.035611   -0.596973
     17          1           0        5.070101    0.678901   -1.444251
     18          1           0        5.289281    0.476738    0.285136
     19          6           0        3.344306   -0.073667   -0.426001
     20          1           0        3.117181   -0.723577    0.415911
     21          1           0        2.910412   -0.519646   -1.316852
     22          8           0        2.851846    1.215865   -0.199836
     23          6           0        1.479220    1.321995    0.038207
     24          1           0        1.329369    2.224284    0.615773
     25          1           0        1.132227    0.484116    0.637652
     26          6           0        0.691045    1.422950   -1.266014
     27          1           0        0.844892    0.552779   -1.892306
     28          1           0        1.038987    2.284673   -1.821545
     29         16           0       -1.092099    1.669755   -1.024157
     30          6           0       -1.645518   -0.024262   -0.648151
     31          1           0       -1.341772   -0.683294   -1.451766
     32          1           0       -1.188112   -0.370615    0.269233
     33          6           0       -3.165350   -0.034996   -0.507778
     34          1           0       -3.625514    0.288051   -1.433458
     35          1           0       -3.466208    0.644247    0.279140
     36         16           0       -3.722073   -1.724972   -0.122783
     37          6           0       -5.530419   -1.528029   -0.162470
     38          1           0       -5.928424   -2.530873   -0.244029
     39          1           0       -5.802658   -1.002110   -1.069006
     40          6           0       -6.107410   -0.845184    1.075855
     41          1           0       -5.856600   -1.420128    1.957631
     42          1           0       -5.689482    0.142927    1.214091
     43         16           0       -7.924074   -0.740176    1.065965
     44          6           0       -8.245460    0.655070   -0.059218
     45          1           0       -7.710231    0.501597   -0.988511
     46          1           0       -9.300613    0.575456   -0.291998
     47          6           0       -7.942171    2.032213    0.523723
     48          1           0       -6.890555    2.147709    0.762026
     49          1           0       -8.202594    2.804794   -0.194266
     50          1           0       -8.511333    2.201883    1.430060
 ---------------------------------------------------------------------
 Stoichiometry    C14H30O3S3
 Framework group  C1[X(C14H30O3S3)]
                         Standard orientation:                         
 ---------------------------------------------------------------------
 Center     Atomic      Atomic             Coordinates (Angstroms)
 Number     Number       Type             X           Y           Z
 ---------------------------------------------------------------------
      1          6           0        8.663591    1.353624    2.094944
      2          1           0        9.038895    1.998678    1.308596
      3          1           0        7.674620    1.698378    2.375105
      4          1           0        9.317311    1.443098    2.956925
      5          6           0        8.608186   -0.084333    1.618299
      6          1           0        9.604076   -0.434813    1.348923
      7          1           0        8.238672   -0.735047    2.409622
      8          8           0        7.761933   -0.154819    0.507274
      9          6           0        7.628771   -1.429740   -0.043304
     10          1           0        7.267495   -2.134830    0.702912
     11          1           0        8.595675   -1.786447   -0.400742
     12          6           0        6.658342   -1.392372   -1.207325
     13          1           0        6.943315   -0.595359   -1.889642
     14          1           0        6.728906   -2.333970   -1.740230
     15          8           0        5.322708   -1.262147   -0.821136
     16          6           0        4.845256    0.035616   -0.596883
     17          1           0        5.070091    0.678905   -1.444161
     18          1           0        5.289270    0.476741    0.285226
     19          6           0        3.344293   -0.073656   -0.425911
     20          1           0        3.117166   -0.723566    0.416000
     21          1           0        2.910398   -0.519634   -1.316763
     22          8           0        2.851837    1.215877   -0.199746
     23          6           0        1.479212    1.322011    0.038296
     24          1           0        1.329364    2.224301    0.615863
     25          1           0        1.132216    0.484134    0.637742
     26          6           0        0.691037    1.422969   -1.265925
     27          1           0        0.844881    0.552797   -1.892217
     28          1           0        1.038982    2.284691   -1.821455
     29         16           0       -1.092106    1.669780   -1.024067
     30          6           0       -1.645531   -0.024234   -0.648061
     31          1           0       -1.341787   -0.683268   -1.451677
     32          1           0       -1.188127   -0.370590    0.269322
     33          6           0       -3.165363   -0.034963   -0.507688
     34          1           0       -3.625526    0.288085   -1.433369
     35          1           0       -3.466218    0.644280    0.279230
     36         16           0       -3.722092   -1.724938   -0.122693
     37          6           0       -5.530437   -1.527989   -0.162380
     38          1           0       -5.928446   -2.530831   -0.243939
     39          1           0       -5.802674   -1.002068   -1.068916
     40          6           0       -6.107425   -0.845141    1.075945
     41          1           0       -5.856618   -1.420087    1.957720
     42          1           0       -5.689494    0.142968    1.214180
     43         16           0       -7.924090   -0.740128    1.066055
     44          6           0       -8.245471    0.655120   -0.059129
     45          1           0       -7.710242    0.501645   -0.988421
     46          1           0       -9.300624    0.575510   -0.291908
     47          6           0       -7.942177    2.032262    0.523813
     48          1           0       -6.890561    2.147754    0.762115
     49          1           0       -8.202597    2.804843   -0.194176
     50          1           0       -8.511338    2.201934    1.430150
 ---------------------------------------------------------------------
 Standard basis: 6-31G(d) (6D, 7F)
   372 basis functions,   752 primitive gaussians,   372 cartesian basis functions
    93 alpha electrons       93 beta electrons
 Requested convergence on RMS density matrix=1.00D-08 within  64 cycles.
 Requested convergence on MAX density matrix=1.00D-06.
 Requested convergence on             energy=1.00D-06.
 SCF Done:  E(RHF) =  -1964.69671965     A.U. after    5 cycles
            NFock=  5  Conv=0.96D-08     -V/T= 2.0006
 Step number   3 out of a maximum of   55
     Eigenvalues ---    0.00198   0.00230   0.00230   0.00230   0.00252
     Eigenvalues ---    0.00354   0.00405   0.00407   0.00423   0.00555
     Eigenvalues ---    0.00555   0.00570   0.00645   0.01545   0.01682
     Eigenvalues ---    0.01713   0.01716   0.01739   0.01754   0.04316
     Eigenvalues ---    0.04437   0.04466   0.04884   0.04926   0.04959
     Eigenvalues ---    0.05055   0.05131   0.05317   0.05351   0.05491
     Eigenvalues ---    0.05539   0.05585   0.05631   0.05651   0.05662
     Eigenvalues ---    0.05690   0.05696   0.05742   0.05756   0.05824
     Eigenvalues ---    0.05851   0.05864   0.05926   0.06053   0.06090
     Eigenvalues ---    0.06108   0.06153   0.10941   0.10965   0.11055
     Eigenvalues ---    0.11132   0.11370   0.11488   0.11587   0.11594
     Eigenvalues ---    0.11655   0.11730   0.11770   0.11835   0.13561
     Eigenvalues ---    0.13586   0.13591   0.13636   0.13747   0.13832
     Eigenvalues ---    0.13900   0.13968   0.14000   0.14043   0.14077
     Eigenvalues ---    0.14217   0.15973   0.16000   0.16000   0.16000
     Eigenvalues ---    0.16000   0.16023   0.21533   0.21962   0.21966
     Eigenvalues ---    0.22000   0.22010   0.22020   0.22024   0.22027
     Eigenvalues ---    0.22029   0.22100   0.22694   0.23240   0.24437
     Eigenvalues ---    0.24531   0.24566   0.24616   0.24674   0.24883
     Eigenvalues ---    0.24893   0.25000   0.25000   0.25000   0.25132
     Eigenvalues ---    0.27465   0.29655   0.29709   0.29806   0.30012
     Eigenvalues ---    0.30727   0.30763   0.31055   0.34720   0.34880
     Eigenvalues ---    0.34912   0.35013   0.35109   0.35127   0.35150
     Eigenvalues ---    0.35191   0.35220   0.35278   0.35337   0.35465
     Eigenvalues ---    0.35491   0.35497   0.35522   0.35564   0.35587
     Eigenvalues ---    0.35591   0.35621   0.35637   0.35656   0.35665
     Eigenvalues ---    0.35703   0.35729   0.35750   0.35760   0.35780
     Eigenvalues ---    0.35789   0.35826   0.37398   0.44893   0.45694
     Eigenvalues ---    0.45956   0.46043   0.46232   0.46709
 Maximum Force            0.000002     0.000015     YES
 RMS     Force            0.000000     0.000010     YES
 Maximum Displacement     0.000485     0.000060     NO 
 RMS     Displacement     0.000126     0.000040     NO 
                          Input orientation:                          
 ---------------------------------------------------------------------
 Center     Atomic      Atomic             Coordinates (Angstroms)
 Number     Number       Type             X           Y           Z
 ---------------------------------------------------------------------
      1          6           0        8.663702    1.353617    2.094738
      2          1           0        9.038979    1.998669    1.308374
      3          1           0        7.674742    1.698375    2.374933
      4          1           0        9.317453    1.443092    2.956695
      5          6           0        8.608276   -0.084341    1.618099
      6          1           0        9.604157   -0.434824    1.348689
      7          1           0        8.238790   -0.735051    2.409438
      8          8           0        7.761984   -0.154827    0.507104
      9          6           0        7.628798   -1.429750   -0.043466
     10          1           0        7.267547   -2.134840    0.702764
     11          1           0        8.595687   -1.786459   -0.400940
     12          6           0        6.658326   -1.392381   -1.207451
     13          1           0        6.943276   -0.595369   -1.889779
     14          1           0        6.728870   -2.333980   -1.740358
     15          8           0        5.322707   -1.262150   -0.821214
     16          6           0        4.845270    0.035616   -0.596945
     17          1           0        5.070076    0.678903   -1.444233
     18          1           0        5.289318    0.476742    0.285148
     19          6           0        3.344314   -0.073653   -0.425920
     20          1           0        3.117216   -0.723561    0.416002
     21          1           0        2.910385   -0.519631   -1.316755
     22          8           0        2.851874    1.215882   -0.199738
     23          6           0        1.479257    1.322023    0.038350
     24          1           0        1.329431    2.224318    0.615916
     25          1           0        1.132280    0.484150    0.637812
     26          6           0        0.691039    1.422973   -1.265845
     27          1           0        0.844862    0.552799   -1.892139
     28          1           0        1.038966    2.284693   -1.821391
     29         16           0       -1.092097    1.669789   -1.023928
     30          6           0       -1.645518   -0.024236   -0.647963
     31          1           0       -1.341757   -0.683253   -1.451586
     32          1           0       -1.188129   -0.370605    0.269422
     33          6           0       -3.165352   -0.034974   -0.507613
     34          1           0       -3.625503    0.288101   -1.433292
     35          1           0       -3.466221    0.644245    0.279321
     36         16           0       -3.722076   -1.724962   -0.122673
     37          6           0       -5.530420   -1.528033   -0.162467
     38          1           0       -5.928412   -2.530881   -0.244043
     39          1           0       -5.802610   -1.002120   -1.069022
     40          6           0       -6.107486   -0.845184    1.075821
     41          1           0       -5.856725   -1.420121    1.957615
     42          1           0       -5.689572    0.142931    1.214073
     43         16           0       -7.924151   -0.740188    1.065827
     44          6           0       -8.245483    0.655036   -0.059399
     45          1           0       -7.710181    0.501562   -0.988650
     46          1           0       -9.300617    0.575395   -0.292254
     47          6           0       -7.942268    2.032194    0.523546
     48          1           0       -6.890672    2.147718    0.761923
     49          1           0       -8.202657    2.804759   -0.194473
     50          1           0       -8.511499    2.201863    1.429839
 ---------------------------------------------------------------------
 Stoichiometry    C14H30O3S3
 Framework group  C1[X(C14H30O3S3)]
                         Standard orientation:                         
 ---------------------------------------------------------------------
 Center     Atomic      Atomic             Coordinates (Angstroms)
 Number     Number       Type             X           Y           Z
 ---------------------------------------------------------------------
      1          6           0        8.663699    1.353604    2.094809
      2          1           0        9.038979    1.998653    1.308445
      3          1           0        7.674740    1.698364    2.375004
      4          1           0        9.317450    1.443076    2.956766
      5          6           0        8.608267   -0.084354    1.618170
      6          1           0        9.604147   -0.434841    1.348760
      7          1           0        8.238779   -0.735063    2.409509
      8          8           0        7.761975   -0.154837    0.507175
      9          6           0        7.628784   -1.429760   -0.043395
     10          1           0        7.267530   -2.134849    0.702835
     11          1           0        8.595672   -1.786472   -0.400869
     12          6           0        6.658313   -1.392387   -1.207380
     13          1           0        6.943266   -0.595376   -1.889708
     14          1           0        6.728853   -2.333986   -1.740287
     15          8           0        5.322694   -1.262151   -0.821143
     16          6           0        4.845262    0.035616   -0.596874
     17          1           0        5.070070    0.678902   -1.444162
     18          1           0        5.289311    0.476740    0.285219
     19          6           0        3.344305   -0.073647   -0.425849
     20          1           0        3.117205   -0.723554    0.416073
     21          1           0        2.910374   -0.519623   -1.316684
     22          8           0        2.851870    1.215890   -0.199667
     23          6           0        1.479254    1.322036    0.038421
     24          1           0        1.329431    2.224331    0.615987
     25          1           0        1.132273    0.484165    0.637883
     26          6           0        0.691036    1.422989   -1.265774
     27          1           0        0.844855    0.552814   -1.892068
     28          1           0        1.038966    2.284708   -1.821320
     29         16           0       -1.092099    1.669811   -1.023857
     30          6           0       -1.645527   -0.024211   -0.647892
     31          1           0       -1.341768   -0.683230   -1.451515
     32          1           0       -1.188139   -0.370582    0.269493
     33          6           0       -3.165360   -0.034943   -0.507542
     34          1           0       -3.625510    0.288133   -1.433221
     35          1           0       -3.466227    0.644276    0.279392
     36         16           0       -3.722091   -1.724929   -0.122602
     37          6           0       -5.530434   -1.527994   -0.162396
     38          1           0       -5.928430   -2.530840   -0.243972
     39          1           0       -5.802622   -1.002080   -1.068951
     40          6           0       -6.107498   -0.845142    1.075892
     41          1           0       -5.856739   -1.420080    1.957686
     42          1           0       -5.689580    0.142971    1.214144
     43         16           0       -7.924162   -0.740140    1.065898
     44          6           0       -8.245489    0.655086   -0.059328
     45          1           0       -7.710187    0.501610   -0.988579
     46          1           0       -9.300623    0.575448   -0.292183
     47          6           0       -7.942269    2.032243    0.523617
     48          1           0       -6.890672    2.147763    0.761994
     49          1           0       -8.202655    2.804809   -0.194402
     50          1           0       -8.511500    2.201914    1.429910
 ---------------------------------------------------------------------
 Standard basis: 6-31G(d) (6D, 7F)
   372 basis functions,   752 primitive gaussians,   372 cartesian basis functions
    93 alpha electrons       93 beta electrons
 Requested convergence on RMS density matrix=1.00D-08 within  64 cycles.
 Requested convergence on MAX density matrix=1.00D-06.
 Requested convergence on             energy=1.00D-06.
 SCF Done:  E(RHF) =  -1964.69671965     A.U. after    5 cycles
            NFock=  5  Conv=0.77D-08     -V/T= 2.0006
 Step number   4 out of a maximum of   55
     Eigenvalues ---    0.00187   0.00230   0.00230   0.00230   0.00265
     Eigenvalues ---    0.00401   0.00407   0.00422   0.00440   0.00555
     Eigenvalues ---    0.00555   0.00569   0.00663   0.01430   0.01681
     Eigenvalues ---    0.01713   0.01716   0.01741   0.01754   0.04371
     Eigenvalues ---    0.04438   0.04472   0.04872   0.04919   0.04994
     Eigenvalues ---    0.05032   0.05082   0.05297   0.05347   0.05492
     Eigenvalues ---    0.05523   0.05590   0.05629   0.05641   0.05659
     Eigenvalues ---    0.05662   0.05695   0.05741   0.05756   0.05825
     Eigenvalues ---    0.05846   0.05866   0.05932   0.06051   0.06090
     Eigenvalues ---    0.06110   0.06131   0.10939   0.10959   0.11054
     Eigenvalues ---    0.11108   0.11369   0.11419   0.11584   0.11595
     Eigenvalues ---    0.11657   0.11721   0.11756   0.11834   0.13576
     Eigenvalues ---    0.13582   0.13596   0.13637   0.13747   0.13828
     Eigenvalues ---    0.13860   0.13958   0.14026   0.14035   0.14083
     Eigenvalues ---    0.14157   0.15996   0.16000   0.16000   0.16000
     Eigenvalues ---    0.16002   0.16023   0.21411   0.21961   0.21966
     Eigenvalues ---    0.21994   0.22010   0.22018   0.22023   0.22026
     Eigenvalues ---    0.22030   0.22099   0.22990   0.23136   0.24509
     Eigenvalues ---    0.24527   0.24586   0.24618   0.24667   0.24835
     Eigenvalues ---    0.24938   0.25000   0.25000   0.25000   0.25128
     Eigenvalues ---    0.27568   0.29661   0.29688   0.29805   0.29936
     Eigenvalues ---    0.30762   0.30785   0.31272   0.34716   0.34863
     Eigenvalues ---    0.34915   0.35008   0.35095   0.35119   0.35138
     Eigenvalues ---    0.35198   0.35233   0.35254   0.35335   0.35464
     Eigenvalues ---    0.35491   0.35496   0.35510   0.35564   0.35583
     Eigenvalues ---    0.35593   0.35614   0.35634   0.35657   0.35670
     Eigenvalues ---    0.35702   0.35731   0.35747   0.35752   0.35779
     Eigenvalues ---    0.35790   0.35844   0.35943   0.45417   0.45771
     Eigenvalues ---    0.45949   0.46103   0.46241   0.46530
 Maximum Force            0.000001     0.000015     YES
 RMS     Force            0.000000     0.000010     YES
 Maximum Displacement     0.000684     0.000060     NO 
 RMS     Displacement     0.000151     0.000040     NO 
                          Input orientation:                          
 ---------------------------------------------------------------------
 Center     Atomic      Atomic             Coordinates (Angstroms)
 Number     Number       Type             X           Y           Z
 ---------------------------------------------------------------------
      1          6           0        8.663615    1.353687    2.094795
      2          1           0        9.038914    1.998715    1.308422
      3          1           0        7.674646    1.698451    2.374951
      4          1           0        9.317340    1.443188    2.956768
      5          6           0        8.608204   -0.084286    1.618197
      6          1           0        9.604093   -0.434776    1.348828
      7          1           0        8.238695   -0.734972    2.409547
      8          8           0        7.761944   -0.154806    0.507180
      9          6           0        7.628774   -1.429747   -0.043354
     10          1           0        7.267504   -2.134816    0.702886
     11          1           0        8.595672   -1.786464   -0.400794
     12          6           0        6.658332   -1.392414   -1.207366
     13          1           0        6.943298   -0.595421   -1.889710
     14          1           0        6.728892   -2.334028   -1.740244
     15          8           0        5.322702   -1.262172   -0.821168
     16          6           0        4.845258    0.035599   -0.596951
     17          1           0        5.070084    0.678860   -1.444254
     18          1           0        5.289282    0.476754    0.285140
     19          6           0        3.344298   -0.073669   -0.425961
     20          1           0        3.117182   -0.723553    0.415974
     21          1           0        2.910392   -0.519674   -1.316795
     22          8           0        2.851852    1.215872   -0.199828
     23          6           0        1.479227    1.322019    0.038212
     24          1           0        1.329382    2.224336    0.615740
     25          1           0        1.132233    0.484168    0.637697
     26          6           0        0.691047    1.422918   -1.266011
     27          1           0        0.844891    0.552722   -1.892270
     28          1           0        1.038988    2.284619   -1.821577
     29         16           0       -1.092097    1.669736   -1.024151
     30          6           0       -1.645526   -0.024285   -0.648179
     31          1           0       -1.341779   -0.683306   -1.451805
     32          1           0       -1.188129   -0.370656    0.269201
     33          6           0       -3.165357   -0.035011   -0.507808
     34          1           0       -3.625520    0.288077   -1.433476
     35          1           0       -3.466207    0.644201    0.279139
     36         16           0       -3.722087   -1.724998   -0.122872
     37          6           0       -5.530430   -1.528035   -0.162565
     38          1           0       -5.928444   -2.530871   -0.244169
     39          1           0       -5.802655   -1.002071   -1.069080
     40          6           0       -6.107419   -0.845236    1.075786
     41          1           0       -5.856626   -1.420223    1.957540
     42          1           0       -5.689478    0.142863    1.214067
     43         16           0       -7.924082   -0.740202    1.065892
     44          6           0       -8.245441    0.655123   -0.059201
     45          1           0       -7.710209    0.501701   -0.988502
     46          1           0       -9.300595    0.575538   -0.291989
     47          6           0       -7.942132    2.032224    0.523828
     48          1           0       -6.890514    2.147690    0.762139
     49          1           0       -8.202543    2.804856   -0.194112
     50          1           0       -8.511293    2.201844    1.430176
 ---------------------------------------------------------------------
 Stoichiometry    C14H30O3S3
 Framework group  C1[X(C14H30O3S3)]
                         Standard orientation:                         
 ---------------------------------------------------------------------
 Center     Atomic      Atomic             Coordinates (Angstroms)
 Number     Number       Type             X           Y           Z
 ---------------------------------------------------------------------
      1          6           0        8.663611    1.353671    2.094895
      2          1           0        9.038914    1.998697    1.308522
      3          1           0        7.674644    1.698440    2.375051
      4          1           0        9.317337    1.443169    2.956868
      5          6           0        8.608193   -0.084302    1.618298
      6          1           0        9.604081   -0.434796    1.348929
      7          1           0        8.238681   -0.734986    2.409647
      8          8           0        7.761933   -0.154817    0.507280
      9          6           0        7.628756   -1.429757   -0.043254
     10          1           0        7.267483   -2.134825    0.702986
     11          1           0        8.595653   -1.786480   -0.400693
     12          6           0        6.658315   -1.392420   -1.207266
     13          1           0        6.943284   -0.595428   -1.889610
     14          1           0        6.728870   -2.334034   -1.740144
     15          8           0        5.322685   -1.262172   -0.821068
     16          6           0        4.845248    0.035603   -0.596851
     17          1           0        5.070077    0.678863   -1.444154
     18          1           0        5.289274    0.476755    0.285240
     19          6           0        3.344287   -0.073658   -0.425861
     20          1           0        3.117168   -0.723541    0.416074
     21          1           0        2.910379   -0.519661   -1.316695
     22          8           0        2.851847    1.215886   -0.199727
     23          6           0        1.479224    1.322039    0.038313
     24          1           0        1.329383    2.224357    0.615840
     25          1           0        1.132226    0.484190    0.637797
     26          6           0        0.691044    1.422942   -1.265910
     27          1           0        0.844884    0.552746   -1.892170
     28          1           0        1.038989    2.284642   -1.821476
     29         16           0       -1.092098    1.669769   -1.024051
     30          6           0       -1.645536   -0.024249   -0.648079
     31          1           0       -1.341792   -0.683271   -1.451705
     32          1           0       -1.188141   -0.370622    0.269302
     33          6           0       -3.165368   -0.034967   -0.507708
     34          1           0       -3.625529    0.288123   -1.433376
     35          1           0       -3.466214    0.644247    0.279239
     36         16           0       -3.722106   -1.724951   -0.122772
     37          6           0       -5.530448   -1.527979   -0.162464
     38          1           0       -5.928467   -2.530813   -0.244069
     39          1           0       -5.802671   -1.002014   -1.068980
     40          6           0       -6.107434   -0.845177    1.075887
     41          1           0       -5.856644   -1.420165    1.957640
     42          1           0       -5.689488    0.142920    1.214167
     43         16           0       -7.924096   -0.740133    1.065992
     44          6           0       -8.245448    0.655193   -0.059101
     45          1           0       -7.710217    0.501768   -0.988401
     46          1           0       -9.300602    0.575614   -0.291888
     47          6           0       -7.942132    2.032292    0.523929
     48          1           0       -6.890513    2.147753    0.762240
     49          1           0       -8.202539    2.804925   -0.194011
     50          1           0       -8.511292    2.201915    1.430276
 ---------------------------------------------------------------------
 Standard basis: 6-31G(d) (6D, 7F)
   372 basis functions,   752 primitive gaussians,   372 cartesian basis functions
    93 alpha electrons       93 beta electrons
 Requested convergence on RMS density matrix=1.00D-08 within  64 cycles.
 Requested convergence on MAX density matrix=1.00D-06.
 Requested convergence on             energy=1.00D-06.
 SCF Done:  E(RHF) =  -1964.69671965     A.U. after    5 cycles
            NFock=  5  Conv=0.98D-08     -V/T= 2.0006
 Step number   5 out of a maximum of   55
     Eigenvalues ---    0.00146   0.00230   0.00230   0.00237   0.00368
     Eigenvalues ---    0.00406   0.00408   0.00423   0.00551   0.00555
     Eigenvalues ---    0.00561   0.00584   0.00664   0.01274   0.01682
     Eigenvalues ---    0.01713   0.01717   0.01744   0.01754   0.04405
     Eigenvalues ---    0.04442   0.04524   0.04906   0.04946   0.04982
     Eigenvalues ---    0.05080   0.05153   0.05332   0.05361   0.05493
     Eigenvalues ---    0.05531   0.05594   0.05634   0.05650   0.05662
     Eigenvalues ---    0.05696   0.05735   0.05752   0.05761   0.05824
     Eigenvalues ---    0.05845   0.05870   0.05959   0.06054   0.06091
     Eigenvalues ---    0.06112   0.06171   0.10945   0.10985   0.11062
     Eigenvalues ---    0.11129   0.11371   0.11441   0.11592   0.11601
     Eigenvalues ---    0.11705   0.11741   0.11788   0.11835   0.13537
     Eigenvalues ---    0.13584   0.13613   0.13637   0.13748   0.13839
     Eigenvalues ---    0.13854   0.13955   0.14019   0.14043   0.14087
     Eigenvalues ---    0.14155   0.15998   0.16000   0.16000   0.16000
     Eigenvalues ---    0.16018   0.16041   0.20936   0.21960   0.21966
     Eigenvalues ---    0.22001   0.22011   0.22022   0.22026   0.22029
     Eigenvalues ---    0.22097   0.22866   0.22985   0.23261   0.24519
     Eigenvalues ---    0.24543   0.24596   0.24624   0.24718   0.24777
     Eigenvalues ---    0.24964   0.24999   0.25000   0.25043   0.25301
     Eigenvalues ---    0.28170   0.29676   0.29714   0.29810   0.29996
     Eigenvalues ---    0.30763   0.30799   0.31944   0.34716   0.34857
     Eigenvalues ---    0.34936   0.35018   0.35080   0.35118   0.35139
     Eigenvalues ---    0.35191   0.35239   0.35293   0.35335   0.35473
     Eigenvalues ---    0.35492   0.35497   0.35513   0.35560   0.35571
     Eigenvalues ---    0.35595   0.35616   0.35645   0.35655   0.35672
     Eigenvalues ---    0.35716   0.35732   0.35745   0.35755   0.35782
     Eigenvalues ---    0.35803   0.35849   0.36428   0.45628   0.45875
     Eigenvalues ---    0.45970   0.46196   0.46440   0.47568
 Maximum Force            0.000001     0.000015     YES
 RMS     Force            0.000000     0.000010     YES
 Maximum Displacement     0.000292     0.000060     NO 
 RMS     Displacement     0.000086     0.000040     NO 
                          Input orientation:                          
 ---------------------------------------------------------------------
 Center     Atomic      Atomic             Coordinates (Angstroms)
 Number     Number       Type             X           Y           Z
 ---------------------------------------------------------------------
      1          6           0        8.663562    1.353702    2.094839
      2          1           0        9.038883    1.998716    1.308465
      3          1           0        7.674589    1.698479    2.374968
      4          1           0        9.317269    1.443211    2.956826
      5          6           0        8.608150   -0.084277    1.618261
      6          1           0        9.604044   -0.434778    1.348920
      7          1           0        8.238618   -0.734949    2.409611
      8          8           0        7.761916   -0.154806    0.507225
      9          6           0        7.628746   -1.429755   -0.043292
     10          1           0        7.267459   -2.134810    0.702954
     11          1           0        8.595648   -1.786485   -0.400710
     12          6           0        6.658323   -1.392434   -1.207320
     13          1           0        6.943305   -0.595453   -1.889672
     14          1           0        6.728887   -2.334057   -1.740183
     15          8           0        5.322687   -1.262179   -0.821146
     16          6           0        4.845246    0.035599   -0.596961
     17          1           0        5.070086    0.678843   -1.444272
     18          1           0        5.289259    0.476768    0.285128
     19          6           0        3.344283   -0.073659   -0.425989
     20          1           0        3.117152   -0.723529    0.415954
     21          1           0        2.910387   -0.519677   -1.316821
     22          8           0        2.851838    1.215888   -0.199882
     23          6           0        1.479209    1.322046    0.038124
     24          1           0        1.329355    2.224381    0.615620
     25          1           0        1.132199    0.484215    0.637628
     26          6           0        0.691054    1.422908   -1.266117
     27          1           0        0.844910    0.552695   -1.892350
     28          1           0        1.039003    2.284594   -1.821701
     29         16           0       -1.092095    1.669724   -1.024292
     30          6           0       -1.645525   -0.024296   -0.648317
     31          1           0       -1.341798   -0.683314   -1.451953
     32          1           0       -1.188109   -0.370673    0.269051
     33          6           0       -3.165353   -0.035017   -0.507911
     34          1           0       -3.625537    0.288103   -1.433557
     35          1           0       -3.466179    0.644174    0.279065
     36         16           0       -3.722086   -1.725011   -0.123011
     37          6           0       -5.530427   -1.528023   -0.162607
     38          1           0       -5.928460   -2.530850   -0.244237
     39          1           0       -5.802690   -1.002014   -1.069085
     40          6           0       -6.107347   -0.845270    1.075803
     41          1           0       -5.856522   -1.420300    1.957519
     42          1           0       -5.689382    0.142816    1.214106
     43         16           0       -7.924007   -0.740202    1.065996
     44          6           0       -8.245396    0.655132   -0.059077
     45          1           0       -7.710191    0.501716   -0.988394
     46          1           0       -9.300557    0.575549   -0.291834
     47          6           0       -7.942071    2.032228    0.523954
     48          1           0       -6.890446    2.147694    0.762232
     49          1           0       -8.202506    2.804865   -0.193971
     50          1           0       -8.511203    2.201840    1.430321
 ---------------------------------------------------------------------
 Stoichiometry    C14H30O3S3
 Framework group  C1[X(C14H30O3S3)]
                         Standard orientation:                         
 ---------------------------------------------------------------------
 Center     Atomic      Atomic             Coordinates (Angstroms)
 Number     Number       Type             X           Y           Z
 ---------------------------------------------------------------------
      1          6           0        8.663554    1.353685    2.094954
      2          1           0        9.038880    1.998697    1.308580
      3          1           0        7.674584    1.698466    2.375083
      4          1           0        9.317262    1.443190    2.956941
      5          6           0        8.608135   -0.084294    1.618376
      6          1           0        9.604027   -0.434801    1.349035
      7          1           0        8.238599   -0.734964    2.409726
      8          8           0        7.761900   -0.154819    0.507340
      9          6           0        7.628723   -1.429767   -0.043177
     10          1           0        7.267433   -2.134819    0.703069
     11          1           0        8.595623   -1.786502   -0.400595
     12          6           0        6.658301   -1.392440   -1.207205
     13          1           0        6.943287   -0.595461   -1.889557
     14          1           0        6.728859   -2.334064   -1.740068
     15          8           0        5.322666   -1.262178   -0.821032
     16          6           0        4.845231    0.035602   -0.596846
     17          1           0        5.070075    0.678845   -1.444157
     18          1           0        5.289247    0.476769    0.285243
     19          6           0        3.344268   -0.073648   -0.425874
     20          1           0        3.117134   -0.723516    0.416069
     21          1           0        2.910369   -0.519663   -1.316706
     22          8           0        2.851830    1.215902   -0.199767
     23          6           0        1.479202    1.322067    0.038239
     24          1           0        1.329352    2.224403    0.615735
     25          1           0        1.132187    0.484239    0.637743
     26          6           0        0.691047    1.422934   -1.266002
     27          1           0        0.844899    0.552720   -1.892236
     28          1           0        1.039001    2.284618   -1.821586
     29         16           0       -1.092100    1.669760   -1.024178
     30          6           0       -1.645540   -0.024257   -0.648202
     31          1           0       -1.341816   -0.683277   -1.451838
     32          1           0       -1.188125   -0.370637    0.269166
     33          6           0       -3.165368   -0.034970   -0.507796
     34          1           0       -3.625550    0.288152   -1.433442
     35          1           0       -3.466190    0.644222    0.279180
     36         16           0       -3.722109   -1.724961   -0.122896
     37          6           0       -5.530450   -1.527963   -0.162492
     38          1           0       -5.928489   -2.530788   -0.244122
     39          1           0       -5.802710   -1.001953   -1.068970
     40          6           0       -6.107366   -0.845207    1.075918
     41          1           0       -5.856544   -1.420239    1.957634
     42          1           0       -5.689395    0.142876    1.214221
     43         16           0       -7.924026   -0.740130    1.066111
     44          6           0       -8.245408    0.655206   -0.058962
     45          1           0       -7.710203    0.501788   -0.988279
     46          1           0       -9.300569    0.575629   -0.291719
     47          6           0       -7.942075    2.032301    0.524069
     48          1           0       -6.890449    2.147761    0.762347
     49          1           0       -8.202506    2.804939   -0.193856
     50          1           0       -8.511206    2.201916    1.430436
 ---------------------------------------------------------------------
 Standard basis: 6-31G(d) (6D, 7F)
   372 basis functions,   752 primitive gaussians,   372 cartesian basis functions
    93 alpha electrons       93 beta electrons
 Requested convergence on RMS density matrix=1.00D-08 within  64 cycles.
 Requested convergence on MAX density matrix=1.00D-06.
 Requested convergence on             energy=1.00D-06.
 SCF Done:  E(RHF) =  -1964.69671965     A.U. after    4 cycles
            NFock=  4  Conv=0.78D-08     -V/T= 2.0006
 Step number   6 out of a maximum of   55
     Eigenvalues ---    0.00184   0.00230   0.00234   0.00265   0.00396
     Eigenvalues ---    0.00406   0.00422   0.00453   0.00555   0.00556
     Eigenvalues ---    0.00573   0.00601   0.00702   0.01201   0.01682
     Eigenvalues ---    0.01713   0.01718   0.01745   0.01756   0.04416
     Eigenvalues ---    0.04438   0.04719   0.04902   0.04935   0.04999
     Eigenvalues ---    0.05086   0.05164   0.05333   0.05364   0.05501
     Eigenvalues ---    0.05544   0.05594   0.05638   0.05659   0.05664
     Eigenvalues ---    0.05694   0.05732   0.05749   0.05762   0.05826
     Eigenvalues ---    0.05841   0.05874   0.05960   0.06058   0.06088
     Eigenvalues ---    0.06111   0.06162   0.10943   0.10981   0.11063
     Eigenvalues ---    0.11135   0.11371   0.11450   0.11596   0.11602
     Eigenvalues ---    0.11698   0.11750   0.11777   0.11834   0.13569
     Eigenvalues ---    0.13579   0.13596   0.13636   0.13748   0.13834
     Eigenvalues ---    0.13873   0.13945   0.14027   0.14059   0.14088
     Eigenvalues ---    0.14132   0.15997   0.15999   0.16000   0.16001
     Eigenvalues ---    0.16023   0.16062   0.21192   0.21930   0.21967
     Eigenvalues ---    0.21969   0.22002   0.22015   0.22026   0.22074
     Eigenvalues ---    0.22297   0.22886   0.23143   0.23232   0.24504
     Eigenvalues ---    0.24538   0.24592   0.24631   0.24711   0.24781
     Eigenvalues ---    0.24939   0.24992   0.25010   0.25094   0.25269
     Eigenvalues ---    0.28166   0.29671   0.29727   0.29811   0.29948
     Eigenvalues ---    0.30762   0.30799   0.31866   0.34721   0.34857
     Eigenvalues ---    0.34937   0.35020   0.35084   0.35129   0.35140
     Eigenvalues ---    0.35187   0.35234   0.35304   0.35338   0.35480
     Eigenvalues ---    0.35489   0.35496   0.35504   0.35564   0.35578
     Eigenvalues ---    0.35608   0.35614   0.35641   0.35666   0.35679
     Eigenvalues ---    0.35717   0.35723   0.35750   0.35759   0.35796
     Eigenvalues ---    0.35822   0.35862   0.36346   0.45630   0.45819
     Eigenvalues ---    0.45969   0.46211   0.46381   0.47794
 Maximum Force            0.000001     0.000015     YES
 RMS     Force            0.000000     0.000010     YES
 Maximum Displacement     0.000723     0.000060     NO 
 RMS     Displacement     0.000178     0.000040     NO 
                          Input orientation:                          
 ---------------------------------------------------------------------
 Center     Atomic      Atomic             Coordinates (Angstroms)
 Number     Number       Type             X           Y           Z
 ---------------------------------------------------------------------
      1          6           0        8.663667    1.353636    2.094773
      2          1           0        9.038954    1.998683    1.308410
      3          1           0        7.674703    1.698394    2.374953
      4          1           0        9.317406    1.443116    2.956739
      5          6           0        8.608248   -0.084325    1.618141
      6          1           0        9.604133   -0.434809    1.348748
      7          1           0        8.238751   -0.735031    2.409480
      8          8           0        7.761971   -0.154817    0.507135
      9          6           0        7.628792   -1.429744   -0.043429
     10          1           0        7.267533   -2.134831    0.702800
     11          1           0        8.595686   -1.786454   -0.400891
     12          6           0        6.658333   -1.392383   -1.207426
     13          1           0        6.943289   -0.595374   -1.889755
     14          1           0        6.728885   -2.333985   -1.740327
     15          8           0        5.322708   -1.262152   -0.821205
     16          6           0        4.845266    0.035614   -0.596951
     17          1           0        5.070079    0.678895   -1.444242
     18          1           0        5.289302    0.476748    0.285144
     19          6           0        3.344308   -0.073659   -0.425942
     20          1           0        3.117204   -0.723561    0.415983
     21          1           0        2.910390   -0.519644   -1.316778
     22          8           0        2.851863    1.215877   -0.199772
     23          6           0        1.479242    1.322017    0.038293
     24          1           0        1.329406    2.224319    0.615846
     25          1           0        1.132258    0.484152    0.637762
     26          6           0        0.691040    1.422949   -1.265914
     27          1           0        0.844871    0.552768   -1.892196
     28          1           0        1.038973    2.284663   -1.821466
     29         16           0       -1.092099    1.669766   -1.024018
     30          6           0       -1.645524   -0.024257   -0.648047
     31          1           0       -1.341763   -0.683278   -1.451668
     32          1           0       -1.188135   -0.370623    0.269340
     33          6           0       -3.165357   -0.034992   -0.507693
     34          1           0       -3.625512    0.288081   -1.433369
     35          1           0       -3.466220    0.644229    0.279243
     36         16           0       -3.722081   -1.724977   -0.122740
     37          6           0       -5.530425   -1.528036   -0.162491
     38          1           0       -5.928426   -2.530879   -0.244072
     39          1           0       -5.802631   -1.002106   -1.069032
     40          6           0       -6.107458   -0.845200    1.075820
     41          1           0       -5.856684   -1.420154    1.957601
     42          1           0       -5.689531    0.142908    1.214077
     43         16           0       -7.924121   -0.740183    1.065868
     44          6           0       -8.245461    0.655069   -0.059321
     45          1           0       -7.710179    0.501607   -0.988586
     46          1           0       -9.300601    0.575443   -0.292157
     47          6           0       -7.942218    2.032211    0.523644
     48          1           0       -6.890615    2.147717    0.762002
     49          1           0       -8.202612    2.804794   -0.194354
     50          1           0       -8.511429    2.201869    1.429953
 ---------------------------------------------------------------------
 Stoichiometry    C14H30O3S3
 Framework group  C1[X(C14H30O3S3)]
                         Standard orientation:                         
 ---------------------------------------------------------------------
 Center     Atomic      Atomic             Coordinates (Angstroms)
 Number     Number       Type             X           Y           Z
 ---------------------------------------------------------------------
      1          6           0        8.663663    1.353623    2.094854
      2          1           0        9.038953    1.998668    1.308491
      3          1           0        7.674700    1.698385    2.375034
      4          1           0        9.317402    1.443100    2.956819
      5          6           0        8.608238   -0.084338    1.618222
      6          1           0        9.604122   -0.434826    1.348828
      7          1           0        8.238739   -0.735043    2.409561
      8          8           0        7.761961   -0.154827    0.507216
      9          6           0        7.628777   -1.429753   -0.043348
     10          1           0        7.267515   -2.134839    0.702881
     11          1           0        8.595669   -1.786467   -0.400810
     12          6           0        6.658318   -1.392389   -1.207345
     13          1           0        6.943277   -0.595381   -1.889674
     14          1           0        6.728867   -2.333991   -1.740246
     15          8           0        5.322694   -1.262152   -0.821124
     16          6           0        4.845257    0.035616   -0.596870
     17          1           0        5.070073    0.678896   -1.444161
     18          1           0        5.289295    0.476748    0.285225
     19          6           0        3.344299   -0.073651   -0.425861
     20          1           0        3.117192   -0.723552    0.416064
     21          1           0        2.910378   -0.519634   -1.316697
     22          8           0        2.851858    1.215887   -0.199691
     23          6           0        1.479238    1.322033    0.038374
     24          1           0        1.329406    2.224336    0.615927
     25          1           0        1.132251    0.484168    0.637843
     26          6           0        0.691036    1.422968   -1.265833
     27          1           0        0.844864    0.552786   -1.892115
     28          1           0        1.038973    2.284680   -1.821385
     29         16           0       -1.092102    1.669791   -1.023937
     30          6           0       -1.645533   -0.024229   -0.647966
     31          1           0       -1.341775   -0.683251   -1.451587
     32          1           0       -1.188145   -0.370597    0.269421
     33          6           0       -3.165366   -0.034958   -0.507612
     34          1           0       -3.625520    0.288117   -1.433289
     35          1           0       -3.466227    0.644264    0.279324
     36         16           0       -3.722098   -1.724941   -0.122659
     37          6           0       -5.530441   -1.527992   -0.162410
     38          1           0       -5.928446   -2.530834   -0.243991
     39          1           0       -5.802644   -1.002062   -1.068951
     40          6           0       -6.107471   -0.845154    1.075901
     41          1           0       -5.856699   -1.420109    1.957682
     42          1           0       -5.689539    0.142952    1.214158
     43         16           0       -7.924133   -0.740130    1.065948
     44          6           0       -8.245468    0.655123   -0.059241
     45          1           0       -7.710186    0.501660   -0.988505
     46          1           0       -9.300608    0.575502   -0.292076
     47          6           0       -7.942219    2.032265    0.523725
     48          1           0       -6.890616    2.147767    0.762083
     49          1           0       -8.202610    2.804849   -0.194273
     50          1           0       -8.511430    2.201924    1.430033
 ---------------------------------------------------------------------
 Standard basis: 6-31G(d) (6D, 7F)
   372 basis functions,   752 primitive gaussians,   372 cartesian basis functions
    93 alpha electrons       93 beta electrons
 Requested convergence on RMS density matrix=1.00D-08 within  64 cycles.
 Requested convergence on MAX density matrix=1.00D-06.
 Requested convergence on             energy=1.00D-06.
 SCF Done:  E(RHF) =  -1964.69671965     A.U. after    5 cycles
            NFock=  5  Conv=0.60D-08     -V/T= 2.0006
 Step number   7 out of a maximum of   55
     Eigenvalues ---    0.00195   0.00229   0.00237   0.00288   0.00380
     Eigenvalues ---    0.00407   0.00421   0.00448   0.00555   0.00556
     Eigenvalues ---    0.00573   0.00626   0.00756   0.01164   0.01682
     Eigenvalues ---    0.01713   0.01717   0.01753   0.01758   0.04352
     Eigenvalues ---    0.04439   0.04747   0.04909   0.04946   0.05025
     Eigenvalues ---    0.05102   0.05177   0.05335   0.05376   0.05505
     Eigenvalues ---    0.05549   0.05588   0.05644   0.05654   0.05662
     Eigenvalues ---    0.05705   0.05739   0.05756   0.05790   0.05831
     Eigenvalues ---    0.05863   0.05899   0.05943   0.06067   0.06089
     Eigenvalues ---    0.06111   0.06205   0.10938   0.10970   0.11056
     Eigenvalues ---    0.11151   0.11370   0.11498   0.11580   0.11644
     Eigenvalues ---    0.11697   0.11756   0.11794   0.11836   0.13465
     Eigenvalues ---    0.13584   0.13617   0.13639   0.13748   0.13844
     Eigenvalues ---    0.13895   0.13983   0.14035   0.14058   0.14085
     Eigenvalues ---    0.14307   0.15989   0.16000   0.16000   0.16002
     Eigenvalues ---    0.16023   0.16060   0.20961   0.21842   0.21965
     Eigenvalues ---    0.21971   0.22003   0.22022   0.22030   0.22067
     Eigenvalues ---    0.22692   0.22761   0.23225   0.23331   0.24452
     Eigenvalues ---    0.24546   0.24572   0.24624   0.24688   0.24861
     Eigenvalues ---    0.24946   0.24985   0.25048   0.25259   0.25618
     Eigenvalues ---    0.28402   0.29680   0.29760   0.29813   0.30068
     Eigenvalues ---    0.30746   0.30877   0.31823   0.34723   0.34870
     Eigenvalues ---    0.34912   0.35015   0.35096   0.35130   0.35159
     Eigenvalues ---    0.35165   0.35229   0.35289   0.35339   0.35481
     Eigenvalues ---    0.35492   0.35496   0.35515   0.35565   0.35591
     Eigenvalues ---    0.35607   0.35624   0.35638   0.35666   0.35679
     Eigenvalues ---    0.35709   0.35731   0.35751   0.35774   0.35808
     Eigenvalues ---    0.35820   0.35916   0.38367   0.45474   0.45759
     Eigenvalues ---    0.45989   0.46237   0.46454   0.47147
 Maximum Force            0.000000     0.000015     YES
 RMS     Force            0.000000     0.000010     YES
 Maximum Displacement     0.000055     0.000060     YES
 RMS     Displacement     0.000012     0.000040     YES
 Optimization completed.
    -- Stationary point found.
                          Input orientation:                          
 ---------------------------------------------------------------------
 Center     Atomic      Atomic             Coordinates (Angstroms)
 Number     Number       Type             X           Y           Z
 ---------------------------------------------------------------------
      1          6           0        8.663667    1.353636    2.094773
      2          1           0        9.038954    1.998683    1.308410
      3          1           0        7.674703    1.698394    2.374953
      4          1           0        9.317406    1.443116    2.956739
      5          6           0        8.608248   -0.084325    1.618141
      6          1           0        9.604133   -0.434809    1.348748
      7          1           0        8.238751   -0.735031    2.409480
      8          8           0        7.761971   -0.154817    0.507135
      9          6           0        7.628792   -1.429744   -0.043429
     10          1           0        7.267533   -2.134831    0.702800
     11          1           0        8.595686   -1.786454   -0.400891
     12          6           0        6.658333   -1.392383   -1.207426
     13          1           0        6.943289   -0.595374   -1.889755
     14          1           0        6.728885   -2.333985   -1.740327
     15          8           0        5.322708   -1.262152   -0.821205
     16          6           0        4.845266    0.035614   -0.596951
     17          1           0        5.070079    0.678895   -1.444242
     18          1           0        5.289302    0.476748    0.285144
     19          6           0        3.344308   -0.073659   -0.425942
     20          1           0        3.117204   -0.723561    0.415983
     21          1           0        2.910390   -0.519644   -1.316778
     22          8           0        2.851863    1.215877   -0.199772
     23          6           0        1.479242    1.322017    0.038293
     24          1           0        1.329406    2.224319    0.615846
     25          1           0        1.132258    0.484152    0.637762
     26          6           0        0.691040    1.422949   -1.265914
     27          1           0        0.844871    0.552768   -1.892196
     28          1           0        1.038973    2.284663   -1.821466
     29         16           0       -1.092099    1.669766   -1.024018
     30          6           0       -1.645524   -0.024257   -0.648047
     31          1           0       -1.341763   -0.683278   -1.451668
     32          1           0       -1.188135   -0.370623    0.269340
     33          6           0       -3.165357   -0.034992   -0.507693
     34          1           0       -3.625512    0.288081   -1.433369
     35          1           0       -3.466220    0.644229    0.279243
     36         16           0       -3.722081   -1.724977   -0.122740
     37          6           0       -5.530425   -1.528036   -0.162491
     38          1           0       -5.928426   -2.530879   -0.244072
     39          1           0       -5.802631   -1.002106   -1.069032
     40          6           0       -6.107458   -0.845200    1.075820
     41          1           0       -5.856684   -1.420154    1.957601
     42          1           0       -5.689531    0.142908    1.214077
     43         16           0       -7.924121   -0.740183    1.065868
     44          6           0       -8.245461    0.655069   -0.059321
     45          1           0       -7.710179    0.501607   -0.988586
     46          1           0       -9.300601    0.575443   -0.292157
     47          6           0       -7.942218    2.032211    0.523644
     48          1           0       -6.890615    2.147717    0.762002
     49          1           0       -8.202612    2.804794   -0.194354
     50          1           0       -8.511429    2.201869    1.429953
 ---------------------------------------------------------------------
 Stoichiometry    C14H30O3S3
 Framework group  C1[X(C14H30O3S3)]
                         Standard orientation:                         
 ---------------------------------------------------------------------
 Center     Atomic      Atomic             Coordinates (Angstroms)
 Number     Number       Type             X           Y           Z
 ---------------------------------------------------------------------
      1          6           0        8.663663    1.353623    2.094854
      2          1           0        9.038953    1.998668    1.308491
      3          1           0        7.674700    1.698385    2.375034
      4          1           0        9.317402    1.443100    2.956819
      5          6           0        8.608238   -0.084338    1.618222
      6          1           0        9.604122   -0.434826    1.348828
      7          1           0        8.238739   -0.735043    2.409561
      8          8           0        7.761961   -0.154827    0.507216
      9          6           0        7.628777   -1.429753   -0.043348
     10          1           0        7.267515   -2.134839    0.702881
     11          1           0        8.595669   -1.786467   -0.400810
     12          6           0        6.658318   -1.392389   -1.207345
     13          1           0        6.943277   -0.595381   -1.889674
     14          1           0        6.728867   -2.333991   -1.740246
     15          8           0        5.322694   -1.262152   -0.821124
     16          6           0        4.845257    0.035616   -0.596870
     17          1           0        5.070073    0.678896   -1.444161
     18          1           0        5.289295    0.476748    0.285225
     19          6           0        3.344299   -0.073651   -0.425861
     20          1           0        3.117192   -0.723552    0.416064
     21          1           0        2.910378   -0.519634   -1.316697
     22          8           0        2.851858    1.215887   -0.199691
     23          6           0        1.479238    1.322033    0.038374
     24          1           0        1.329406    2.224336    0.615927
     25          1           0        1.132251    0.484168    0.637843
     26          6           0        0.691036    1.422968   -1.265833
     27          1           0        0.844864    0.552786   -1.892115
     28          1           0        1.038973    2.284680   -1.821385
     29         16           0       -1.092102    1.669791   -1.023937
     30          6           0       -1.645533   -0.024229   -0.647966
     31          1           0       -1.341775   -0.683251   -1.451587
     32          1           0       -1.188145   -0.370597    0.269421
     33          6           0       -3.165366   -0.034958   -0.507612
     34          1           0       -3.625520    0.288117   -1.433289
     35          1           0       -3.466227    0.644264    0.279324
     36         16           0       -3.722098   -1.724941   -0.122659
     37          6           0       -5.530441   -1.527992   -0.162410
     38          1           0       -5.928446   -2.530834   -0.243991
     39          1           0       -5.802644   -1.002062   -1.068951
     40          6           0       -6.107471   -0.845154    1.075901
     41          1           0       -5.856699   -1.420109    1.957682
     42          1           0       -5.689539    0.142952    1.214158
     43         16           0       -7.924133   -0.740130    1.065948
     44          6           0       -8.245468    0.655123   -0.059241
     45          1           0       -7.710186    0.501660   -0.988505
     46          1           0       -9.300608    0.575502   -0.292076
     47          6           0       -7.942219    2.032265    0.523725
     48          1           0       -6.890616    2.147767    0.762083
     49          1           0       -8.202610    2.804849   -0.194273
     50          1           0       -8.511430    2.201924    1.430033
 ---------------------------------------------------------------------
 Mulliken charges:
     1  C   -0.490450
     2  H    0.174304
     3  H    0.175635
     4  H    0.157999
     5  C    0.023124
     6  H    0.137612
     7  H    0.141180
     8  O   -0.625100
     9  C    0.009952
    10  H    0.152127
    11  H    0.135121
    12  C    0.002772
    13  H    0.156396
    14  H    0.169505
    15  O   -0.647331
    16  C    0.013481
    17  H    0.149228
    18  H    0.182445
    19  C    0.007582
    20  H    0.153312
    21  H    0.146930
    22  O   -0.640790
    23  C    0.028152
    24  H    0.187411
    25  H    0.145930
    26  C   -0.505190
    27  H    0.195367
    28  H    0.214075
    29  S    0.116891
    30  C   -0.478231
    31  H    0.206698
    32  H    0.206289
    33  C   -0.479587
    34  H    0.203758
    35  H    0.203800
    36  S    0.127171
    37  C   -0.476715
    38  H    0.219013
    39  H    0.194562
    40  C   -0.476914
    41  H    0.216921
    42  H    0.197145
    43  S    0.115557
    44  C   -0.476298
    45  H    0.187866
    46  H    0.201811
    47  C   -0.474021
    48  H    0.162807
    49  H    0.168652
    50  H    0.182053
 Sum of Mulliken charges =  -0.00000
 Dipole moment (field-independent basis, Debye):
    X=              2.0489    Y=              0.1717    Z=             -0.5688  Tot=              2.1333
 Quadrupole moment (field-independent basis, Debye-Ang):
   XX=           -128.5440   YY=           -155.2980   ZZ=           -147.9822
   XY=            -17.4902   XZ=             11.5946   YZ=              1.0801
 Traceless Quadrupole moment (field-independent basis, Debye-Ang):
   XX=             15.3974   YY=            -11.3566   ZZ=             -4.0408
   XY=            -17.4902   XZ=             11.5946   YZ=              1.0801
 Octapole moment (field-independent basis, Debye-Ang**2):
  XXX=            360.2105  YYY=             -2.6031  ZZZ=             -1.7152  XYY=             38.7343
  XXY=             31.6770  XXZ=            -49.7214  XZZ=             66.7240  YZZ=             -1.6837
  YYZ=              3.2303  XYZ=             -1.7945
 Hexadecapole moment (field-independent basis, Debye-Ang**3):
 XXXX=         -27925.0267 YYYY=          -1571.0080 ZZZZ=          -1016.8206 XXXY=          -1316.9771
 XXXZ=           1079.8754 YYYX=            -29.6919 YYYZ=             -6.5070 ZZZX=             45.9135
 ZZZY=              6.7885 XXYY=          -5220.9402 XXZZ=          -5086.4185 YYZZ=           -431.4166
 XXYZ=             75.3943 YYXZ=            -31.7056 ZZXY=             -7.8134
 Job cpu time:       0 days  0 hours 32 minutes 55.4 seconds.
 Normal termination of Gaussian 16 at Sat Jul  8 13:16:18 2023.
