 Copyright (c) 1988-2019, Gaussian, Inc.  All Rights Reserved.
  
 This is part of the Gaussian(R) 16 program.  It is based on
 the Gaussian(R) 09 system (copyright 2009, Gaussian, Inc.),
 the Gaussian(R) 03 system (copyright 2003, Gaussian, Inc.),
 the Gaussian(R) 98 system (copyright 1998, Gaussian, Inc.),
 the Gaussian(R) 94 system (copyright 1995, Gaussian, Inc.),
 the Gaussian 92(TM) system (copyright 1992, Gaussian, Inc.),
 the Gaussian 90(TM) system (copyright 1990, Gaussian, Inc.),
 the Gaussian 88(TM) system (copyright 1988, Gaussian, Inc.),
 the Gaussian 86(TM) system (copyright 1986, Carnegie Mellon
 University), and the Gaussian 82(TM) system (copyright 1983,
 Carnegie Mellon University). Gaussian is a federally registered
 trademark of Gaussian, Inc.
 Cite this work as:
 Gaussian 16, Revision C.01,
 M. J. Frisch, G. W. Trucks, H. B. Schlegel, G. E. Scuseria, 
 M. A. Robb, J. R. Cheeseman, G. Scalmani, V. Barone, 
 G. A. Petersson, H. Nakatsuji, X. Li, M. Caricato, A. V. Marenich, 
 J. Bloino, B. G. Janesko, R. Gomperts, B. Mennucci, H. P. Hratchian, 
 J. V. Ortiz, A. F. Izmaylov, J. L. Sonnenberg, D. Williams-Young, 
 F. Ding, F. Lipparini, F. Egidi, J. Goings, B. Peng, A. Petrone, 
 T. Henderson, D. Ranasinghe, V. G. Zakrzewski, J. Gao, N. Rega, 
 G. Zheng, W. Liang, M. Hada, M. Ehara, K. Toyota, R. Fukuda, 
 J. Hasegawa, M. Ishida, T. Nakajima, Y. Honda, O. Kitao, H. Nakai, 
 T. Vreven, K. Throssell, J. A. Montgomery, Jr., J. E. Peralta, 
 F. Ogliaro, M. J. Bearpark, J. J. Heyd, E. N. Brothers, K. N. Kudin, 
 V. N. Staroverov, T. A. Keith, R. Kobayashi, J. Normand, 
 K. Raghavachari, A. P. Rendell, J. C. Burant, S. S. Iyengar, 
 J. Tomasi, M. Cossi, J. M. Millam, M. Klene, C. Adamo, R. Cammi, 
 J. W. Ochterski, R. L. Martin, K. Morokuma, O. Farkas, 
 J. B. Foresman, and D. J. Fox, Gaussian, Inc., Wallingford CT, 2019.
 
 ******************************************
 Gaussian 16:  EM64L-G16RevC.01  3-Jul-2019
                 8-Jul-2023 
 ******************************************
 ----------------------------------------------------------------------
 #P HF/6-31G(d) Opt=(Tight,MaxCycle=55) GFInput GFPrint SCF(Conver=8,XQ
 C,MaxConventionalCycles=64,MaxCycle=128) Test
 ----------------------------------------------------------------------
 1/6=55,7=10,18=20,19=15,38=1/1,3;
 2/9=110,12=2,17=6,18=5,40=1/2;
 3/5=1,6=6,7=1,11=9,24=110,25=1,30=1,71=1/1,2,3;
 4//1;
 5/5=2,6=8,7=128,8=3,13=1,38=5,85=64/2,8;
 6/7=2,8=2,9=2,10=2,28=1/1;
 7//1,2,3,16;
 1/6=55,7=10,18=20,19=15/3(2);
 2/9=110/2;
 99//99;
 2/9=110/2;
 3/5=1,6=6,7=1,11=9,25=1,30=1,71=1/1,2,3;
 4/5=5,16=3,69=1/1;
 5/5=2,6=8,7=128,8=3,13=1,38=5,85=64/2,8;
 7//1,2,3,16;
 1/6=55,7=10,18=20,19=15/3(-5);
 2/9=110/2;
 6/7=2,8=2,9=2,10=2,19=2,28=1/1;
 99/9=1/99;
 ----------------------------------------------------------
 Optimization step - Input generated by PyRED DVE-DMDS-OPLS
 ----------------------------------------------------------
 Symbolic Z-matrix:
 Charge =  0 Multiplicity = 1
 C                    -9.81783  -0.13619  -0.57256 
 H                    -10.02803  -0.63091   0.36896 
 H                    -10.38004   0.79175  -0.60884 
 H                    -10.15724  -0.77836  -1.3772 
 C                    -8.33297   0.13698  -0.70768 
 H                    -8.12392   0.64564  -1.64723 
 H                    -7.99591   0.78908   0.09574 
 O                    -7.65545  -1.08848  -0.67128 
 C                    -6.26297  -1.02404  -0.76453 
 H                    -5.946    -0.17953  -1.37104 
 H                    -5.92614  -1.92811  -1.25522 
 C                    -5.62205  -0.93889   0.61116 
 H                    -5.95873  -0.04977   1.14123 
 H                    -5.91546  -1.80487   1.20065 
 O                    -4.23756  -0.90545   0.43238 
 C                    -3.49518  -0.87049   1.61533 
 H                    -3.69811  -1.76175   2.20915 
 H                    -3.76717  -0.00125   2.21072 
 C                    -2.01494  -0.81916   1.29467 
 H                    -1.7671   -1.61437   0.59691 
 H                    -1.46052  -0.98982   2.21001 
 O                    -1.58793   0.41877   0.80641 
 C                    -1.75395   0.66093  -0.56246 
 H                    -2.79158   0.88694  -0.78425 
 H                    -1.47265  -0.2163   -1.13764 
 C                    -0.89081   1.84455  -0.96307 
 H                    -1.13152   2.70495  -0.34987 
 H                    -1.11373   2.10641  -1.9913 
 S                     0.90333   1.56102  -0.91498 
 C                     1.29269   1.86055   0.83891 
 H                     0.94859   2.85872   1.08854 
 H                     0.75622   1.15336   1.45102 
 C                     2.7945    1.78477   1.11865 
 H                     2.9703    2.21982   2.09518 
 H                     3.35345   2.3822    0.4084 
 S                     3.512     0.11285   1.22095 
 C                     4.11986  -0.19376  -0.46576 
 H                     3.35731   0.10055  -1.17427 
 H                     4.21536  -1.26963  -0.53849 
 C                     5.4436    0.4871   -0.82151 
 H                     5.5943    0.43444  -1.895 
 H                     5.41103   1.53781  -0.56325 
 S                     6.92384  -0.17845  -0.00592 
 C                     7.24574  -1.65491  -1.0189 
 H                     6.39645  -2.32566  -0.96816 
 H                     7.37211  -1.35336  -2.05251 
 C                     8.49995  -2.36752  -0.52018 
 H                     8.38454  -2.68755   0.50939 
 H                     8.69376  -3.24621  -1.12693 
 H                     9.36729  -1.71929  -0.5781 
 
 ITRead=  0  0  0  0  0  0  0  0  0  0  0  0  0  0  0  0  0  0  0  0
 ITRead=  0  0  0  0  0  0  0  0  0  0  0  0  0  0  0  0  0  0  0  0
 ITRead=  0  0  0  0  0  0  0  0  0  0
 MicOpt= -1 -1 -1 -1 -1 -1 -1 -1 -1 -1 -1 -1 -1 -1 -1 -1 -1 -1 -1 -1
 MicOpt= -1 -1 -1 -1 -1 -1 -1 -1 -1 -1 -1 -1 -1 -1 -1 -1 -1 -1 -1 -1
 MicOpt= -1 -1 -1 -1 -1 -1 -1 -1 -1 -1
 NAtoms=     50 NQM=       50 NQMF=       0 NMMI=      0 NMMIF=      0
                NMic=       0 NMicF=      0.
                          Input orientation:                          
 ---------------------------------------------------------------------
 Center     Atomic      Atomic             Coordinates (Angstroms)
 Number     Number       Type             X           Y           Z
 ---------------------------------------------------------------------
      1          6           0       -9.817833   -0.136193   -0.572556
      2          1           0      -10.028031   -0.630910    0.368955
      3          1           0      -10.380040    0.791746   -0.608836
      4          1           0      -10.157241   -0.778363   -1.377204
      5          6           0       -8.332973    0.136976   -0.707681
      6          1           0       -8.123915    0.645640   -1.647230
      7          1           0       -7.995907    0.789082    0.095739
      8          8           0       -7.655446   -1.088483   -0.671281
      9          6           0       -6.262967   -1.024044   -0.764528
     10          1           0       -5.946001   -0.179528   -1.371039
     11          1           0       -5.926144   -1.928108   -1.255220
     12          6           0       -5.622051   -0.938886    0.611157
     13          1           0       -5.958730   -0.049768    1.141234
     14          1           0       -5.915461   -1.804872    1.200654
     15          8           0       -4.237559   -0.905446    0.432375
     16          6           0       -3.495178   -0.870486    1.615334
     17          1           0       -3.698110   -1.761746    2.209146
     18          1           0       -3.767168   -0.001246    2.210719
     19          6           0       -2.014937   -0.819159    1.294669
     20          1           0       -1.767100   -1.614370    0.596914
     21          1           0       -1.460516   -0.989824    2.210012
     22          8           0       -1.587925    0.418771    0.806410
     23          6           0       -1.753949    0.660934   -0.562459
     24          1           0       -2.791575    0.886944   -0.784248
     25          1           0       -1.472654   -0.216300   -1.137640
     26          6           0       -0.890811    1.844548   -0.963070
     27          1           0       -1.131522    2.704955   -0.349871
     28          1           0       -1.113725    2.106405   -1.991299
     29         16           0        0.903327    1.561021   -0.914976
     30          6           0        1.292687    1.860554    0.838914
     31          1           0        0.948585    2.858722    1.088539
     32          1           0        0.756216    1.153360    1.451024
     33          6           0        2.794504    1.784773    1.118650
     34          1           0        2.970301    2.219820    2.095184
     35          1           0        3.353450    2.382197    0.408402
     36         16           0        3.512001    0.112846    1.220948
     37          6           0        4.119859   -0.193758   -0.465756
     38          1           0        3.357309    0.100551   -1.174270
     39          1           0        4.215362   -1.269631   -0.538486
     40          6           0        5.443602    0.487097   -0.821511
     41          1           0        5.594297    0.434444   -1.894997
     42          1           0        5.411030    1.537806   -0.563254
     43         16           0        6.923844   -0.178447   -0.005919
     44          6           0        7.245742   -1.654905   -1.018901
     45          1           0        6.396448   -2.325658   -0.968156
     46          1           0        7.372113   -1.353362   -2.052509
     47          6           0        8.499946   -2.367515   -0.520180
     48          1           0        8.384536   -2.687547    0.509389
     49          1           0        8.693756   -3.246209   -1.126932
     50          1           0        9.367293   -1.719290   -0.578097
 ---------------------------------------------------------------------
 Stoichiometry    C14H30O3S3
 Framework group  C1[X(C14H30O3S3)]
                         Standard orientation:                         
 ---------------------------------------------------------------------
 Center     Atomic      Atomic             Coordinates (Angstroms)
 Number     Number       Type             X           Y           Z
 ---------------------------------------------------------------------
      1          6           0       -9.817833   -0.136193   -0.572556
      2          1           0      -10.028031   -0.630910    0.368955
      3          1           0      -10.380040    0.791746   -0.608836
      4          1           0      -10.157241   -0.778363   -1.377204
      5          6           0       -8.332973    0.136976   -0.707681
      6          1           0       -8.123915    0.645640   -1.647230
      7          1           0       -7.995907    0.789082    0.095739
      8          8           0       -7.655446   -1.088483   -0.671281
      9          6           0       -6.262967   -1.024044   -0.764528
     10          1           0       -5.946001   -0.179528   -1.371039
     11          1           0       -5.926144   -1.928108   -1.255220
     12          6           0       -5.622051   -0.938886    0.611157
     13          1           0       -5.958730   -0.049768    1.141234
     14          1           0       -5.915461   -1.804872    1.200654
     15          8           0       -4.237559   -0.905446    0.432375
     16          6           0       -3.495178   -0.870486    1.615334
     17          1           0       -3.698110   -1.761746    2.209146
     18          1           0       -3.767168   -0.001246    2.210719
     19          6           0       -2.014937   -0.819159    1.294669
     20          1           0       -1.767100   -1.614370    0.596914
     21          1           0       -1.460516   -0.989824    2.210012
     22          8           0       -1.587925    0.418771    0.806410
     23          6           0       -1.753949    0.660934   -0.562459
     24          1           0       -2.791575    0.886944   -0.784248
     25          1           0       -1.472654   -0.216300   -1.137640
     26          6           0       -0.890811    1.844548   -0.963070
     27          1           0       -1.131522    2.704955   -0.349871
     28          1           0       -1.113725    2.106405   -1.991299
     29         16           0        0.903327    1.561021   -0.914976
     30          6           0        1.292687    1.860554    0.838914
     31          1           0        0.948585    2.858722    1.088539
     32          1           0        0.756216    1.153360    1.451024
     33          6           0        2.794504    1.784773    1.118650
     34          1           0        2.970301    2.219820    2.095184
     35          1           0        3.353450    2.382197    0.408402
     36         16           0        3.512001    0.112846    1.220948
     37          6           0        4.119859   -0.193758   -0.465756
     38          1           0        3.357309    0.100551   -1.174270
     39          1           0        4.215362   -1.269631   -0.538486
     40          6           0        5.443602    0.487097   -0.821511
     41          1           0        5.594297    0.434444   -1.894997
     42          1           0        5.411030    1.537806   -0.563254
     43         16           0        6.923844   -0.178447   -0.005919
     44          6           0        7.245742   -1.654905   -1.018901
     45          1           0        6.396448   -2.325658   -0.968156
     46          1           0        7.372113   -1.353362   -2.052509
     47          6           0        8.499946   -2.367515   -0.520180
     48          1           0        8.384536   -2.687547    0.509389
     49          1           0        8.693756   -3.246209   -1.126932
     50          1           0        9.367293   -1.719290   -0.578097
 ---------------------------------------------------------------------
 Standard basis: 6-31G(d) (6D, 7F)
   372 basis functions,   752 primitive gaussians,   372 cartesian basis functions
    93 alpha electrons       93 beta electrons
 Requested convergence on RMS density matrix=1.00D-08 within  64 cycles.
 Requested convergence on MAX density matrix=1.00D-06.
 Requested convergence on             energy=1.00D-06.
 SCF Done:  E(RHF) =  -1964.69114406     A.U. after   13 cycles
            NFock= 13  Conv=0.56D-08     -V/T= 2.0006
 Mulliken charges:
     1  C   -0.488656
     2  H    0.173105
     3  H    0.157404
     4  H    0.176463
     5  C    0.017011
     6  H    0.142822
     7  H    0.136207
     8  O   -0.631333
     9  C    0.002674
    10  H    0.150186
    11  H    0.181933
    12  C    0.011508
    13  H    0.142461
    14  H    0.154062
    15  O   -0.641434
    16  C    0.008561
    17  H    0.141744
    18  H    0.153242
    19  C   -0.001991
    20  H    0.162694
    21  H    0.174985
    22  O   -0.635351
    23  C    0.038800
    24  H    0.166276
    25  H    0.156600
    26  C   -0.502588
    27  H    0.199573
    28  H    0.196745
    29  S    0.097410
    30  C   -0.444510
    31  H    0.183870
    32  H    0.235628
    33  C   -0.502868
    34  H    0.210184
    35  H    0.201730
    36  S    0.134182
    37  C   -0.483686
    38  H    0.226882
    39  H    0.201403
    40  C   -0.475381
    41  H    0.192061
    42  H    0.202508
    43  S    0.133066
    44  C   -0.458957
    45  H    0.184015
    46  H    0.183234
    47  C   -0.495256
    48  H    0.181121
    49  H    0.170284
    50  H    0.179378
 Sum of Mulliken charges =  -0.00000
 Dipole moment (field-independent basis, Debye):
    X=             -3.1454    Y=              0.7284    Z=             -1.0097  Tot=              3.3828
 Quadrupole moment (field-independent basis, Debye-Ang):
   XX=           -154.3103   YY=           -143.2579   ZZ=           -145.4690
   XY=            -15.4403   XZ=            -14.7190   YZ=              1.5505
 Traceless Quadrupole moment (field-independent basis, Debye-Ang):
   XX=             -6.6312   YY=              4.4212   ZZ=              2.2101
   XY=            -15.4403   XZ=            -14.7190   YZ=              1.5505
 Octapole moment (field-independent basis, Debye-Ang**2):
  XXX=           -170.0300  YYY=             -5.4796  ZZZ=              2.6730  XYY=             14.1747
  XXY=             23.3749  XXZ=            -64.8608  XZZ=            -36.7257  YZZ=             -3.4528
  YYZ=             10.4552  XYZ=             34.3070
 Hexadecapole moment (field-independent basis, Debye-Ang**3):
 XXXX=         -26102.6329 YYYY=          -1449.0741 ZZZZ=           -940.9633 XXXY=          -1192.4164
 XXXZ=           -541.7015 YYYX=              3.5574 YYYZ=             28.8191 ZZZX=            -26.8008
 ZZZY=              4.5599 XXYY=          -4459.2751 XXZZ=          -4387.0114 YYZZ=           -397.1531
 XXYZ=             -0.2002 YYXZ=             -0.0264 ZZXY=             22.9646
 Step number   1 out of a maximum of   55
     Eigenvalues ---    0.00230   0.00230   0.00230   0.00230   0.00230
     Eigenvalues ---    0.00230   0.00363   0.00375   0.00418   0.00501
     Eigenvalues ---    0.00519   0.00557   0.00562   0.01682   0.01692
     Eigenvalues ---    0.01724   0.01730   0.01731   0.01740   0.04130
     Eigenvalues ---    0.04235   0.04279   0.04366   0.04690   0.04859
     Eigenvalues ---    0.04949   0.05069   0.05280   0.05336   0.05384
     Eigenvalues ---    0.05439   0.05535   0.05608   0.05623   0.05667
     Eigenvalues ---    0.05739   0.05746   0.05770   0.05797   0.05798
     Eigenvalues ---    0.05800   0.05970   0.05986   0.06011   0.06039
     Eigenvalues ---    0.06042   0.06097   0.11052   0.11206   0.11289
     Eigenvalues ---    0.11290   0.11292   0.11375   0.11574   0.11750
     Eigenvalues ---    0.11784   0.11825   0.11831   0.11839   0.13651
     Eigenvalues ---    0.13665   0.13713   0.13747   0.13814   0.13816
     Eigenvalues ---    0.13922   0.14074   0.14085   0.14092   0.14106
     Eigenvalues ---    0.14157   0.16000   0.16000   0.16000   0.16000
     Eigenvalues ---    0.16000   0.16000   0.21956   0.21959   0.22003
     Eigenvalues ---    0.22007   0.22028   0.22039   0.22042   0.22052
     Eigenvalues ---    0.22067   0.22069   0.22086   0.22098   0.24439
     Eigenvalues ---    0.24502   0.24657   0.24681   0.24819   0.24867
     Eigenvalues ---    0.25000   0.25000   0.25000   0.25000   0.25000
     Eigenvalues ---    0.25000   0.29378   0.29467   0.29769   0.30362
     Eigenvalues ---    0.30492   0.30773   0.30810   0.34811   0.34967
     Eigenvalues ---    0.34985   0.35013   0.35029   0.35056   0.35164
     Eigenvalues ---    0.35211   0.35273   0.35330   0.35363   0.35365
     Eigenvalues ---    0.35406   0.35413   0.35472   0.35477   0.35490
     Eigenvalues ---    0.35498   0.35505   0.35516   0.35553   0.35559
     Eigenvalues ---    0.35585   0.35585   0.35585   0.35688   0.35697
     Eigenvalues ---    0.35708   0.35789   0.36208   0.45495   0.45620
     Eigenvalues ---    0.46025   0.46107   0.46113   0.46224
 Maximum Force            0.000001     0.000015     YES
 RMS     Force            0.000000     0.000010     YES
 Maximum Displacement     0.000168     0.000060     NO 
 RMS     Displacement     0.000034     0.000040     YES
                          Input orientation:                          
 ---------------------------------------------------------------------
 Center     Atomic      Atomic             Coordinates (Angstroms)
 Number     Number       Type             X           Y           Z
 ---------------------------------------------------------------------
      1          6           0       -9.817826   -0.136227   -0.572550
      2          1           0      -10.028020   -0.630946    0.368961
      3          1           0      -10.380040    0.791708   -0.608829
      4          1           0      -10.157230   -0.778400   -1.377198
      5          6           0       -8.332968    0.136952   -0.707676
      6          1           0       -8.123915    0.645618   -1.647225
      7          1           0       -7.995906    0.789061    0.095743
      8          8           0       -7.655432   -1.088502   -0.671277
      9          6           0       -6.262954   -1.024052   -0.764526
     10          1           0       -5.945995   -0.179534   -1.371037
     11          1           0       -5.926125   -1.928114   -1.255219
     12          6           0       -5.622036   -0.938891    0.611158
     13          1           0       -5.958720   -0.049776    1.141236
     14          1           0       -5.915438   -1.804880    1.200655
     15          8           0       -4.237544   -0.905441    0.432374
     16          6           0       -3.495161   -0.870477    1.615331
     17          1           0       -3.698086   -1.761738    2.209144
     18          1           0       -3.767156   -0.001239    2.210718
     19          6           0       -2.014921   -0.819139    1.294665
     20          1           0       -1.767080   -1.614348    0.596909
     21          1           0       -1.460498   -0.989801    2.210006
     22          8           0       -1.587919    0.418794    0.806404
     23          6           0       -1.753948    0.660956   -0.562465
     24          1           0       -2.791576    0.886957   -0.784251
     25          1           0       -1.472647   -0.216276   -1.137646
     26          6           0       -0.890820    1.844577   -0.963076
     27          1           0       -1.131537    2.704982   -0.349876
     28          1           0       -1.113738    2.106432   -1.991306
     29         16           0        0.903320    1.561064   -0.914986
     30          6           0        1.292677    1.860583    0.838908
     31          1           0        0.948581    2.858752    1.088539
     32          1           0        0.756199    1.153389    1.451011
     33          6           0        2.794492    1.784788    1.118647
     34          1           0        2.970290    2.219825    2.095186
     35          1           0        3.353445    2.382215    0.408407
     36         16           0        3.511975    0.112855    1.220933
     37          6           0        4.119856   -0.193727   -0.465767
     38          1           0        3.357325    0.100613   -1.174289
     39          1           0        4.215336   -1.269601   -0.538518
     40          6           0        5.443622    0.487103   -0.821486
     41          1           0        5.594334    0.434471   -1.894970
     42          1           0        5.411070    1.537807   -0.563206
     43         16           0        6.923833   -0.178493   -0.005881
     44          6           0        7.245725   -1.654925   -1.018903
     45          1           0        6.396418   -2.325664   -0.968197
     46          1           0        7.372124   -1.353352   -2.052499
     47          6           0        8.499906   -2.367572   -0.520179
     48          1           0        8.384469   -2.687636    0.509378
     49          1           0        8.693714   -3.246251   -1.126954
     50          1           0        9.367266   -1.719362   -0.578056
 ---------------------------------------------------------------------
 Stoichiometry    C14H30O3S3
 Framework group  C1[X(C14H30O3S3)]
                         Standard orientation:                         
 ---------------------------------------------------------------------
 Center     Atomic      Atomic             Coordinates (Angstroms)
 Number     Number       Type             X           Y           Z
 ---------------------------------------------------------------------
      1          6           0       -9.817824   -0.136233   -0.572550
      2          1           0      -10.028017   -0.630953    0.368961
      3          1           0      -10.380039    0.791701   -0.608830
      4          1           0      -10.157228   -0.778406   -1.377199
      5          6           0       -8.332966    0.136946   -0.707677
      6          1           0       -8.123913    0.645613   -1.647226
      7          1           0       -7.995905    0.789056    0.095742
      8          8           0       -7.655429   -1.088507   -0.671278
      9          6           0       -6.262951   -1.024057   -0.764527
     10          1           0       -5.945993   -0.179538   -1.371038
     11          1           0       -5.926121   -1.928118   -1.255220
     12          6           0       -5.622033   -0.938895    0.611157
     13          1           0       -5.958718   -0.049780    1.141235
     14          1           0       -5.915435   -1.804884    1.200654
     15          8           0       -4.237542   -0.905445    0.432373
     16          6           0       -3.495159   -0.870480    1.615330
     17          1           0       -3.698084   -1.761741    2.209143
     18          1           0       -3.767154   -0.001242    2.210717
     19          6           0       -2.014918   -0.819141    1.294664
     20          1           0       -1.767077   -1.614350    0.596908
     21          1           0       -1.460495   -0.989803    2.210005
     22          8           0       -1.587917    0.418791    0.806403
     23          6           0       -1.753946    0.660954   -0.562465
     24          1           0       -2.791575    0.886955   -0.784252
     25          1           0       -1.472645   -0.216278   -1.137647
     26          6           0       -0.890819    1.844575   -0.963077
     27          1           0       -1.131536    2.704980   -0.349877
     28          1           0       -1.113737    2.106431   -1.991306
     29         16           0        0.903321    1.561064   -0.914987
     30          6           0        1.292678    1.860583    0.838907
     31          1           0        0.948582    2.858751    1.088539
     32          1           0        0.756200    1.153388    1.451011
     33          6           0        2.794493    1.784788    1.118647
     34          1           0        2.970291    2.219826    2.095185
     35          1           0        3.353446    2.382216    0.408406
     36         16           0        3.511977    0.112855    1.220932
     37          6           0        4.119858   -0.193727   -0.465768
     38          1           0        3.357327    0.100613   -1.174290
     39          1           0        4.215339   -1.269600   -0.538519
     40          6           0        5.443623    0.487105   -0.821486
     41          1           0        5.594335    0.434472   -1.894971
     42          1           0        5.411071    1.537809   -0.563207
     43         16           0        6.923835   -0.178491   -0.005882
     44          6           0        7.245728   -1.654922   -1.018904
     45          1           0        6.396421   -2.325662   -0.968198
     46          1           0        7.372127   -1.353349   -2.052500
     47          6           0        8.499909   -2.367569   -0.520180
     48          1           0        8.384472   -2.687633    0.509377
     49          1           0        8.693718   -3.246247   -1.126955
     50          1           0        9.367269   -1.719358   -0.578057
 ---------------------------------------------------------------------
 Standard basis: 6-31G(d) (6D, 7F)
   372 basis functions,   752 primitive gaussians,   372 cartesian basis functions
    93 alpha electrons       93 beta electrons
 Requested convergence on RMS density matrix=1.00D-08 within  64 cycles.
 Requested convergence on MAX density matrix=1.00D-06.
 Requested convergence on             energy=1.00D-06.
 SCF Done:  E(RHF) =  -1964.69114406     A.U. after    4 cycles
            NFock=  4  Conv=0.35D-08     -V/T= 2.0006
 Step number   2 out of a maximum of   55
     Eigenvalues ---    0.00215   0.00230   0.00230   0.00230   0.00230
     Eigenvalues ---    0.00361   0.00372   0.00417   0.00495   0.00501
     Eigenvalues ---    0.00553   0.00557   0.00578   0.01678   0.01685
     Eigenvalues ---    0.01725   0.01728   0.01731   0.01740   0.04045
     Eigenvalues ---    0.04217   0.04296   0.04414   0.04704   0.04947
     Eigenvalues ---    0.05050   0.05145   0.05279   0.05384   0.05393
     Eigenvalues ---    0.05441   0.05529   0.05553   0.05637   0.05653
     Eigenvalues ---    0.05689   0.05742   0.05769   0.05797   0.05798
     Eigenvalues ---    0.05860   0.05941   0.05989   0.06009   0.06031
     Eigenvalues ---    0.06070   0.06078   0.10916   0.11180   0.11228
     Eigenvalues ---    0.11291   0.11293   0.11361   0.11529   0.11644
     Eigenvalues ---    0.11752   0.11786   0.11833   0.11841   0.13389
     Eigenvalues ---    0.13657   0.13695   0.13745   0.13764   0.13839
     Eigenvalues ---    0.13908   0.14019   0.14091   0.14094   0.14108
     Eigenvalues ---    0.14223   0.15699   0.16000   0.16000   0.16000
     Eigenvalues ---    0.16000   0.16022   0.20246   0.21957   0.21973
     Eigenvalues ---    0.22007   0.22013   0.22034   0.22041   0.22057
     Eigenvalues ---    0.22067   0.22078   0.22090   0.22842   0.23678
     Eigenvalues ---    0.24440   0.24528   0.24683   0.24704   0.24826
     Eigenvalues ---    0.24869   0.25000   0.25000   0.25000   0.25000
     Eigenvalues ---    0.26652   0.29164   0.29450   0.29790   0.30330
     Eigenvalues ---    0.30554   0.30663   0.30803   0.33315   0.34853
     Eigenvalues ---    0.34970   0.35000   0.35021   0.35049   0.35061
     Eigenvalues ---    0.35174   0.35243   0.35285   0.35334   0.35364
     Eigenvalues ---    0.35377   0.35411   0.35418   0.35477   0.35485
     Eigenvalues ---    0.35498   0.35502   0.35513   0.35527   0.35559
     Eigenvalues ---    0.35563   0.35585   0.35585   0.35690   0.35699
     Eigenvalues ---    0.35762   0.35828   0.36316   0.45013   0.45603
     Eigenvalues ---    0.45638   0.46096   0.46108   0.46248
 Maximum Force            0.000000     0.000015     YES
 RMS     Force            0.000000     0.000010     YES
 Maximum Displacement     0.000095     0.000060     NO 
 RMS     Displacement     0.000026     0.000040     YES
                          Input orientation:                          
 ---------------------------------------------------------------------
 Center     Atomic      Atomic             Coordinates (Angstroms)
 Number     Number       Type             X           Y           Z
 ---------------------------------------------------------------------
      1          6           0       -9.817824   -0.136210   -0.572562
      2          1           0      -10.028023   -0.630932    0.368947
      3          1           0      -10.380035    0.791727   -0.608839
      4          1           0      -10.157228   -0.778378   -1.377214
      5          6           0       -8.332964    0.136963   -0.707683
      6          1           0       -8.123907    0.645633   -1.647229
      7          1           0       -7.995903    0.789068    0.095739
      8          8           0       -7.655434   -1.088493   -0.671288
      9          6           0       -6.262955   -1.024049   -0.764533
     10          1           0       -5.945991   -0.179529   -1.371039
     11          1           0       -5.926128   -1.928110   -1.255229
     12          6           0       -5.622039   -0.938897    0.611153
     13          1           0       -5.958722   -0.049782    1.141234
     14          1           0       -5.915446   -1.804887    1.200645
     15          8           0       -4.237548   -0.905452    0.432373
     16          6           0       -3.495168   -0.870495    1.615331
     17          1           0       -3.698098   -1.761759    2.209140
     18          1           0       -3.767159   -0.001259    2.210722
     19          6           0       -2.014925   -0.819162    1.294669
     20          1           0       -1.767087   -1.614369    0.596910
     21          1           0       -1.460506   -0.989832    2.210011
     22          8           0       -1.587918    0.418770    0.806415
     23          6           0       -1.753943    0.660941   -0.562453
     24          1           0       -2.791569    0.886946   -0.784241
     25          1           0       -1.472643   -0.216289   -1.137639
     26          6           0       -0.890811    1.844560   -0.963057
     27          1           0       -1.131525    2.704963   -0.349853
     28          1           0       -1.113727    2.106422   -1.991285
     29         16           0        0.903329    1.561043   -0.914969
     30          6           0        1.292696    1.860597    0.838917
     31          1           0        0.948602    2.858770    1.088532
     32          1           0        0.756221    1.153415    1.451038
     33          6           0        2.794512    1.784807    1.118648
     34          1           0        2.970317    2.219862    2.095178
     35          1           0        3.353462    2.382222    0.408393
     36         16           0        3.511996    0.112875    1.220957
     37          6           0        4.119847   -0.193740   -0.465748
     38          1           0        3.357298    0.100575   -1.174261
     39          1           0        4.215337   -1.269614   -0.538477
     40          6           0        5.443598    0.487098   -0.821508
     41          1           0        5.594289    0.434442   -1.894994
     42          1           0        5.411038    1.537807   -0.563252
     43         16           0        6.923832   -0.178464   -0.005917
     44          6           0        7.245714   -1.654920   -1.018906
     45          1           0        6.396411   -2.325664   -0.968166
     46          1           0        7.372093   -1.353374   -2.052512
     47          6           0        8.499907   -2.367548   -0.520185
     48          1           0        8.384490   -2.687586    0.509382
     49          1           0        8.693710   -3.246241   -1.126940
     50          1           0        9.367263   -1.719335   -0.578094
 ---------------------------------------------------------------------
 Stoichiometry    C14H30O3S3
 Framework group  C1[X(C14H30O3S3)]
                         Standard orientation:                         
 ---------------------------------------------------------------------
 Center     Atomic      Atomic             Coordinates (Angstroms)
 Number     Number       Type             X           Y           Z
 ---------------------------------------------------------------------
      1          6           0       -9.817825   -0.136205   -0.572563
      2          1           0      -10.028023   -0.630927    0.368945
      3          1           0      -10.380034    0.791732   -0.608840
      4          1           0      -10.157229   -0.778373   -1.377215
      5          6           0       -8.332965    0.136967   -0.707685
      6          1           0       -8.123906    0.645636   -1.647231
      7          1           0       -7.995903    0.789072    0.095738
      8          8           0       -7.655435   -1.088490   -0.671289
      9          6           0       -6.262956   -1.024046   -0.764534
     10          1           0       -5.945992   -0.179527   -1.371040
     11          1           0       -5.926130   -1.928108   -1.255230
     12          6           0       -5.622040   -0.938895    0.611152
     13          1           0       -5.958722   -0.049780    1.141233
     14          1           0       -5.915448   -1.804885    1.200644
     15          8           0       -4.237549   -0.905451    0.432372
     16          6           0       -3.495169   -0.870495    1.615330
     17          1           0       -3.698099   -1.761759    2.209138
     18          1           0       -3.767159   -0.001259    2.210721
     19          6           0       -2.014926   -0.819163    1.294668
     20          1           0       -1.767089   -1.614370    0.596909
     21          1           0       -1.460507   -0.989833    2.210009
     22          8           0       -1.587918    0.418769    0.806413
     23          6           0       -1.753942    0.660939   -0.562454
     24          1           0       -2.791569    0.886945   -0.784242
     25          1           0       -1.472643   -0.216291   -1.137640
     26          6           0       -0.890809    1.844559   -0.963058
     27          1           0       -1.131523    2.704962   -0.349854
     28          1           0       -1.113726    2.106420   -1.991287
     29         16           0        0.903330    1.561040   -0.914970
     30          6           0        1.292697    1.860594    0.838915
     31          1           0        0.948604    2.858767    1.088530
     32          1           0        0.756222    1.153412    1.451036
     33          6           0        2.794513    1.784803    1.118647
     34          1           0        2.970319    2.219858    2.095177
     35          1           0        3.353463    2.382217    0.408392
     36         16           0        3.511996    0.112870    1.220955
     37          6           0        4.119847   -0.193745   -0.465749
     38          1           0        3.357297    0.100570   -1.174262
     39          1           0        4.215336   -1.269620   -0.538478
     40          6           0        5.443598    0.487091   -0.821510
     41          1           0        5.594289    0.434435   -1.894996
     42          1           0        5.411039    1.537800   -0.563253
     43         16           0        6.923832   -0.178472   -0.005918
     44          6           0        7.245713   -1.654928   -1.018907
     45          1           0        6.396409   -2.325671   -0.968167
     46          1           0        7.372092   -1.353382   -2.052513
     47          6           0        8.499905   -2.367557   -0.520186
     48          1           0        8.384488   -2.687594    0.509381
     49          1           0        8.693707   -3.246250   -1.126941
     50          1           0        9.367261   -1.719344   -0.578095
 ---------------------------------------------------------------------
 Standard basis: 6-31G(d) (6D, 7F)
   372 basis functions,   752 primitive gaussians,   372 cartesian basis functions
    93 alpha electrons       93 beta electrons
 Requested convergence on RMS density matrix=1.00D-08 within  64 cycles.
 Requested convergence on MAX density matrix=1.00D-06.
 Requested convergence on             energy=1.00D-06.
 SCF Done:  E(RHF) =  -1964.69114406     A.U. after    4 cycles
            NFock=  4  Conv=0.36D-08     -V/T= 2.0006
 Step number   3 out of a maximum of   55
     Eigenvalues ---    0.00212   0.00230   0.00230   0.00230   0.00312
     Eigenvalues ---    0.00363   0.00382   0.00417   0.00501   0.00505
     Eigenvalues ---    0.00557   0.00563   0.00836   0.01674   0.01686
     Eigenvalues ---    0.01722   0.01731   0.01735   0.01741   0.04164
     Eigenvalues ---    0.04205   0.04346   0.04687   0.04906   0.05046
     Eigenvalues ---    0.05059   0.05097   0.05248   0.05306   0.05385
     Eigenvalues ---    0.05443   0.05479   0.05536   0.05627   0.05648
     Eigenvalues ---    0.05681   0.05743   0.05772   0.05797   0.05800
     Eigenvalues ---    0.05866   0.05934   0.05998   0.06013   0.06031
     Eigenvalues ---    0.06071   0.06084   0.10620   0.11150   0.11242
     Eigenvalues ---    0.11293   0.11343   0.11347   0.11456   0.11613
     Eigenvalues ---    0.11758   0.11787   0.11833   0.11841   0.13143
     Eigenvalues ---    0.13658   0.13695   0.13748   0.13757   0.13839
     Eigenvalues ---    0.13902   0.14008   0.14092   0.14104   0.14113
     Eigenvalues ---    0.14271   0.15545   0.16000   0.16000   0.16000
     Eigenvalues ---    0.16000   0.16056   0.19764   0.21957   0.21973
     Eigenvalues ---    0.22009   0.22021   0.22037   0.22042   0.22067
     Eigenvalues ---    0.22077   0.22090   0.22713   0.23265   0.23963
     Eigenvalues ---    0.24459   0.24566   0.24688   0.24726   0.24828
     Eigenvalues ---    0.24869   0.25000   0.25000   0.25000   0.25349
     Eigenvalues ---    0.28426   0.29350   0.29625   0.29905   0.30322
     Eigenvalues ---    0.30522   0.30791   0.32150   0.34045   0.34857
     Eigenvalues ---    0.34970   0.34999   0.35021   0.35057   0.35076
     Eigenvalues ---    0.35175   0.35260   0.35307   0.35341   0.35364
     Eigenvalues ---    0.35401   0.35411   0.35422   0.35477   0.35498
     Eigenvalues ---    0.35500   0.35507   0.35514   0.35527   0.35562
     Eigenvalues ---    0.35582   0.35585   0.35606   0.35691   0.35699
     Eigenvalues ---    0.35805   0.35878   0.37485   0.44918   0.45593
     Eigenvalues ---    0.45633   0.46096   0.46108   0.46341
 Maximum Force            0.000001     0.000015     YES
 RMS     Force            0.000000     0.000010     YES
 Maximum Displacement     0.000113     0.000060     NO 
 RMS     Displacement     0.000031     0.000040     YES
                          Input orientation:                          
 ---------------------------------------------------------------------
 Center     Atomic      Atomic             Coordinates (Angstroms)
 Number     Number       Type             X           Y           Z
 ---------------------------------------------------------------------
      1          6           0       -9.817838   -0.136192   -0.572550
      2          1           0      -10.028036   -0.630906    0.368962
      3          1           0      -10.380045    0.791747   -0.608833
      4          1           0      -10.157246   -0.778365   -1.377196
      5          6           0       -8.332978    0.136976   -0.707677
      6          1           0       -8.123920    0.645637   -1.647228
      7          1           0       -7.995912    0.789085    0.095740
      8          8           0       -7.655451   -1.088483   -0.671274
      9          6           0       -6.262972   -1.024044   -0.764523
     10          1           0       -5.946007   -0.179530   -1.371036
     11          1           0       -5.926150   -1.928110   -1.255213
     12          6           0       -5.622054   -0.938883    0.611161
     13          1           0       -5.958732   -0.049763    1.141236
     14          1           0       -5.915463   -1.804868    1.200661
     15          8           0       -4.237562   -0.905445    0.432378
     16          6           0       -3.495180   -0.870482    1.615335
     17          1           0       -3.698112   -1.761740    2.209150
     18          1           0       -3.767167   -0.001240    2.210719
     19          6           0       -2.014938   -0.819156    1.294669
     20          1           0       -1.767104   -1.614370    0.596915
     21          1           0       -1.460517   -0.989821    2.210011
     22          8           0       -1.587927    0.418771    0.806405
     23          6           0       -1.753952    0.660932   -0.562464
     24          1           0       -2.791578    0.886940   -0.784253
     25          1           0       -1.472656   -0.216303   -1.137643
     26          6           0       -0.890815    1.844545   -0.963077
     27          1           0       -1.131526    2.704953   -0.349879
     28          1           0       -1.113730    2.106401   -1.991307
     29         16           0        0.903324    1.561020   -0.914985
     30          6           0        1.292683    1.860548    0.838906
     31          1           0        0.948585    2.858717    1.088534
     32          1           0        0.756209    1.153355    1.451014
     33          6           0        2.794499    1.784760    1.118643
     34          1           0        2.970298    2.219803    2.095179
     35          1           0        3.353449    2.382187    0.408398
     36         16           0        3.511990    0.112830    1.220932
     37          6           0        4.119867   -0.193754   -0.465769
     38          1           0        3.357324    0.100564   -1.174288
     39          1           0        4.215369   -1.269626   -0.538512
     40          6           0        5.443615    0.487103   -0.821500
     41          1           0        5.594322    0.434464   -1.894985
     42          1           0        5.411041    1.537808   -0.563229
     43         16           0        6.923845   -0.178455   -0.005899
     44          6           0        7.245754   -1.654896   -1.018901
     45          1           0        6.396457   -2.325648   -0.968181
     46          1           0        7.372144   -1.353337   -2.052502
     47          6           0        8.499947   -2.367519   -0.520172
     48          1           0        8.384519   -2.687570    0.509389
     49          1           0        8.693765   -3.246203   -1.126936
     50          1           0        9.367298   -1.719297   -0.578062
 ---------------------------------------------------------------------
 Stoichiometry    C14H30O3S3
 Framework group  C1[X(C14H30O3S3)]
                         Standard orientation:                         
 ---------------------------------------------------------------------
 Center     Atomic      Atomic             Coordinates (Angstroms)
 Number     Number       Type             X           Y           Z
 ---------------------------------------------------------------------
      1          6           0       -9.817837   -0.136194   -0.572550
      2          1           0      -10.028034   -0.630908    0.368963
      3          1           0      -10.380044    0.791745   -0.608833
      4          1           0      -10.157245   -0.778367   -1.377196
      5          6           0       -8.332976    0.136974   -0.707677
      6          1           0       -8.123919    0.645636   -1.647228
      7          1           0       -7.995911    0.789084    0.095740
      8          8           0       -7.655449   -1.088484   -0.671274
      9          6           0       -6.262970   -1.024045   -0.764523
     10          1           0       -5.946005   -0.179531   -1.371036
     11          1           0       -5.926147   -1.928111   -1.255212
     12          6           0       -5.622052   -0.938884    0.611161
     13          1           0       -5.958731   -0.049764    1.141236
     14          1           0       -5.915461   -1.804869    1.200661
     15          8           0       -4.237561   -0.905445    0.432378
     16          6           0       -3.495178   -0.870481    1.615335
     17          1           0       -3.698110   -1.761740    2.209151
     18          1           0       -3.767166   -0.001240    2.210719
     19          6           0       -2.014937   -0.819155    1.294669
     20          1           0       -1.767102   -1.614368    0.596915
     21          1           0       -1.460515   -0.989819    2.210011
     22          8           0       -1.587926    0.418772    0.806405
     23          6           0       -1.753950    0.660933   -0.562464
     24          1           0       -2.791577    0.886941   -0.784252
     25          1           0       -1.472654   -0.216302   -1.137643
     26          6           0       -0.890814    1.844547   -0.963077
     27          1           0       -1.131525    2.704955   -0.349879
     28          1           0       -1.113729    2.106402   -1.991307
     29         16           0        0.903325    1.561022   -0.914985
     30          6           0        1.292684    1.860551    0.838907
     31          1           0        0.948585    2.858719    1.088535
     32          1           0        0.756210    1.153357    1.451015
     33          6           0        2.794500    1.784763    1.118643
     34          1           0        2.970298    2.219806    2.095179
     35          1           0        3.353449    2.382190    0.408398
     36         16           0        3.511991    0.112833    1.220932
     37          6           0        4.119868   -0.193751   -0.465769
     38          1           0        3.357326    0.100568   -1.174288
     39          1           0        4.215371   -1.269623   -0.538512
     40          6           0        5.443616    0.487107   -0.821500
     41          1           0        5.594323    0.434468   -1.894985
     42          1           0        5.411042    1.537812   -0.563229
     43         16           0        6.923847   -0.178451   -0.005898
     44          6           0        7.245756   -1.654891   -1.018901
     45          1           0        6.396459   -2.325643   -0.968181
     46          1           0        7.372146   -1.353332   -2.052502
     47          6           0        8.499950   -2.367514   -0.520172
     48          1           0        8.384522   -2.687565    0.509389
     49          1           0        8.693768   -3.246198   -1.126936
     50          1           0        9.367300   -1.719291   -0.578062
 ---------------------------------------------------------------------
 Standard basis: 6-31G(d) (6D, 7F)
   372 basis functions,   752 primitive gaussians,   372 cartesian basis functions
    93 alpha electrons       93 beta electrons
 Requested convergence on RMS density matrix=1.00D-08 within  64 cycles.
 Requested convergence on MAX density matrix=1.00D-06.
 Requested convergence on             energy=1.00D-06.
 SCF Done:  E(RHF) =  -1964.69114406     A.U. after    4 cycles
            NFock=  4  Conv=0.31D-08     -V/T= 2.0006
 Step number   4 out of a maximum of   55
     Eigenvalues ---    0.00212   0.00228   0.00230   0.00230   0.00360
     Eigenvalues ---    0.00367   0.00417   0.00501   0.00504   0.00554
     Eigenvalues ---    0.00557   0.00641   0.00845   0.01673   0.01686
     Eigenvalues ---    0.01724   0.01731   0.01738   0.01742   0.04001
     Eigenvalues ---    0.04165   0.04414   0.04527   0.04725   0.04948
     Eigenvalues ---    0.05057   0.05079   0.05285   0.05343   0.05384
     Eigenvalues ---    0.05445   0.05485   0.05537   0.05629   0.05644
     Eigenvalues ---    0.05678   0.05739   0.05764   0.05785   0.05798
     Eigenvalues ---    0.05801   0.05889   0.05983   0.06009   0.06027
     Eigenvalues ---    0.06066   0.06086   0.10580   0.11156   0.11228
     Eigenvalues ---    0.11287   0.11302   0.11345   0.11488   0.11619
     Eigenvalues ---    0.11759   0.11792   0.11829   0.11888   0.13182
     Eigenvalues ---    0.13658   0.13694   0.13748   0.13759   0.13846
     Eigenvalues ---    0.13898   0.13960   0.14090   0.14105   0.14116
     Eigenvalues ---    0.14231   0.15516   0.15983   0.16000   0.16000
     Eigenvalues ---    0.16000   0.16002   0.19888   0.21778   0.21957
     Eigenvalues ---    0.21975   0.22010   0.22025   0.22037   0.22054
     Eigenvalues ---    0.22074   0.22091   0.22876   0.23216   0.24171
     Eigenvalues ---    0.24440   0.24567   0.24674   0.24779   0.24825
     Eigenvalues ---    0.24880   0.24956   0.25000   0.25000   0.25234
     Eigenvalues ---    0.28269   0.29424   0.29620   0.29910   0.30334
     Eigenvalues ---    0.30604   0.30781   0.32166   0.34407   0.34847
     Eigenvalues ---    0.34966   0.34999   0.35011   0.35031   0.35059
     Eigenvalues ---    0.35175   0.35209   0.35282   0.35328   0.35358
     Eigenvalues ---    0.35365   0.35410   0.35422   0.35468   0.35478
     Eigenvalues ---    0.35498   0.35501   0.35509   0.35528   0.35562
     Eigenvalues ---    0.35576   0.35586   0.35588   0.35688   0.35699
     Eigenvalues ---    0.35775   0.35952   0.37974   0.43918   0.45590
     Eigenvalues ---    0.45628   0.46078   0.46109   0.46192
 Maximum Force            0.000000     0.000015     YES
 RMS     Force            0.000000     0.000010     YES
 Maximum Displacement     0.000052     0.000060     YES
 RMS     Displacement     0.000013     0.000040     YES
 Optimization completed.
    -- Stationary point found.
                          Input orientation:                          
 ---------------------------------------------------------------------
 Center     Atomic      Atomic             Coordinates (Angstroms)
 Number     Number       Type             X           Y           Z
 ---------------------------------------------------------------------
      1          6           0       -9.817838   -0.136192   -0.572550
      2          1           0      -10.028036   -0.630906    0.368962
      3          1           0      -10.380045    0.791747   -0.608833
      4          1           0      -10.157246   -0.778365   -1.377196
      5          6           0       -8.332978    0.136976   -0.707677
      6          1           0       -8.123920    0.645637   -1.647228
      7          1           0       -7.995912    0.789085    0.095740
      8          8           0       -7.655451   -1.088483   -0.671274
      9          6           0       -6.262972   -1.024044   -0.764523
     10          1           0       -5.946007   -0.179530   -1.371036
     11          1           0       -5.926150   -1.928110   -1.255213
     12          6           0       -5.622054   -0.938883    0.611161
     13          1           0       -5.958732   -0.049763    1.141236
     14          1           0       -5.915463   -1.804868    1.200661
     15          8           0       -4.237562   -0.905445    0.432378
     16          6           0       -3.495180   -0.870482    1.615335
     17          1           0       -3.698112   -1.761740    2.209150
     18          1           0       -3.767167   -0.001240    2.210719
     19          6           0       -2.014938   -0.819156    1.294669
     20          1           0       -1.767104   -1.614370    0.596915
     21          1           0       -1.460517   -0.989821    2.210011
     22          8           0       -1.587927    0.418771    0.806405
     23          6           0       -1.753952    0.660932   -0.562464
     24          1           0       -2.791578    0.886940   -0.784253
     25          1           0       -1.472656   -0.216303   -1.137643
     26          6           0       -0.890815    1.844545   -0.963077
     27          1           0       -1.131526    2.704953   -0.349879
     28          1           0       -1.113730    2.106401   -1.991307
     29         16           0        0.903324    1.561020   -0.914985
     30          6           0        1.292683    1.860548    0.838906
     31          1           0        0.948585    2.858717    1.088534
     32          1           0        0.756209    1.153355    1.451014
     33          6           0        2.794499    1.784760    1.118643
     34          1           0        2.970298    2.219803    2.095179
     35          1           0        3.353449    2.382187    0.408398
     36         16           0        3.511990    0.112830    1.220932
     37          6           0        4.119867   -0.193754   -0.465769
     38          1           0        3.357324    0.100564   -1.174288
     39          1           0        4.215369   -1.269626   -0.538512
     40          6           0        5.443615    0.487103   -0.821500
     41          1           0        5.594322    0.434464   -1.894985
     42          1           0        5.411041    1.537808   -0.563229
     43         16           0        6.923845   -0.178455   -0.005899
     44          6           0        7.245754   -1.654896   -1.018901
     45          1           0        6.396457   -2.325648   -0.968181
     46          1           0        7.372144   -1.353337   -2.052502
     47          6           0        8.499947   -2.367519   -0.520172
     48          1           0        8.384519   -2.687570    0.509389
     49          1           0        8.693765   -3.246203   -1.126936
     50          1           0        9.367298   -1.719297   -0.578062
 ---------------------------------------------------------------------
 Stoichiometry    C14H30O3S3
 Framework group  C1[X(C14H30O3S3)]
                         Standard orientation:                         
 ---------------------------------------------------------------------
 Center     Atomic      Atomic             Coordinates (Angstroms)
 Number     Number       Type             X           Y           Z
 ---------------------------------------------------------------------
      1          6           0       -9.817837   -0.136194   -0.572550
      2          1           0      -10.028034   -0.630908    0.368963
      3          1           0      -10.380044    0.791745   -0.608833
      4          1           0      -10.157245   -0.778367   -1.377196
      5          6           0       -8.332976    0.136974   -0.707677
      6          1           0       -8.123919    0.645636   -1.647228
      7          1           0       -7.995911    0.789084    0.095740
      8          8           0       -7.655449   -1.088484   -0.671274
      9          6           0       -6.262970   -1.024045   -0.764523
     10          1           0       -5.946005   -0.179531   -1.371036
     11          1           0       -5.926147   -1.928111   -1.255212
     12          6           0       -5.622052   -0.938884    0.611161
     13          1           0       -5.958731   -0.049764    1.141236
     14          1           0       -5.915461   -1.804869    1.200661
     15          8           0       -4.237561   -0.905445    0.432378
     16          6           0       -3.495178   -0.870481    1.615335
     17          1           0       -3.698110   -1.761740    2.209151
     18          1           0       -3.767166   -0.001240    2.210719
     19          6           0       -2.014937   -0.819155    1.294669
     20          1           0       -1.767102   -1.614368    0.596915
     21          1           0       -1.460515   -0.989819    2.210011
     22          8           0       -1.587926    0.418772    0.806405
     23          6           0       -1.753950    0.660933   -0.562464
     24          1           0       -2.791577    0.886941   -0.784252
     25          1           0       -1.472654   -0.216302   -1.137643
     26          6           0       -0.890814    1.844547   -0.963077
     27          1           0       -1.131525    2.704955   -0.349879
     28          1           0       -1.113729    2.106402   -1.991307
     29         16           0        0.903325    1.561022   -0.914985
     30          6           0        1.292684    1.860551    0.838907
     31          1           0        0.948585    2.858719    1.088535
     32          1           0        0.756210    1.153357    1.451015
     33          6           0        2.794500    1.784763    1.118643
     34          1           0        2.970298    2.219806    2.095179
     35          1           0        3.353449    2.382190    0.408398
     36         16           0        3.511991    0.112833    1.220932
     37          6           0        4.119868   -0.193751   -0.465769
     38          1           0        3.357326    0.100568   -1.174288
     39          1           0        4.215371   -1.269623   -0.538512
     40          6           0        5.443616    0.487107   -0.821500
     41          1           0        5.594323    0.434468   -1.894985
     42          1           0        5.411042    1.537812   -0.563229
     43         16           0        6.923847   -0.178451   -0.005898
     44          6           0        7.245756   -1.654891   -1.018901
     45          1           0        6.396459   -2.325643   -0.968181
     46          1           0        7.372146   -1.353332   -2.052502
     47          6           0        8.499950   -2.367514   -0.520172
     48          1           0        8.384522   -2.687565    0.509389
     49          1           0        8.693768   -3.246198   -1.126936
     50          1           0        9.367300   -1.719291   -0.578062
 ---------------------------------------------------------------------
 Mulliken charges:
     1  C   -0.488656
     2  H    0.173105
     3  H    0.157404
     4  H    0.176463
     5  C    0.017011
     6  H    0.142822
     7  H    0.136207
     8  O   -0.631332
     9  C    0.002674
    10  H    0.150187
    11  H    0.181933
    12  C    0.011508
    13  H    0.142461
    14  H    0.154062
    15  O   -0.641433
    16  C    0.008561
    17  H    0.141743
    18  H    0.153242
    19  C   -0.001991
    20  H    0.162694
    21  H    0.174985
    22  O   -0.635350
    23  C    0.038800
    24  H    0.166276
    25  H    0.156600
    26  C   -0.502588
    27  H    0.199573
    28  H    0.196744
    29  S    0.097410
    30  C   -0.444510
    31  H    0.183870
    32  H    0.235628
    33  C   -0.502868
    34  H    0.210184
    35  H    0.201729
    36  S    0.134182
    37  C   -0.483686
    38  H    0.226881
    39  H    0.201403
    40  C   -0.475381
    41  H    0.192061
    42  H    0.202507
    43  S    0.133066
    44  C   -0.458957
    45  H    0.184015
    46  H    0.183234
    47  C   -0.495256
    48  H    0.181121
    49  H    0.170284
    50  H    0.179378
 Sum of Mulliken charges =  -0.00000
 Dipole moment (field-independent basis, Debye):
    X=             -3.1453    Y=              0.7284    Z=             -1.0097  Tot=              3.3828
 Quadrupole moment (field-independent basis, Debye-Ang):
   XX=           -154.3099   YY=           -143.2580   ZZ=           -145.4689
   XY=            -15.4401   XZ=            -14.7191   YZ=              1.5505
 Traceless Quadrupole moment (field-independent basis, Debye-Ang):
   XX=             -6.6310   YY=              4.4209   ZZ=              2.2100
   XY=            -15.4401   XZ=            -14.7191   YZ=              1.5505
 Octapole moment (field-independent basis, Debye-Ang**2):
  XXX=           -170.0262  YYY=             -5.4797  ZZZ=              2.6732  XYY=             14.1745
  XXY=             23.3761  XXZ=            -64.8626  XZZ=            -36.7255  YZZ=             -3.4528
  YYZ=             10.4551  XYZ=             34.3069
 Hexadecapole moment (field-independent basis, Debye-Ang**3):
 XXXX=         -26102.6397 YYYY=          -1449.0708 ZZZZ=           -940.9599 XXXY=          -1192.4123
 XXXZ=           -541.7105 YYYX=              3.5573 YYYZ=             28.8223 ZZZX=            -26.8000
 ZZZY=              4.5629 XXYY=          -4459.2811 XXZZ=          -4387.0138 YYZZ=           -397.1521
 XXYZ=             -0.1986 YYXZ=             -0.0261 ZZXY=             22.9650
 Job cpu time:       0 days  0 hours 20 minutes 13.9 seconds.
 Normal termination of Gaussian 16 at Sat Jul  8 19:53:12 2023.
