 Copyright (c) 1988-2019, Gaussian, Inc.  All Rights Reserved.
  
 This is part of the Gaussian(R) 16 program.  It is based on
 the Gaussian(R) 09 system (copyright 2009, Gaussian, Inc.),
 the Gaussian(R) 03 system (copyright 2003, Gaussian, Inc.),
 the Gaussian(R) 98 system (copyright 1998, Gaussian, Inc.),
 the Gaussian(R) 94 system (copyright 1995, Gaussian, Inc.),
 the Gaussian 92(TM) system (copyright 1992, Gaussian, Inc.),
 the Gaussian 90(TM) system (copyright 1990, Gaussian, Inc.),
 the Gaussian 88(TM) system (copyright 1988, Gaussian, Inc.),
 the Gaussian 86(TM) system (copyright 1986, Carnegie Mellon
 University), and the Gaussian 82(TM) system (copyright 1983,
 Carnegie Mellon University). Gaussian is a federally registered
 trademark of Gaussian, Inc.
 Cite this work as:
 Gaussian 16, Revision C.01,
 M. J. Frisch, G. W. Trucks, H. B. Schlegel, G. E. Scuseria, 
 M. A. Robb, J. R. Cheeseman, G. Scalmani, V. Barone, 
 G. A. Petersson, H. Nakatsuji, X. Li, M. Caricato, A. V. Marenich, 
 J. Bloino, B. G. Janesko, R. Gomperts, B. Mennucci, H. P. Hratchian, 
 J. V. Ortiz, A. F. Izmaylov, J. L. Sonnenberg, D. Williams-Young, 
 F. Ding, F. Lipparini, F. Egidi, J. Goings, B. Peng, A. Petrone, 
 T. Henderson, D. Ranasinghe, V. G. Zakrzewski, J. Gao, N. Rega, 
 G. Zheng, W. Liang, M. Hada, M. Ehara, K. Toyota, R. Fukuda, 
 J. Hasegawa, M. Ishida, T. Nakajima, Y. Honda, O. Kitao, H. Nakai, 
 T. Vreven, K. Throssell, J. A. Montgomery, Jr., J. E. Peralta, 
 F. Ogliaro, M. J. Bearpark, J. J. Heyd, E. N. Brothers, K. N. Kudin, 
 V. N. Staroverov, T. A. Keith, R. Kobayashi, J. Normand, 
 K. Raghavachari, A. P. Rendell, J. C. Burant, S. S. Iyengar, 
 J. Tomasi, M. Cossi, J. M. Millam, M. Klene, C. Adamo, R. Cammi, 
 J. W. Ochterski, R. L. Martin, K. Morokuma, O. Farkas, 
 J. B. Foresman, and D. J. Fox, Gaussian, Inc., Wallingford CT, 2019.
 
 ******************************************
 Gaussian 16:  EM64L-G16RevC.01  3-Jul-2019
                 8-Jul-2023 
 ******************************************
 ----------------------------------------------------------------------
 #P HF/6-31G(d) Opt=(Tight,MaxCycle=55) GFInput GFPrint SCF(Conver=8,XQ
 C,MaxConventionalCycles=64,MaxCycle=128) Test
 ----------------------------------------------------------------------
 1/6=55,7=10,18=20,19=15,38=1/1,3;
 2/9=110,12=2,17=6,18=5,40=1/2;
 3/5=1,6=6,7=1,11=9,24=110,25=1,30=1,71=1/1,2,3;
 4//1;
 5/5=2,6=8,7=128,8=3,13=1,38=5,85=64/2,8;
 6/7=2,8=2,9=2,10=2,28=1/1;
 7//1,2,3,16;
 1/6=55,7=10,18=20,19=15/3(2);
 2/9=110/2;
 99//99;
 2/9=110/2;
 3/5=1,6=6,7=1,11=9,25=1,30=1,71=1/1,2,3;
 4/5=5,16=3,69=1/1;
 5/5=2,6=8,7=128,8=3,13=1,38=5,85=64/2,8;
 7//1,2,3,16;
 1/6=55,7=10,18=20,19=15/3(-5);
 2/9=110/2;
 6/7=2,8=2,9=2,10=2,19=2,28=1/1;
 99/9=1/99;
 ----------------------------------------------------------
 Optimization step - Input generated by PyRED DVE-DMDS-OPLS
 ----------------------------------------------------------
 Symbolic Z-matrix:
 Charge =  0 Multiplicity = 1
 C                    -2.998     4.36     -0.181 
 H                    -2.708     4.986    -1.03 
 H                    -3.977     3.919    -0.391 
 H                    -3.084     4.999     0.702 
 C                    -1.966     3.276     0.053 
 H                    -2.253     2.642     0.905 
 H                    -1.896     2.622    -0.829 
 O                    -0.726     3.904     0.318 
 C                     0.305     3.03      0.712 
 H                    -0.065     2.266     1.411 
 H                     1.042     3.64      1.245 
 C                     0.974     2.348    -0.48 
 H                     0.273     1.675    -0.983 
 H                     1.293     3.103    -1.21 
 O                     2.07      1.555    -0.053 
 C                     3.305     2.248    -0.033 
 H                     3.206     3.198     0.512 
 H                     3.626     2.476    -1.06 
 C                     4.365     1.412     0.656 
 H                     3.993     1.1       1.642 
 H                     5.243     2.047     0.813 
 O                     4.808     0.303    -0.09 
 C                     4.112    -0.918     0.087 
 H                     3.472    -0.863     0.976 
 H                     4.855    -1.706     0.257 
 C                     3.288    -1.252    -1.148 
 H                     3.95     -1.339    -2.014 
 H                     2.582    -0.445    -1.35 
 S                     2.436    -2.859    -1.046 
 C                     1.273    -2.603     0.338 
 H                     0.751    -3.56      0.419 
 H                     1.812    -2.454     1.276 
 C                     0.29     -1.462     0.109 
 H                    -0.23     -1.59     -0.846 
 H                     0.827    -0.512     0.065 
 S                    -0.91     -1.225     1.461 
 C                    -1.932    -2.729     1.343 
 H                    -2.556    -2.706     2.24 
 H                    -1.287    -3.61      1.426 
 C                    -2.818    -2.865     0.106 
 H                    -2.231    -2.809    -0.817 
 H                    -3.271    -3.862     0.122 
 S                    -4.21     -1.697    -0.011 
 C                    -3.5      -0.356    -1.026 
 H                    -2.663     0.094    -0.489 
 H                    -3.124    -0.786    -1.96 
 C                    -4.577     0.681    -1.319 
 H                    -5.421     0.238    -1.855 
 H                    -4.959     1.124    -0.394 
 H                    -4.168     1.486    -1.937 
 
 ITRead=  0  0  0  0  0  0  0  0  0  0  0  0  0  0  0  0  0  0  0  0
 ITRead=  0  0  0  0  0  0  0  0  0  0  0  0  0  0  0  0  0  0  0  0
 ITRead=  0  0  0  0  0  0  0  0  0  0
 MicOpt= -1 -1 -1 -1 -1 -1 -1 -1 -1 -1 -1 -1 -1 -1 -1 -1 -1 -1 -1 -1
 MicOpt= -1 -1 -1 -1 -1 -1 -1 -1 -1 -1 -1 -1 -1 -1 -1 -1 -1 -1 -1 -1
 MicOpt= -1 -1 -1 -1 -1 -1 -1 -1 -1 -1
 NAtoms=     50 NQM=       50 NQMF=       0 NMMI=      0 NMMIF=      0
                NMic=       0 NMicF=      0.
                          Input orientation:                          
 ---------------------------------------------------------------------
 Center     Atomic      Atomic             Coordinates (Angstroms)
 Number     Number       Type             X           Y           Z
 ---------------------------------------------------------------------
      1          6           0       -2.998000    4.360000   -0.181000
      2          1           0       -2.708000    4.986000   -1.030000
      3          1           0       -3.977000    3.919000   -0.391000
      4          1           0       -3.084000    4.999000    0.702000
      5          6           0       -1.966000    3.276000    0.053000
      6          1           0       -2.253000    2.642000    0.905000
      7          1           0       -1.896000    2.622000   -0.829000
      8          8           0       -0.726000    3.904000    0.318000
      9          6           0        0.305000    3.030000    0.712000
     10          1           0       -0.065000    2.266000    1.411000
     11          1           0        1.042000    3.640000    1.245000
     12          6           0        0.974000    2.348000   -0.480000
     13          1           0        0.273000    1.675000   -0.983000
     14          1           0        1.293000    3.103000   -1.210000
     15          8           0        2.070000    1.555000   -0.053000
     16          6           0        3.305000    2.248000   -0.033000
     17          1           0        3.206000    3.198000    0.512000
     18          1           0        3.626000    2.476000   -1.060000
     19          6           0        4.365000    1.412000    0.656000
     20          1           0        3.993000    1.100000    1.642000
     21          1           0        5.243000    2.047000    0.813000
     22          8           0        4.808000    0.303000   -0.090000
     23          6           0        4.112000   -0.918000    0.087000
     24          1           0        3.472000   -0.863000    0.976000
     25          1           0        4.855000   -1.706000    0.257000
     26          6           0        3.288000   -1.252000   -1.148000
     27          1           0        3.950000   -1.339000   -2.014000
     28          1           0        2.582000   -0.445000   -1.350000
     29         16           0        2.436000   -2.859000   -1.046000
     30          6           0        1.273000   -2.603000    0.338000
     31          1           0        0.751000   -3.560000    0.419000
     32          1           0        1.812000   -2.454000    1.276000
     33          6           0        0.290000   -1.462000    0.109000
     34          1           0       -0.230000   -1.590000   -0.846000
     35          1           0        0.827000   -0.512000    0.065000
     36         16           0       -0.910000   -1.225000    1.461000
     37          6           0       -1.932000   -2.729000    1.343000
     38          1           0       -2.556000   -2.706000    2.240000
     39          1           0       -1.287000   -3.610000    1.426000
     40          6           0       -2.818000   -2.865000    0.106000
     41          1           0       -2.231000   -2.809000   -0.817000
     42          1           0       -3.271000   -3.862000    0.122000
     43         16           0       -4.210000   -1.697000   -0.011000
     44          6           0       -3.500000   -0.356000   -1.026000
     45          1           0       -2.663000    0.094000   -0.489000
     46          1           0       -3.124000   -0.786000   -1.960000
     47          6           0       -4.577000    0.681000   -1.319000
     48          1           0       -5.421000    0.238000   -1.855000
     49          1           0       -4.959000    1.124000   -0.394000
     50          1           0       -4.168000    1.486000   -1.937000
 ---------------------------------------------------------------------
 Stoichiometry    C14H30O3S3
 Framework group  C1[X(C14H30O3S3)]
                         Standard orientation:                         
 ---------------------------------------------------------------------
 Center     Atomic      Atomic             Coordinates (Angstroms)
 Number     Number       Type             X           Y           Z
 ---------------------------------------------------------------------
      1          6           0       -2.997933    4.360195   -0.181065
      2          1           0       -2.707900    4.986180   -1.030065
      3          1           0       -3.976956    3.919246   -0.391065
      4          1           0       -3.083899    4.999199    0.701935
      5          6           0       -1.965990    3.276141    0.052935
      6          1           0       -2.253023    2.642156    0.904935
      7          1           0       -1.896024    2.622137   -0.829065
      8          8           0       -0.725957    3.904076    0.317935
      9          6           0        0.304997    3.030022    0.711935
     10          1           0       -0.065043    2.266041    1.410935
     11          1           0        1.042029    3.639983    1.244935
     12          6           0        0.973962    2.347987   -0.480065
     13          1           0        0.272926    1.675023   -0.983065
     14          1           0        1.293001    3.102970   -1.210065
     15          8           0        2.069920    1.554929   -0.053065
     16          6           0        3.304956    2.247864   -0.033065
     17          1           0        3.206006    3.197870    0.511935
     18          1           0        3.625968    2.475848   -1.060065
     19          6           0        4.364913    1.411809    0.655935
     20          1           0        3.992896    1.099828    1.641935
     21          1           0        5.242946    2.046763    0.812935
     22          8           0        4.807855    0.302786   -0.090065
     23          6           0        4.111791   -0.918178    0.086935
     24          1           0        3.471793   -0.863144    0.975935
     25          1           0        4.854749   -1.706217    0.256935
     26          6           0        3.287773   -1.252135   -1.148065
     27          1           0        3.949769   -1.339169   -2.014065
     28          1           0        2.581815   -0.445098   -1.350065
     29         16           0        2.435689   -2.859090   -1.046065
     30          6           0        1.272702   -2.603029    0.337935
     31          1           0        0.750652   -3.560002    0.418935
     32          1           0        1.811710   -2.454057    1.275935
     33          6           0        0.289762   -1.461978    0.108935
     34          1           0       -0.230245   -1.589950   -0.846065
     35          1           0        0.826812   -0.512006    0.064935
     36         16           0       -0.910225   -1.224915    1.460935
     37          6           0       -1.932304   -2.728861    1.342935
     38          1           0       -2.556303   -2.705828    2.239935
     39          1           0       -1.287350   -3.609895    1.425935
     40          6           0       -2.818311   -2.864815    0.105935
     41          1           0       -2.231308   -2.808845   -0.817065
     42          1           0       -3.271364   -3.861791    0.121935
     43         16           0       -4.210250   -1.696742   -0.011065
     44          6           0       -3.500180   -0.355779   -1.026065
     45          1           0       -2.663156    0.094177   -0.489065
     46          1           0       -3.124202   -0.785799   -1.960065
     47          6           0       -4.577126    0.681277   -1.319065
     48          1           0       -5.421149    0.238322   -1.855065
     49          1           0       -4.959102    1.124297   -0.394065
     50          1           0       -4.168083    1.486256   -1.937065
 ---------------------------------------------------------------------
 Standard basis: 6-31G(d) (6D, 7F)
   372 basis functions,   752 primitive gaussians,   372 cartesian basis functions
    93 alpha electrons       93 beta electrons
 Requested convergence on RMS density matrix=1.00D-08 within  64 cycles.
 Requested convergence on MAX density matrix=1.00D-06.
 Requested convergence on             energy=1.00D-06.
 SCF Done:  E(RHF) =  -1964.68423330     A.U. after   13 cycles
            NFock= 13  Conv=0.42D-08     -V/T= 2.0009
 Mulliken charges:
     1  C   -0.489272
     2  H    0.172000
     3  H    0.160520
     4  H    0.175837
     5  C    0.010942
     6  H    0.155899
     7  H    0.135542
     8  O   -0.632796
     9  C   -0.004753
    10  H    0.167692
    11  H    0.171080
    12  C   -0.018749
    13  H    0.168267
    14  H    0.167205
    15  O   -0.655882
    16  C    0.000253
    17  H    0.145112
    18  H    0.164991
    19  C   -0.001140
    20  H    0.158079
    21  H    0.173696
    22  O   -0.639281
    23  C    0.030447
    24  H    0.151968
    25  H    0.176888
    26  C   -0.503096
    27  H    0.206397
    28  H    0.220924
    29  S    0.107939
    30  C   -0.473089
    31  H    0.196415
    32  H    0.207051
    33  C   -0.507865
    34  H    0.197069
    35  H    0.245345
    36  S    0.116812
    37  C   -0.469101
    38  H    0.215341
    39  H    0.193166
    40  C   -0.481745
    41  H    0.194450
    42  H    0.205795
    43  S    0.123429
    44  C   -0.463505
    45  H    0.214601
    46  H    0.179526
    47  C   -0.499603
    48  H    0.181225
    49  H    0.178101
    50  H    0.169871
 Sum of Mulliken charges =  -0.00000
 Dipole moment (field-independent basis, Debye):
    X=              0.2184    Y=              1.0083    Z=             -0.0930  Tot=              1.0358
 Quadrupole moment (field-independent basis, Debye-Ang):
   XX=           -161.9360   YY=           -150.4310   ZZ=           -150.2312
   XY=              7.0283   XZ=              7.2030   YZ=             -5.2843
 Traceless Quadrupole moment (field-independent basis, Debye-Ang):
   XX=             -7.7366   YY=              3.7684   ZZ=              3.9682
   XY=              7.0283   XZ=              7.2030   YZ=             -5.2843
 Octapole moment (field-independent basis, Debye-Ang**2):
  XXX=             39.6394  YYY=            -16.4475  ZZZ=             -3.3201  XYY=              1.0868
  XXY=             71.2385  XXZ=             13.0137  XZZ=             10.2308  YZZ=             16.2234
  YYZ=             20.7634  XYZ=              5.4933
 Hexadecapole moment (field-independent basis, Debye-Ang**3):
 XXXX=          -8525.2386 YYYY=          -5256.4782 ZZZZ=           -842.6802 XXXY=            -83.3795
 XXXZ=             87.0752 YYYX=            242.4271 YYYZ=            -91.8646 ZZZX=            -10.8047
 ZZZY=             -2.8344 XXYY=          -2110.2782 XXZZ=          -1412.9477 YYZZ=           -983.0711
 XXYZ=            -11.3566 YYXZ=              7.7701 ZZXY=             20.0466
 Step number   1 out of a maximum of   55
     Eigenvalues ---    0.00230   0.00230   0.00230   0.00230   0.00230
     Eigenvalues ---    0.00230   0.00400   0.00401   0.00455   0.00457
     Eigenvalues ---    0.00478   0.00559   0.00569   0.01446   0.01473
     Eigenvalues ---    0.01476   0.01493   0.01585   0.01588   0.04162
     Eigenvalues ---    0.04177   0.04438   0.04481   0.04540   0.04763
     Eigenvalues ---    0.04878   0.05020   0.05050   0.05063   0.05215
     Eigenvalues ---    0.05390   0.05547   0.05657   0.05663   0.05677
     Eigenvalues ---    0.05705   0.05711   0.05745   0.05748   0.05784
     Eigenvalues ---    0.05808   0.05819   0.05882   0.05897   0.05960
     Eigenvalues ---    0.06082   0.06111   0.11048   0.11205   0.11309
     Eigenvalues ---    0.11503   0.11516   0.11521   0.11616   0.11647
     Eigenvalues ---    0.11673   0.11833   0.11840   0.11906   0.13600
     Eigenvalues ---    0.13667   0.13805   0.13851   0.13860   0.13943
     Eigenvalues ---    0.13961   0.13980   0.13996   0.14124   0.14138
     Eigenvalues ---    0.14168   0.16000   0.16000   0.16000   0.16000
     Eigenvalues ---    0.16000   0.16000   0.21940   0.22006   0.22008
     Eigenvalues ---    0.22012   0.22020   0.22038   0.22045   0.22048
     Eigenvalues ---    0.22049   0.22060   0.22078   0.22108   0.24185
     Eigenvalues ---    0.24204   0.24371   0.24443   0.24476   0.24539
     Eigenvalues ---    0.25000   0.25000   0.25000   0.25000   0.25000
     Eigenvalues ---    0.25000   0.29643   0.29647   0.30029   0.30046
     Eigenvalues ---    0.30198   0.30789   0.30866   0.33655   0.33671
     Eigenvalues ---    0.33694   0.33716   0.33723   0.33787   0.33951
     Eigenvalues ---    0.34040   0.34094   0.34210   0.34218   0.34224
     Eigenvalues ---    0.34239   0.34252   0.34255   0.34261   0.34305
     Eigenvalues ---    0.34328   0.34334   0.34345   0.34358   0.34404
     Eigenvalues ---    0.34410   0.34429   0.34455   0.34475   0.34565
     Eigenvalues ---    0.34577   0.34636   0.34686   0.42674   0.42986
     Eigenvalues ---    0.43024   0.43223   0.44310   0.44342
 Maximum Force            0.034864     0.000015     NO 
 RMS     Force            0.005495     0.000010     NO 
 Maximum Displacement     2.841551     0.000060     NO 
 RMS     Displacement     0.734141     0.000040     NO 
                          Input orientation:                          
 ---------------------------------------------------------------------
 Center     Atomic      Atomic             Coordinates (Angstroms)
 Number     Number       Type             X           Y           Z
 ---------------------------------------------------------------------
      1          6           0       -2.318330    5.651592    0.083634
      2          1           0       -1.942977    6.211296   -0.773269
      3          1           0       -3.371093    5.422684   -0.085275
      4          1           0       -2.237028    6.284946    0.966558
      5          6           0       -1.520265    4.378031    0.274338
      6          1           0       -1.893079    3.811073    1.133963
      7          1           0       -1.617674    3.734448   -0.606169
      8          8           0       -0.172957    4.737416    0.486663
      9          6           0        0.687399    3.684989    0.837876
     10          1           0        0.213313    3.003263    1.550901
     11          1           0        1.540746    4.144439    1.337168
     12          6           0        1.172875    2.900681   -0.378748
     13          1           0        0.350076    2.367543   -0.853651
     14          1           0        1.592979    3.588129   -1.117143
     15          8           0        2.128717    1.932396    0.007825
     16          6           0        3.452857    2.418425   -0.015896
     17          1           0        3.508062    3.366706    0.528218
     18          1           0        3.766436    2.602698   -1.048306
     19          6           0        4.414371    1.449698    0.643228
     20          1           0        4.048874    1.189474    1.640995
     21          1           0        5.360807    1.978311    0.763062
     22          8           0        4.725885    0.297585   -0.099070
     23          6           0        3.983745   -0.890646    0.093123
     24          1           0        3.366208   -0.820961    0.990237
     25          1           0        4.712086   -1.687489    0.252051
     26          6           0        3.146451   -1.235042   -1.131595
     27          1           0        3.807800   -1.327794   -1.992417
     28          1           0        2.436138   -0.442382   -1.346547
     29         16           0        2.336400   -2.865001   -1.019727
     30          6           0        1.119205   -2.695554    0.329801
     31          1           0        0.704449   -3.698309    0.420617
     32          1           0        1.613480   -2.472206    1.272699
     33          6           0        0.008621   -1.691979    0.046979
     34          1           0       -0.463468   -1.915204   -0.909840
     35          1           0        0.414918   -0.685723   -0.016403
     36         16           0       -1.249168   -1.581449    1.361460
     37          6           0       -2.029141   -3.228144    1.319995
     38          1           0       -2.666485   -3.247685    2.202653
     39          1           0       -1.258276   -3.984579    1.471173
     40          6           0       -2.854021   -3.600445    0.087352
     41          1           0       -2.268958   -3.521667   -0.829480
     42          1           0       -3.129523   -4.651683    0.183697
     43         16           0       -4.427962   -2.714108   -0.139593
     44          6           0       -3.972631   -1.372538   -1.287893
     45          1           0       -3.244652   -0.723761   -0.808439
     46          1           0       -3.514037   -1.813748   -2.173614
     47          6           0       -5.222899   -0.592539   -1.676814
     48          1           0       -5.958793   -1.237132   -2.157377
     49          1           0       -5.691554   -0.139634   -0.802315
     50          1           0       -4.966924    0.205577   -2.374684
 ---------------------------------------------------------------------
 Stoichiometry    C14H30O3S3
 Framework group  C1[X(C14H30O3S3)]
                         Standard orientation:                         
 ---------------------------------------------------------------------
 Center     Atomic      Atomic             Coordinates (Angstroms)
 Number     Number       Type             X           Y           Z
 ---------------------------------------------------------------------
      1          6           0        1.567597    5.953746   -0.093644
      2          1           0        2.168504    6.161942   -0.979084
      3          1           0        0.579381    6.393204   -0.233452
      4          1           0        2.043685    6.432406    0.761650
      5          6           0        1.458961    4.459678    0.132614
      6          1           0        0.855888    4.244201    1.021017
      7          1           0        0.963949    3.982443   -0.719553
      8          8           0        2.763003    3.950545    0.305054
      9          6           0        2.842086    2.600334    0.681679
     10          1           0        2.083753    2.349927    1.430104
     11          1           0        3.820007    2.471653    1.146114
     12          6           0        2.718540    1.656023   -0.511641
     13          1           0        1.722300    1.707842   -0.949349
     14          1           0        3.435931    1.942639   -1.284622
     15          8           0        2.925707    0.317276   -0.104840
     16          6           0        4.277254   -0.081265   -0.172829
     17          1           0        4.906424    0.658812    0.331923
     18          1           0        4.598556   -0.141473   -1.217482
     19          6           0        4.499302   -1.418068    0.506168
     20          1           0        4.089805   -1.388670    1.520216
     21          1           0        5.578365   -1.554530    0.587006
     22          8           0        4.035818   -2.544328   -0.195353
     23          6           0        2.740866   -3.052783    0.057977
     24          1           0        2.321130   -2.610447    0.963065
     25          1           0        2.858372   -4.123120    0.234802
     26          6           0        1.816052   -2.856359   -1.136067
     27          1           0        2.258675   -3.342552   -2.004802
     28          1           0        1.708362   -1.801282   -1.369033
     29         16           0        0.200854   -3.680828   -0.944099
     30          6           0       -0.623652   -2.791905    0.420270
     31          1           0       -1.549333   -3.348432    0.558770
     32          1           0       -0.057256   -2.887181    1.344048
     33          6           0       -0.930102   -1.330520    0.118626
     34          1           0       -1.479147   -1.248643   -0.819482
     35          1           0       -0.008069   -0.765572    0.007555
     36         16           0       -1.823598   -0.465476    1.451096
     37          6           0       -3.430542   -1.324487    1.489980
     38          1           0       -3.919788   -0.942320    2.384554
     39          1           0       -3.255161   -2.387851    1.656651
     40          6           0       -4.362280   -1.158032    0.288897
     41          1           0       -3.881142   -1.462205   -0.641194
     42          1           0       -5.204717   -1.836296    0.432231
     43         16           0       -5.108419    0.486244    0.056468
     44          6           0       -3.989823    1.268710   -1.152754
     45          1           0       -3.000826    1.366318   -0.713324
     46          1           0       -3.918157    0.622854   -2.028660
     47          6           0       -4.545491    2.631488   -1.548855
     48          1           0       -5.538401    2.541930   -1.989411
     49          1           0       -4.618722    3.292494   -0.684436
     50          1           0       -3.892569    3.105556   -2.282673
 ---------------------------------------------------------------------
 Standard basis: 6-31G(d) (6D, 7F)
   372 basis functions,   752 primitive gaussians,   372 cartesian basis functions
    93 alpha electrons       93 beta electrons
 Requested convergence on RMS density matrix=1.00D-08 within  64 cycles.
 Requested convergence on MAX density matrix=1.00D-06.
 Requested convergence on             energy=1.00D-06.
 SCF Done:  E(RHF) =  -1964.68638301     A.U. after   15 cycles
            NFock= 15  Conv=0.24D-08     -V/T= 2.0008
 Step number   2 out of a maximum of   55
     Eigenvalues ---    0.00230   0.00230   0.00230   0.00230   0.00230
     Eigenvalues ---    0.00281   0.00401   0.00403   0.00455   0.00457
     Eigenvalues ---    0.00516   0.00569   0.00585   0.01447   0.01476
     Eigenvalues ---    0.01493   0.01506   0.01587   0.01788   0.04050
     Eigenvalues ---    0.04102   0.04403   0.04470   0.04523   0.04729
     Eigenvalues ---    0.04860   0.05033   0.05047   0.05060   0.05395
     Eigenvalues ---    0.05545   0.05653   0.05662   0.05686   0.05690
     Eigenvalues ---    0.05722   0.05738   0.05752   0.05780   0.05786
     Eigenvalues ---    0.05822   0.05891   0.05915   0.05949   0.06092
     Eigenvalues ---    0.06106   0.06913   0.11048   0.11211   0.11481
     Eigenvalues ---    0.11486   0.11501   0.11635   0.11640   0.11675
     Eigenvalues ---    0.11691   0.11902   0.11996   0.12032   0.13601
     Eigenvalues ---    0.13665   0.13832   0.13897   0.13937   0.13945
     Eigenvalues ---    0.13986   0.13988   0.14086   0.14194   0.14243
     Eigenvalues ---    0.14297   0.15998   0.16000   0.16000   0.16000
     Eigenvalues ---    0.16000   0.16001   0.21693   0.21948   0.22001
     Eigenvalues ---    0.22013   0.22024   0.22044   0.22046   0.22053
     Eigenvalues ---    0.22054   0.22065   0.22089   0.22870   0.23923
     Eigenvalues ---    0.24199   0.24274   0.24373   0.24450   0.24522
     Eigenvalues ---    0.24563   0.25000   0.25000   0.25000   0.25000
     Eigenvalues ---    0.29170   0.29636   0.29696   0.30032   0.30075
     Eigenvalues ---    0.30188   0.30803   0.30866   0.33660   0.33679
     Eigenvalues ---    0.33703   0.33719   0.33764   0.33853   0.33973
     Eigenvalues ---    0.34056   0.34117   0.34212   0.34220   0.34231
     Eigenvalues ---    0.34244   0.34253   0.34259   0.34293   0.34314
     Eigenvalues ---    0.34332   0.34341   0.34353   0.34390   0.34407
     Eigenvalues ---    0.34424   0.34447   0.34470   0.34524   0.34570
     Eigenvalues ---    0.34623   0.34670   0.41694   0.42576   0.42830
     Eigenvalues ---    0.43171   0.43940   0.44286   0.63927
 Maximum Force            0.013547     0.000015     NO 
 RMS     Force            0.002942     0.000010     NO 
 Maximum Displacement     2.848856     0.000060     NO 
 RMS     Displacement     0.653395     0.000040     NO 
                          Input orientation:                          
 ---------------------------------------------------------------------
 Center     Atomic      Atomic             Coordinates (Angstroms)
 Number     Number       Type             X           Y           Z
 ---------------------------------------------------------------------
      1          6           0       -2.903665    4.721919   -0.273080
      2          1           0       -2.571368    5.305258   -1.124749
      3          1           0       -3.902261    4.349452   -0.478617
      4          1           0       -2.949655    5.377214    0.589397
      5          6           0       -1.949348    3.574243   -0.012690
      6          1           0       -2.278420    2.986079    0.841492
      7          1           0       -1.917528    2.908095   -0.871656
      8          8           0       -0.679606    4.115070    0.244126
      9          6           0        0.309652    3.218102    0.657411
     10          1           0       -0.085620    2.496115    1.367463
     11          1           0        1.056575    3.808981    1.172664
     12          6           0        0.955523    2.487547   -0.515542
     13          1           0        0.242055    1.841127   -1.010074
     14          1           0        1.310964    3.206253   -1.247907
     15          8           0        2.007218    1.668784   -0.062338
     16          6           0        3.254557    2.311910   -0.054955
     17          1           0        3.175027    3.265807    0.460884
     18          1           0        3.572885    2.505096   -1.076123
     19          6           0        4.309246    1.491129    0.656458
     20          1           0        3.958326    1.233796    1.652172
     21          1           0        5.185201    2.121833    0.762486
     22          8           0        4.748657    0.348228   -0.019888
     23          6           0        4.113345   -0.895322    0.152327
     24          1           0        3.471309   -0.871018    1.025063
     25          1           0        4.895834   -1.622836    0.333471
     26          6           0        3.337066   -1.306481   -1.092420
     27          1           0        4.029364   -1.404523   -1.920127
     28          1           0        2.612839   -0.552677   -1.360587
     29         16           0        2.570132   -2.953731   -0.952343
     30          6           0        1.339058   -2.838969    0.387252
     31          1           0        0.838165   -3.798058    0.348941
     32          1           0        1.830462   -2.778197    1.348792
     33          6           0        0.327635   -1.710846    0.219707
     34          1           0       -0.139539   -1.770493   -0.755251
     35          1           0        0.820254   -0.750923    0.282405
     36         16           0       -0.938614   -1.639144    1.527785
     37          6           0       -1.999292   -3.079447    1.184284
     38          1           0       -2.638145   -3.150188    2.055755
     39          1           0       -1.381006   -3.969640    1.174777
     40          6           0       -2.865106   -3.068836   -0.077408
     41          1           0       -2.268155   -2.934288   -0.971466
     42          1           0       -3.324115   -4.048126   -0.161372
     43         16           0       -4.248900   -1.888163   -0.116994
     44          6           0       -3.526931   -0.417765   -0.913540
     45          1           0       -2.723104   -0.039220   -0.299761
     46          1           0       -3.118533   -0.710455   -1.874496
     47          6           0       -4.607590    0.641415   -1.102642
     48          1           0       -5.419147    0.270417   -1.719192
     49          1           0       -5.023890    0.951166   -0.149802
     50          1           0       -4.190813    1.518312   -1.588091
 ---------------------------------------------------------------------
 Stoichiometry    C14H30O3S3
 Framework group  C1[X(C14H30O3S3)]
                         Standard orientation:                         
 ---------------------------------------------------------------------
 Center     Atomic      Atomic             Coordinates (Angstroms)
 Number     Number       Type             X           Y           Z
 ---------------------------------------------------------------------
      1          6           0       -2.717916    4.879734   -0.177291
      2          1           0       -2.368509    5.463846   -1.021550
      3          1           0       -3.731689    4.550175   -0.381804
      4          1           0       -2.732514    5.521734    0.696217
      5          6           0       -1.807746    3.691343    0.057233
      6          1           0       -2.154103    3.102241    0.903903
      7          1           0       -1.807710    3.038996   -0.812842
      8          8           0       -0.516094    4.177625    0.313861
      9          6           0        0.439833    3.235775    0.705154
     10          1           0        0.021133    2.517989    1.405976
     11          1           0        1.212728    3.788198    1.224750
     12          6           0        1.048860    2.500308   -0.484322
     13          1           0        0.307345    1.890735   -0.984357
     14          1           0        1.427486    3.216751   -1.207223
     15          8           0        2.070506    1.633474   -0.052270
     16          6           0        3.342168    2.227034   -0.043182
     17          1           0        3.303530    3.174506    0.488925
     18          1           0        3.661187    2.424745   -1.063267
     19          6           0        4.368407    1.353727    0.646982
     20          1           0        4.014137    1.093632    1.640790
     21          1           0        5.269134    1.947765    0.757154
     22          8           0        4.758171    0.206025   -0.051311
     23          6           0        4.075633   -1.014406    0.104852
     24          1           0        3.440740   -0.979650    0.982447
     25          1           0        4.830101   -1.774954    0.268327
     26          6           0        3.275717   -1.373856   -1.140935
     27          1           0        3.958228   -1.485010   -1.975088
     28          1           0        2.579932   -0.587862   -1.391400
     29         16           0        2.445594   -2.991924   -1.022641
     30          6           0        1.228722   -2.851570    0.327452
     31          1           0        0.690301   -3.789523    0.276867
     32          1           0        1.728381   -2.826267    1.286322
     33          6           0        0.261328   -1.682038    0.185843
     34          1           0       -0.214165   -1.706940   -0.786597
     35          1           0        0.791673   -0.743338    0.260884
     36         16           0       -0.992589   -1.582796    1.503965
     37          6           0       -2.111240   -2.974468    1.144286
     38          1           0       -2.746694   -3.034774    2.019021
     39          1           0       -1.528476   -3.887911    1.115624
     40          6           0       -2.984162   -2.908741   -0.110824
     41          1           0       -2.388217   -2.782666   -1.006787
     42          1           0       -3.481823   -3.867750   -0.207689
     43         16           0       -4.320735   -1.674273   -0.120958
     44          6           0       -3.546760   -0.220098   -0.898218
     45          1           0       -2.724706    0.116298   -0.284033
     46          1           0       -3.156437   -0.512362   -1.866785
     47          6           0       -4.586184    0.883628   -1.062025
     48          1           0       -5.415684    0.555121   -1.678800
     49          1           0       -4.983785    1.193383   -0.101234
     50          1           0       -4.138450    1.751565   -1.535872
 ---------------------------------------------------------------------
 Standard basis: 6-31G(d) (6D, 7F)
   372 basis functions,   752 primitive gaussians,   372 cartesian basis functions
    93 alpha electrons       93 beta electrons
 Requested convergence on RMS density matrix=1.00D-08 within  64 cycles.
 Requested convergence on MAX density matrix=1.00D-06.
 Requested convergence on             energy=1.00D-06.
 SCF Done:  E(RHF) =  -1964.68746767     A.U. after   15 cycles
            NFock= 15  Conv=0.34D-08     -V/T= 2.0006
 Step number   3 out of a maximum of   55
     Eigenvalues ---    0.00228   0.00230   0.00230   0.00230   0.00230
     Eigenvalues ---    0.00369   0.00400   0.00411   0.00455   0.00457
     Eigenvalues ---    0.00541   0.00569   0.00778   0.01448   0.01476
     Eigenvalues ---    0.01493   0.01520   0.01588   0.01734   0.03988
     Eigenvalues ---    0.04085   0.04392   0.04457   0.04539   0.04755
     Eigenvalues ---    0.04865   0.05028   0.05037   0.05053   0.05389
     Eigenvalues ---    0.05542   0.05657   0.05667   0.05672   0.05689
     Eigenvalues ---    0.05726   0.05734   0.05759   0.05775   0.05779
     Eigenvalues ---    0.05783   0.05874   0.05897   0.05949   0.06069
     Eigenvalues ---    0.06103   0.06942   0.11048   0.11224   0.11470
     Eigenvalues ---    0.11496   0.11503   0.11637   0.11654   0.11704
     Eigenvalues ---    0.11725   0.11929   0.11997   0.12102   0.13612
     Eigenvalues ---    0.13670   0.13827   0.13907   0.13934   0.13942
     Eigenvalues ---    0.13986   0.14006   0.14108   0.14208   0.14272
     Eigenvalues ---    0.14286   0.15998   0.16000   0.16000   0.16000
     Eigenvalues ---    0.16000   0.16003   0.21413   0.21951   0.21996
     Eigenvalues ---    0.22019   0.22032   0.22042   0.22048   0.22052
     Eigenvalues ---    0.22071   0.22095   0.22193   0.23373   0.24160
     Eigenvalues ---    0.24200   0.24326   0.24426   0.24468   0.24528
     Eigenvalues ---    0.24745   0.25000   0.25000   0.25000   0.25641
     Eigenvalues ---    0.29628   0.29655   0.30006   0.30036   0.30163
     Eigenvalues ---    0.30777   0.30860   0.33640   0.33673   0.33696
     Eigenvalues ---    0.33718   0.33719   0.33839   0.33911   0.33987
     Eigenvalues ---    0.34109   0.34172   0.34214   0.34225   0.34235
     Eigenvalues ---    0.34247   0.34259   0.34293   0.34314   0.34326
     Eigenvalues ---    0.34341   0.34353   0.34389   0.34407   0.34423
     Eigenvalues ---    0.34431   0.34468   0.34506   0.34563   0.34618
     Eigenvalues ---    0.34664   0.35060   0.41662   0.42451   0.42818
     Eigenvalues ---    0.43177   0.43947   0.44262   0.66413
 Maximum Force            0.010502     0.000015     NO 
 RMS     Force            0.001462     0.000010     NO 
 Maximum Displacement     2.383591     0.000060     NO 
 RMS     Displacement     0.637059     0.000040     NO 
                          Input orientation:                          
 ---------------------------------------------------------------------
 Center     Atomic      Atomic             Coordinates (Angstroms)
 Number     Number       Type             X           Y           Z
 ---------------------------------------------------------------------
      1          6           0       -2.610604    4.613287    0.390011
      2          1           0       -2.407453    5.152910   -0.523861
      3          1           0       -3.615464    4.214597    0.337916
      4          1           0       -2.558925    5.310698    1.213627
      5          6           0       -1.603052    3.497181    0.580476
      6          1           0       -1.804985    2.954234    1.496387
      7          1           0       -1.667938    2.790872   -0.237787
      8          8           0       -0.327507    4.066890    0.639427
      9          6           0        0.731567    3.218951    0.954168
     10          1           0        0.452470    2.515342    1.728023
     11          1           0        1.513495    3.845829    1.350865
     12          6           0        1.245864    2.463787   -0.266339
     13          1           0        0.497544    1.782293   -0.637331
     14          1           0        1.478183    3.160308   -1.060292
     15          8           0        2.367787    1.692696    0.070846
     16          6           0        3.603850    2.321936   -0.113620
     17          1           0        3.616829    3.292713    0.365779
     18          1           0        3.791774    2.464083   -1.169888
     19          6           0        4.714647    1.497526    0.493492
     20          1           0        4.481526    1.290775    1.530286
     21          1           0        5.622165    2.082854    0.462032
     22          8           0        4.983608    0.318339   -0.190040
     23          6           0        4.250636   -0.832221    0.108690
     24          1           0        3.700973   -0.695702    1.028361
     25          1           0        4.956113   -1.634593    0.255521
     26          6           0        3.317674   -1.185580   -1.042367
     27          1           0        3.911448   -1.404626   -1.916681
     28          1           0        2.666219   -0.364656   -1.286608
     29         16           0        2.378761   -2.715376   -0.763046
     30          6           0        1.080846   -2.269239    0.431746
     31          1           0        0.631455   -3.222294    0.662696
     32          1           0        1.516114   -1.895002    1.343772
     33          6           0        0.024422   -1.308976   -0.109733
     34          1           0       -0.396497   -1.701099   -1.021375
     35          1           0        0.457937   -0.350402   -0.345999
     36         16           0       -1.300273   -0.916767    1.075456
     37          6           0       -2.178001   -2.494590    1.287283
     38          1           0       -2.810219   -2.332551    2.146283
     39          1           0       -1.461916   -3.253397    1.565864
     40          6           0       -3.022702   -3.027145    0.128341
     41          1           0       -2.444704   -3.132305   -0.776768
     42          1           0       -3.340581   -4.022024    0.404743
     43         16           0       -4.562499   -2.137436   -0.245094
     44          6           0       -4.079344   -0.963876   -1.548831
     45          1           0       -3.364850   -0.262689   -1.154344
     46          1           0       -3.612914   -1.513766   -2.353111
     47          6           0       -5.319251   -0.236737   -2.061602
     48          1           0       -6.043318   -0.931972   -2.462870
     49          1           0       -5.795612    0.328936   -1.273069
     50          1           0       -5.044297    0.451988   -2.849433
 ---------------------------------------------------------------------
 Stoichiometry    C14H30O3S3
 Framework group  C1[X(C14H30O3S3)]
                         Standard orientation:                         
 ---------------------------------------------------------------------
 Center     Atomic      Atomic             Coordinates (Angstroms)
 Number     Number       Type             X           Y           Z
 ---------------------------------------------------------------------
      1          6           0       -1.348785    5.111675    0.070925
      2          1           0       -1.066849    5.510040   -0.893151
      3          1           0       -2.422059    4.972787    0.085188
      4          1           0       -1.085155    5.836922    0.827174
      5          6           0       -0.637450    3.798518    0.329293
      6          1           0       -0.918916    3.396801    1.295658
      7          1           0       -0.915771    3.068389   -0.420432
      8          8           0        0.740180    4.035669    0.298374
      9          6           0        1.573599    2.978349    0.655003
     10          1           0        1.170686    2.429554    1.496608
     11          1           0        2.504825    3.420140    0.970272
     12          6           0        1.823228    2.025230   -0.508466
     13          1           0        0.912460    1.524377   -0.794301
     14          1           0        2.178081    2.577241   -1.368023
     15          8           0        2.737503    1.028220   -0.138253
     16          6           0        4.078964    1.313489   -0.415608
     17          1           0        4.354451    2.285141   -0.025224
     18          1           0        4.241286    1.320733   -1.485572
     19          6           0        4.983307    0.289041    0.228422
     20          1           0        4.760375    0.229148    1.286131
     21          1           0        6.003834    0.625739    0.117312
     22          8           0        4.919089   -0.970042   -0.355208
     23          6           0        3.942626   -1.874760    0.067027
     24          1           0        3.491451   -1.533733    0.987191
     25          1           0        4.436265   -2.813320    0.263203
     26          6           0        2.893398   -2.074352   -1.019018
     27          1           0        3.369365   -2.502450   -1.888019
     28          1           0        2.451583   -1.139001   -1.315471
     29         16           0        1.623519   -3.295432   -0.576047
     30          6           0        0.538153   -2.447631    0.613222
     31          1           0       -0.118822   -3.237606    0.941745
     32          1           0        1.098380   -2.122853    1.474597
     33          6           0       -0.276835   -1.300401    0.020773
     34          1           0       -0.827542   -1.645987   -0.839062
     35          1           0        0.365850   -0.501565   -0.313049
     36         16           0       -1.401854   -0.498750    1.206102
     37          6           0       -2.627768   -1.786737    1.584295
     38          1           0       -3.155727   -1.405308    2.444300
     39          1           0       -2.106375   -2.675503    1.907433
     40          6           0       -3.635930   -2.181897    0.503677
     41          1           0       -3.148879   -2.498558   -0.405647
     42          1           0       -4.173511   -3.041397    0.877170
     43         16           0       -4.927496   -0.969240    0.099534
     44          6           0       -4.239061   -0.059315   -1.317682
     45          1           0       -3.354995    0.470818   -1.009182
     46          1           0       -3.963936   -0.769575   -2.083605
     47          6           0       -5.287391    0.910800   -1.855193
     48          1           0       -6.179613    0.388261   -2.170683
     49          1           0       -5.569070    1.637528   -1.106051
     50          1           0       -4.892863    1.445156   -2.709259
 ---------------------------------------------------------------------
 Standard basis: 6-31G(d) (6D, 7F)
   372 basis functions,   752 primitive gaussians,   372 cartesian basis functions
    93 alpha electrons       93 beta electrons
 Requested convergence on RMS density matrix=1.00D-08 within  64 cycles.
 Requested convergence on MAX density matrix=1.00D-06.
 Requested convergence on             energy=1.00D-06.
 SCF Done:  E(RHF) =  -1964.68773206     A.U. after   15 cycles
            NFock= 15  Conv=0.41D-08     -V/T= 2.0005
 Step number   4 out of a maximum of   55
     Eigenvalues ---    0.00207   0.00230   0.00230   0.00230   0.00242
     Eigenvalues ---    0.00395   0.00400   0.00453   0.00455   0.00509
     Eigenvalues ---    0.00569   0.00579   0.01045   0.01400   0.01477
     Eigenvalues ---    0.01491   0.01573   0.01579   0.01833   0.03982
     Eigenvalues ---    0.04109   0.04395   0.04486   0.04846   0.04911
     Eigenvalues ---    0.05006   0.05044   0.05162   0.05195   0.05387
     Eigenvalues ---    0.05531   0.05633   0.05661   0.05691   0.05710
     Eigenvalues ---    0.05737   0.05750   0.05773   0.05777   0.05781
     Eigenvalues ---    0.05815   0.05865   0.05903   0.05967   0.06111
     Eigenvalues ---    0.06156   0.06767   0.10995   0.11212   0.11347
     Eigenvalues ---    0.11451   0.11516   0.11547   0.11669   0.11704
     Eigenvalues ---    0.11757   0.11824   0.11917   0.12099   0.13592
     Eigenvalues ---    0.13676   0.13796   0.13840   0.13852   0.13972
     Eigenvalues ---    0.13978   0.14027   0.14146   0.14191   0.14276
     Eigenvalues ---    0.14325   0.15962   0.16000   0.16000   0.16000
     Eigenvalues ---    0.16002   0.16003   0.20066   0.21969   0.22004
     Eigenvalues ---    0.22017   0.22032   0.22038   0.22041   0.22068
     Eigenvalues ---    0.22080   0.22096   0.22476   0.23631   0.23949
     Eigenvalues ---    0.24230   0.24283   0.24398   0.24496   0.24514
     Eigenvalues ---    0.24646   0.25000   0.25000   0.25506   0.26505
     Eigenvalues ---    0.29606   0.29655   0.29875   0.30072   0.30163
     Eigenvalues ---    0.30520   0.30870   0.32985   0.33661   0.33685
     Eigenvalues ---    0.33711   0.33733   0.33767   0.33904   0.33977
     Eigenvalues ---    0.34116   0.34150   0.34215   0.34225   0.34237
     Eigenvalues ---    0.34248   0.34260   0.34284   0.34311   0.34329
     Eigenvalues ---    0.34338   0.34353   0.34390   0.34400   0.34421
     Eigenvalues ---    0.34424   0.34451   0.34476   0.34548   0.34595
     Eigenvalues ---    0.34658   0.35125   0.40714   0.42522   0.42826
     Eigenvalues ---    0.43204   0.43872   0.44287   0.72581
 Maximum Force            0.013316     0.000015     NO 
 RMS     Force            0.002474     0.000010     NO 
 Maximum Displacement     1.175462     0.000060     NO 
 RMS     Displacement     0.324961     0.000040     NO 
                          Input orientation:                          
 ---------------------------------------------------------------------
 Center     Atomic      Atomic             Coordinates (Angstroms)
 Number     Number       Type             X           Y           Z
 ---------------------------------------------------------------------
      1          6           0       -2.582211    5.028289    0.104570
      2          1           0       -2.276316    5.592170   -0.768385
      3          1           0       -3.603061    4.691955   -0.042085
      4          1           0       -2.555537    5.689168    0.962309
      5          6           0       -1.658709    3.846135    0.321141
      6          1           0       -1.964930    3.277930    1.195826
      7          1           0       -1.701649    3.176128   -0.533167
      8          8           0       -0.358042    4.335678    0.503982
      9          6           0        0.615346    3.401281    0.859379
     10          1           0        0.225572    2.679981    1.571788
     11          1           0        1.405378    3.952562    1.350891
     12          6           0        1.177827    2.669191   -0.354565
     13          1           0        0.415325    2.057270   -0.815625
     14          1           0        1.514953    3.387094   -1.094753
     15          8           0        2.221187    1.807826    0.025991
     16          6           0        3.507451    2.362557   -0.034001
     17          1           0        3.537452    3.317656    0.483226
     18          1           0        3.794517    2.531204   -1.067650
     19          6           0        4.511240    1.447042    0.631590
     20          1           0        4.165189    1.192666    1.629167
     21          1           0        5.440229    1.995397    0.731048
     22          8           0        4.816826    0.300749   -0.098738
     23          6           0        4.067620   -0.861667    0.120745
     24          1           0        3.442305   -0.753248    0.999022
     25          1           0        4.768022   -1.665265    0.307089
     26          6           0        3.235900   -1.202774   -1.108366
     27          1           0        3.894879   -1.310146   -1.960208
     28          1           0        2.534849   -0.413907   -1.333000
     29         16           0        2.405597   -2.814926   -0.992263
     30          6           0        1.180779   -2.588018    0.333908
     31          1           0        0.788774   -3.585478    0.479565
     32          1           0        1.664427   -2.298106    1.255739
     33          6           0        0.057690   -1.616576   -0.016708
     34          1           0       -0.411350   -1.904279   -0.947663
     35          1           0        0.453555   -0.620219   -0.152821
     36         16           0       -1.196639   -1.415980    1.288114
     37          6           0       -2.099861   -2.992731    1.259632
     38          1           0       -2.733412   -2.954578    2.135463
     39          1           0       -1.400074   -3.804514    1.414453
     40          6           0       -2.950108   -3.301643    0.027299
     41          1           0       -2.363482   -3.271774   -0.881897
     42          1           0       -3.307234   -4.319490    0.128797
     43         16           0       -4.445999   -2.293933   -0.194335
     44          6           0       -3.881950   -0.941875   -1.275780
     45          1           0       -3.124366   -0.365944   -0.766128
     46          1           0       -3.444680   -1.371384   -2.168741
     47          6           0       -5.069039   -0.057259   -1.645478
     48          1           0       -5.834854   -0.623267   -2.162495
     49          1           0       -5.514887    0.388923   -0.764254
     50          1           0       -4.743497    0.744129   -2.299629
 ---------------------------------------------------------------------
 Stoichiometry    C14H30O3S3
 Framework group  C1[X(C14H30O3S3)]
                         Standard orientation:                         
 ---------------------------------------------------------------------
 Center     Atomic      Atomic             Coordinates (Angstroms)
 Number     Number       Type             X           Y           Z
 ---------------------------------------------------------------------
      1          6           0       -0.710968    5.627494   -0.068082
      2          1           0       -0.264531    6.022689   -0.972570
      3          1           0       -1.789950    5.648124   -0.178247
      4          1           0       -0.435032    6.272839    0.756889
      5          6           0       -0.229199    4.212953    0.185337
      6          1           0       -0.677329    3.813862    1.091762
      7          1           0       -0.523388    3.564606   -0.635453
      8          8           0        1.165807    4.243950    0.318817
      9          6           0        1.782247    3.051077    0.698218
     10          1           0        1.198592    2.529835    1.451462
     11          1           0        2.727717    3.323220    1.147296
     12          6           0        2.024978    2.127520   -0.490952
     13          1           0        1.086206    1.790204   -0.907316
     14          1           0        2.556952    2.662194   -1.270723
     15          8           0        2.732618    0.980842   -0.091265
     16          6           0        4.127446    1.068893   -0.203080
     17          1           0        4.493130    1.977234    0.267909
     18          1           0        4.418366    1.092364   -1.249069
     19          6           0        4.789590   -0.104742    0.484610
     20          1           0        4.413192   -0.190458    1.499793
     21          1           0        5.851348    0.103248    0.539500
     22          8           0        4.668599   -1.313716   -0.196928
     23          6           0        3.581796   -2.148023    0.092006
     24          1           0        3.059624   -1.803008    0.976566
     25          1           0        3.979044   -3.132501    0.301891
     26          6           0        2.641798   -2.236104   -1.102763
     27          1           0        3.196939   -2.590440   -1.961647
     28          1           0        2.237682   -1.266713   -1.350182
     29         16           0        1.324593   -3.470373   -0.894277
     30          6           0        0.293005   -2.795724    0.444032
     31          1           0       -0.404782   -3.597466    0.644310
     32          1           0        0.877425   -2.650538    1.341312
     33          6           0       -0.451859   -1.517548    0.070664
     34          1           0       -1.022099   -1.665903   -0.836126
     35          1           0        0.249526   -0.717782   -0.120110
     36         16           0       -1.520780   -0.858560    1.389482
     37          6           0       -2.899829   -2.040470    1.453368
     38          1           0       -3.453345   -1.758918    2.338957
     39          1           0       -2.506989   -3.033632    1.632168
     40          6           0       -3.846615   -2.092151    0.254236
     41          1           0       -3.315692   -2.295182   -0.666936
     42          1           0       -4.519907   -2.926453    0.410675
     43         16           0       -4.925962   -0.649833    0.015449
     44          6           0       -3.979979    0.392696   -1.139534
     45          1           0       -3.056193    0.699617   -0.672849
     46          1           0       -3.742819   -0.191956   -2.019874
     47          6           0       -4.814822    1.609918   -1.526589
     48          1           0       -5.743295    1.314823   -2.000931
     49          1           0       -5.054891    2.212701   -0.658584
     50          1           0       -4.262846    2.230295   -2.224134
 ---------------------------------------------------------------------
 Standard basis: 6-31G(d) (6D, 7F)
   372 basis functions,   752 primitive gaussians,   372 cartesian basis functions
    93 alpha electrons       93 beta electrons
 Requested convergence on RMS density matrix=1.00D-08 within  64 cycles.
 Requested convergence on MAX density matrix=1.00D-06.
 Requested convergence on             energy=1.00D-06.
 SCF Done:  E(RHF) =  -1964.68943481     A.U. after   13 cycles
            NFock= 13  Conv=0.30D-08     -V/T= 2.0006
 Step number   5 out of a maximum of   55
     Eigenvalues ---    0.00217   0.00226   0.00230   0.00231   0.00286
     Eigenvalues ---    0.00394   0.00399   0.00454   0.00455   0.00543
     Eigenvalues ---    0.00569   0.00624   0.01149   0.01344   0.01479
     Eigenvalues ---    0.01489   0.01551   0.01591   0.01860   0.04082
     Eigenvalues ---    0.04182   0.04434   0.04514   0.04857   0.04878
     Eigenvalues ---    0.04973   0.05041   0.05165   0.05198   0.05385
     Eigenvalues ---    0.05538   0.05668   0.05690   0.05695   0.05722
     Eigenvalues ---    0.05744   0.05748   0.05772   0.05777   0.05791
     Eigenvalues ---    0.05835   0.05877   0.05921   0.05974   0.06098
     Eigenvalues ---    0.06140   0.07979   0.11008   0.11204   0.11359
     Eigenvalues ---    0.11447   0.11515   0.11559   0.11667   0.11680
     Eigenvalues ---    0.11716   0.11856   0.11880   0.11988   0.13606
     Eigenvalues ---    0.13678   0.13835   0.13851   0.13899   0.13968
     Eigenvalues ---    0.14009   0.14021   0.14154   0.14210   0.14237
     Eigenvalues ---    0.14301   0.15977   0.16000   0.16000   0.16001
     Eigenvalues ---    0.16001   0.16005   0.21610   0.21969   0.22008
     Eigenvalues ---    0.22018   0.22031   0.22034   0.22054   0.22066
     Eigenvalues ---    0.22083   0.22308   0.23286   0.23591   0.24110
     Eigenvalues ---    0.24224   0.24335   0.24428   0.24502   0.24517
     Eigenvalues ---    0.24767   0.25000   0.25028   0.25625   0.27399
     Eigenvalues ---    0.29655   0.29879   0.29979   0.30080   0.30196
     Eigenvalues ---    0.30674   0.30862   0.33660   0.33672   0.33695
     Eigenvalues ---    0.33716   0.33770   0.33837   0.33970   0.34097
     Eigenvalues ---    0.34116   0.34206   0.34222   0.34231   0.34236
     Eigenvalues ---    0.34260   0.34266   0.34291   0.34319   0.34337
     Eigenvalues ---    0.34352   0.34358   0.34391   0.34407   0.34423
     Eigenvalues ---    0.34451   0.34467   0.34502   0.34585   0.34653
     Eigenvalues ---    0.34693   0.40633   0.41488   0.42869   0.43129
     Eigenvalues ---    0.43207   0.44199   0.44532   0.69002
 Maximum Force            0.002927     0.000015     NO 
 RMS     Force            0.000761     0.000010     NO 
 Maximum Displacement     0.800683     0.000060     NO 
 RMS     Displacement     0.233948     0.000040     NO 
                          Input orientation:                          
 ---------------------------------------------------------------------
 Center     Atomic      Atomic             Coordinates (Angstroms)
 Number     Number       Type             X           Y           Z
 ---------------------------------------------------------------------
      1          6           0       -2.616954    4.827647    0.373677
      2          1           0       -2.432094    5.314395   -0.576801
      3          1           0       -3.629909    4.438674    0.371249
      4          1           0       -2.532995    5.570429    1.158074
      5          6           0       -1.619635    3.708331    0.598463
      6          1           0       -1.806382    3.216898    1.550411
      7          1           0       -1.720497    2.956278   -0.180124
      8          8           0       -0.331757    4.262709    0.593717
      9          6           0        0.717433    3.401715    0.917826
     10          1           0        0.433479    2.718768    1.714049
     11          1           0        1.524403    4.020109    1.289152
     12          6           0        1.196960    2.605584   -0.291348
     13          1           0        0.418090    1.941653   -0.641148
     14          1           0        1.441177    3.282430   -1.104069
     15          8           0        2.298487    1.804108    0.050075
     16          6           0        3.554387    2.383230   -0.174310
     17          1           0        3.598811    3.376632    0.266453
     18          1           0        3.735127    2.481004   -1.241010
     19          6           0        4.645473    1.537717    0.450998
     20          1           0        4.405232    1.355600    1.494358
     21          1           0        5.565638    2.109886    0.418331
     22          8           0        4.905712    0.341227   -0.219229
     23          6           0        4.212746   -0.819434    0.155059
     24          1           0        3.638666   -0.643776    1.056440
     25          1           0        4.944662   -1.588501    0.369350
     26          6           0        3.313651   -1.291674   -0.979900
     27          1           0        3.919376   -1.458678   -1.861790
     28          1           0        2.584024   -0.535324   -1.223522
     29         16           0        2.511153   -2.893614   -0.665779
     30          6           0        1.177793   -2.495384    0.507184
     31          1           0        0.785511   -3.462366    0.794081
     32          1           0        1.581024   -2.038670    1.399627
     33          6           0        0.081733   -1.616474   -0.086503
     34          1           0       -0.315905   -2.060785   -0.988901
     35          1           0        0.493053   -0.654260   -0.357072
     36         16           0       -1.264939   -1.207045    1.068343
     37          6           0       -2.192554   -2.763243    1.209479
     38          1           0       -2.810538   -2.628466    2.087283
     39          1           0       -1.503765   -3.569866    1.430866
     40          6           0       -3.071746   -3.168102    0.024721
     41          1           0       -2.503534   -3.220748   -0.895279
     42          1           0       -3.436270   -4.170522    0.217721
     43         16           0       -4.561751   -2.163946   -0.251524
     44          6           0       -4.030751   -0.964071   -1.514694
     45          1           0       -3.261151   -0.327663   -1.104302
     46          1           0       -3.616101   -1.506316   -2.356048
     47          6           0       -5.227840   -0.131059   -1.964979
     48          1           0       -6.006157   -0.756473   -2.386799
     49          1           0       -5.651466    0.425050   -1.136527
     50          1           0       -4.918105    0.580387   -2.723332
 ---------------------------------------------------------------------
 Stoichiometry    C14H30O3S3
 Framework group  C1[X(C14H30O3S3)]
                         Standard orientation:                         
 ---------------------------------------------------------------------
 Center     Atomic      Atomic             Coordinates (Angstroms)
 Number     Number       Type             X           Y           Z
 ---------------------------------------------------------------------
      1          6           0       -1.134547    5.385639    0.142473
      2          1           0       -0.870618    5.748009   -0.844206
      3          1           0       -2.214294    5.294703    0.199583
      4          1           0       -0.809538    6.118047    0.871855
      5          6           0       -0.474804    4.047123    0.409227
      6          1           0       -0.741764    3.680868    1.397750
      7          1           0       -0.818304    3.310856   -0.313182
      8          8           0        0.914109    4.219674    0.324774
      9          6           0        1.699917    3.119915    0.671462
     10          1           0        1.278973    2.588453    1.520798
     11          1           0        2.663809    3.508706    0.973530
     12          6           0        1.879683    2.155784   -0.496447
     13          1           0        0.931280    1.716701   -0.774907
     14          1           0        2.259972    2.691548   -1.360516
     15          8           0        2.733021    1.099476   -0.138225
     16          6           0        4.087017    1.292449   -0.442314
     17          1           0        4.425944    2.257065   -0.071182
     18          1           0        4.233816    1.276552   -1.518545
     19          6           0        4.932464    0.212607    0.202303
     20          1           0        4.704106    0.162910    1.262900
     21          1           0        5.971929    0.503088    0.100907
     22          8           0        4.818389   -1.044351   -0.393987
     23          6           0        3.851808   -1.943379    0.080244
     24          1           0        3.394590   -1.564941    0.986140
     25          1           0        4.352917   -2.872729    0.321667
     26          6           0        2.801397   -2.208826   -0.990125
     27          1           0        3.292359   -2.586699   -1.878208
     28          1           0        2.297500   -1.293939   -1.260015
     29         16           0        1.604891   -3.503795   -0.542558
     30          6           0        0.493948   -2.685361    0.644140
     31          1           0       -0.134974   -3.487300    1.008285
     32          1           0        1.051914   -2.310163    1.490034
     33          6           0       -0.345466   -1.570354    0.028968
     34          1           0       -0.895143   -1.935772   -0.827873
     35          1           0        0.301234   -0.777382   -0.319200
     36         16           0       -1.467008   -0.738482    1.197282
     37          6           0       -2.779691   -1.964359    1.473386
     38          1           0       -3.291517   -1.614199    2.359970
     39          1           0       -2.329983   -2.917310    1.725835
     40          6           0       -3.794911   -2.173513    0.348164
     41          1           0       -3.310319   -2.433405   -0.584392
     42          1           0       -4.411691   -3.022381    0.620151
     43         16           0       -4.961927   -0.811039    0.054063
     44          6           0       -4.184711    0.121288   -1.303861
     45          1           0       -3.249752    0.539932   -0.962821
     46          1           0       -3.978656   -0.560894   -2.119955
     47          6           0       -5.126549    1.228401   -1.769619
     48          1           0       -6.067418    0.822091   -2.122509
     49          1           0       -5.338044    1.925658   -0.967029
     50          1           0       -4.671090    1.782112   -2.583960
 ---------------------------------------------------------------------
 Standard basis: 6-31G(d) (6D, 7F)
   372 basis functions,   752 primitive gaussians,   372 cartesian basis functions
    93 alpha electrons       93 beta electrons
 Requested convergence on RMS density matrix=1.00D-08 within  64 cycles.
 Requested convergence on MAX density matrix=1.00D-06.
 Requested convergence on             energy=1.00D-06.
 SCF Done:  E(RHF) =  -1964.68981842     A.U. after   13 cycles
            NFock= 13  Conv=0.38D-08     -V/T= 2.0006
 Step number   6 out of a maximum of   55
     Eigenvalues ---    0.00186   0.00217   0.00230   0.00234   0.00383
     Eigenvalues ---    0.00394   0.00451   0.00453   0.00519   0.00569
     Eigenvalues ---    0.00588   0.00658   0.00933   0.01139   0.01477
     Eigenvalues ---    0.01487   0.01517   0.01589   0.01864   0.04136
     Eigenvalues ---    0.04288   0.04467   0.04611   0.04876   0.04904
     Eigenvalues ---    0.04983   0.05032   0.05181   0.05351   0.05389
     Eigenvalues ---    0.05540   0.05660   0.05701   0.05716   0.05731
     Eigenvalues ---    0.05739   0.05751   0.05764   0.05775   0.05798
     Eigenvalues ---    0.05851   0.05888   0.05941   0.05982   0.06110
     Eigenvalues ---    0.06205   0.08370   0.11042   0.11208   0.11330
     Eigenvalues ---    0.11396   0.11499   0.11572   0.11608   0.11647
     Eigenvalues ---    0.11718   0.11854   0.11889   0.11963   0.13616
     Eigenvalues ---    0.13680   0.13791   0.13857   0.13935   0.13956
     Eigenvalues ---    0.13973   0.14087   0.14177   0.14192   0.14310
     Eigenvalues ---    0.14418   0.15979   0.16000   0.16000   0.16001
     Eigenvalues ---    0.16002   0.16006   0.21456   0.21957   0.22013
     Eigenvalues ---    0.22020   0.22029   0.22044   0.22058   0.22068
     Eigenvalues ---    0.22108   0.22812   0.23692   0.24110   0.24191
     Eigenvalues ---    0.24260   0.24324   0.24484   0.24550   0.24567
     Eigenvalues ---    0.24775   0.25001   0.25258   0.27068   0.27778
     Eigenvalues ---    0.29655   0.29972   0.30040   0.30134   0.30253
     Eigenvalues ---    0.30726   0.30875   0.33663   0.33673   0.33706
     Eigenvalues ---    0.33715   0.33775   0.33852   0.33969   0.34111
     Eigenvalues ---    0.34124   0.34214   0.34218   0.34233   0.34241
     Eigenvalues ---    0.34258   0.34283   0.34295   0.34329   0.34337
     Eigenvalues ---    0.34352   0.34370   0.34396   0.34410   0.34424
     Eigenvalues ---    0.34454   0.34462   0.34499   0.34627   0.34657
     Eigenvalues ---    0.34837   0.40651   0.42255   0.42920   0.43189
     Eigenvalues ---    0.43868   0.44217   0.48508   0.74998
 Maximum Force            0.004850     0.000015     NO 
 RMS     Force            0.000721     0.000010     NO 
 Maximum Displacement     0.457520     0.000060     NO 
 RMS     Displacement     0.111237     0.000040     NO 
                          Input orientation:                          
 ---------------------------------------------------------------------
 Center     Atomic      Atomic             Coordinates (Angstroms)
 Number     Number       Type             X           Y           Z
 ---------------------------------------------------------------------
      1          6           0       -2.653490    4.634980    0.405753
      2          1           0       -2.511112    5.072286   -0.575874
      3          1           0       -3.649817    4.207441    0.452384
      4          1           0       -2.580133    5.424989    1.144077
      5          6           0       -1.608475    3.568052    0.668240
      6          1           0       -1.755301    3.125030    1.650582
      7          1           0       -1.699405    2.768656   -0.063353
      8          8           0       -0.343103    4.168584    0.600965
      9          6           0        0.745744    3.359019    0.925310
     10          1           0        0.499154    2.669448    1.728621
     11          1           0        1.530728    4.013329    1.284514
     12          6           0        1.247588    2.575127   -0.282546
     13          1           0        0.483541    1.894423   -0.634738
     14          1           0        1.476777    3.259877   -1.093692
     15          8           0        2.365763    1.802580    0.062831
     16          6           0        3.610600    2.397020   -0.174034
     17          1           0        3.642568    3.397572    0.253902
     18          1           0        3.785612    2.483293   -1.242992
     19          6           0        4.709315    1.559682    0.453488
     20          1           0        4.472884    1.392090    1.499779
     21          1           0        5.633703    2.125172    0.410009
     22          8           0        4.945965    0.351041   -0.206486
     23          6           0        4.235046   -0.792926    0.189850
     24          1           0        3.609865   -0.571595    1.045253
     25          1           0        4.944423   -1.558809    0.481413
     26          6           0        3.390568   -1.300792   -0.971216
     27          1           0        4.033727   -1.494538   -1.820636
     28          1           0        2.685475   -0.540386   -1.267468
     29         16           0        2.528569   -2.867799   -0.635800
     30          6           0        1.194849   -2.383837    0.505992
     31          1           0        0.839217   -3.316303    0.925771
     32          1           0        1.592037   -1.799680    1.323930
     33          6           0        0.062918   -1.618818   -0.173009
     34          1           0       -0.336241   -2.179539   -1.007454
     35          1           0        0.445841   -0.687191   -0.564223
     36         16           0       -1.276353   -1.107756    0.947699
     37          6           0       -2.213736   -2.643791    1.196943
     38          1           0       -2.805650   -2.464955    2.084877
     39          1           0       -1.525527   -3.447668    1.432074
     40          6           0       -3.128418   -3.081966    0.050177
     41          1           0       -2.583871   -3.162134   -0.882116
     42          1           0       -3.496037   -4.076019    0.279155
     43         16           0       -4.611448   -2.063474   -0.215430
     44          6           0       -4.115549   -0.946818   -1.566538
     45          1           0       -3.310044   -0.311627   -1.229468
     46          1           0       -3.756649   -1.544192   -2.396129
     47          6           0       -5.310796   -0.103402   -2.004058
     48          1           0       -6.123630   -0.726057   -2.359947
     49          1           0       -5.681054    0.503859   -1.185813
     50          1           0       -5.015638    0.562519   -2.808568
 ---------------------------------------------------------------------
 Stoichiometry    C14H30O3S3
 Framework group  C1[X(C14H30O3S3)]
                         Standard orientation:                         
 ---------------------------------------------------------------------
 Center     Atomic      Atomic             Coordinates (Angstroms)
 Number     Number       Type             X           Y           Z
 ---------------------------------------------------------------------
      1          6           0       -1.396336    5.156776    0.157958
      2          1           0       -1.203149    5.480605   -0.858366
      3          1           0       -2.462996    4.992482    0.271432
      4          1           0       -1.094069    5.950480    0.831224
      5          6           0       -0.630759    3.884225    0.464220
      6          1           0       -0.829610    3.556016    1.481845
      7          1           0       -0.951981    3.086223   -0.201017
      8          8           0        0.737547    4.147997    0.307714
      9          6           0        1.611557    3.117473    0.654572
     10          1           0        1.246619    2.563885    1.515957
     11          1           0        2.550062    3.579596    0.935645
     12          6           0        1.843263    2.157115   -0.507010
     13          1           0        0.918966    1.664759   -0.779821
     14          1           0        2.189765    2.709830   -1.375233
     15          8           0        2.755801    1.156508   -0.143021
     16          6           0        4.093869    1.408433   -0.467351
     17          1           0        4.391163    2.395741   -0.117929
     18          1           0        4.228501    1.379130   -1.545201
     19          6           0        4.986514    0.368332    0.183392
     20          1           0        4.771390    0.332705    1.246954
     21          1           0        6.017309    0.683974    0.065087
     22          8           0        4.886483   -0.901585   -0.390791
     23          6           0        3.939813   -1.806299    0.115622
     24          1           0        3.433071   -1.382308    0.972942
     25          1           0        4.455278   -2.703012    0.439664
     26          6           0        2.937478   -2.164274   -0.973564
     27          1           0        3.468669   -2.565646   -1.827638
     28          1           0        2.424581   -1.274219   -1.302012
     29         16           0        1.738167   -3.444655   -0.490519
     30          6           0        0.624280   -2.573151    0.656848
     31          1           0        0.074468   -3.359589    1.158250
[...]
     20          1           0        4.932907    1.367241    0.756143
     21          1           0        5.517847    1.837171   -0.831689
     22          8           0        4.089553    0.430586   -0.867596
     23          6           0        3.478393   -0.493987   -0.009141
     24          1           0        2.716023   -0.012220    0.588292
     25          1           0        4.213961   -0.925206    0.665737
     26          6           0        2.880907   -1.582399   -0.885795
     27          1           0        3.669043   -2.072872   -1.442563
     28          1           0        2.204840   -1.144573   -1.608330
     29         16           0        2.042676   -2.892029    0.054992
     30          6           0        0.443783   -2.123730    0.468458
     31          1           0        0.057697   -2.710780    1.291876
     32          1           0        0.599742   -1.120499    0.840714
     33          6           0       -0.546729   -2.113314   -0.694138
     34          1           0       -0.699328   -3.116019   -1.071479
     35          1           0       -0.159615   -1.523315   -1.514734
     36         16           0       -2.148848   -1.351834   -0.280621
     37          6           0       -2.985311   -2.683480    0.633807
     38          1           0       -3.767575   -2.193392    1.198405
     39          1           0       -2.291671   -3.104191    1.353340
     40          6           0       -3.587736   -3.813607   -0.203695
     41          1           0       -2.852797   -4.250655   -0.868680
     42          1           0       -3.898702   -4.600044    0.475148
     43         16           0       -5.073540   -3.384501   -1.161678
     44          6           0       -4.407779   -3.004675   -2.814716
     45          1           0       -3.751537   -2.149425   -2.749611
     46          1           0       -3.830681   -3.854979   -3.159272
     47          6           0       -5.558620   -2.725079   -3.777068
     48          1           0       -6.219986   -3.580434   -3.860295
     49          1           0       -6.144705   -1.873422   -3.449522
     50          1           0       -5.167039   -2.502729   -4.764537
 ---------------------------------------------------------------------
 Stoichiometry    C14H30O3S3
 Framework group  C1[X(C14H30O3S3)]
                         Standard orientation:                         
 ---------------------------------------------------------------------
 Center     Atomic      Atomic             Coordinates (Angstroms)
 Number     Number       Type             X           Y           Z
 ---------------------------------------------------------------------
      1          6           0        4.534838    5.239411    0.359330
      2          1           0        4.050502    5.365307   -0.602364
      3          1           0        4.064379    5.908025    1.073462
      4          1           0        5.576464    5.521166    0.255310
      5          6           0        4.422015    3.801404    0.825061
      6          1           0        4.896780    3.677832    1.796866
      7          1           0        3.376181    3.523562    0.937229
      8          8           0        5.056457    2.982561   -0.119076
      9          6           0        5.025810    1.609410    0.139577
     10          1           0        5.026622    1.406985    1.207661
     11          1           0        5.934486    1.188630   -0.273811
     12          6           0        3.805914    0.958201   -0.503005
     13          1           0        2.897624    1.378129   -0.089504
     14          1           0        3.805445    1.159053   -1.570643
     15          8           0        3.769461   -0.419377   -0.248202
     16          6           0        4.428137   -1.237045   -1.172970
     17          1           0        5.499021   -1.039106   -1.177431
     18          1           0        4.047930   -1.053465   -2.174738
     19          6           0        4.199871   -2.690866   -0.813197
     20          1           0        4.511092   -2.868232    0.212687
     21          1           0        4.816634   -3.304792   -1.460711
     22          8           0        2.874636   -3.089047   -1.011385
     23          6           0        2.036262   -3.042494    0.111228
     24          1           0        2.047617   -2.055503    0.553894
     25          1           0        2.372222   -3.753392    0.862377
     26          6           0        0.641088   -3.413717   -0.363991
     27          1           0        0.650508   -4.418647   -0.766160
     28          1           0        0.335860   -2.752661   -1.164402
     29         16           0       -0.599752   -3.417299    0.963844
     30          6           0       -0.967023   -1.645201    1.169940
     31          1           0       -1.426300   -1.568078    2.147091
     32          1           0       -0.047224   -1.077767    1.206825
     33          6           0       -1.896147   -1.085731    0.094499
     34          1           0       -2.814718   -1.656307    0.052511
     35          1           0       -1.433355   -1.161318   -0.880921
     36         16           0       -2.270398    0.684622    0.302867
     37          6           0       -3.532775    0.661409    1.612444
     38          1           0       -3.536678    1.662988    2.021980
     39          1           0       -3.204679   -0.003027    2.404114
     40          6           0       -4.951114    0.275039    1.187538
     41          1           0       -4.965273   -0.675181    0.667700
     42          1           0       -5.543174    0.145742    2.086848
     43         16           0       -5.843958    1.508823    0.192508
     44          6           0       -5.568251    0.943134   -1.517469
     45          1           0       -4.512731    0.981969   -1.742665
     46          1           0       -5.899305   -0.085686   -1.599393
     47          6           0       -6.354688    1.827255   -2.481096
     48          1           0       -7.418251    1.789081   -2.272917
     49          1           0       -6.032823    2.860791   -2.415460
     50          1           0       -6.197204    1.491202   -3.500968
 ---------------------------------------------------------------------
 Standard basis: 6-31G(d) (6D, 7F)
   372 basis functions,   752 primitive gaussians,   372 cartesian basis functions
    93 alpha electrons       93 beta electrons
 Requested convergence on RMS density matrix=1.00D-08 within  64 cycles.
 Requested convergence on MAX density matrix=1.00D-06.
 Requested convergence on             energy=1.00D-06.
 SCF Done:  E(RHF) =  -1964.69168231     A.U. after    4 cycles
            NFock=  4  Conv=0.92D-08     -V/T= 2.0006
 Step number  55 out of a maximum of   55
     Eigenvalues ---    0.00105   0.00165   0.00194   0.00252   0.00291
     Eigenvalues ---    0.00329   0.00356   0.00369   0.00392   0.00427
     Eigenvalues ---    0.00457   0.00522   0.00551   0.00655   0.00678
     Eigenvalues ---    0.00762   0.00799   0.00944   0.01483   0.04513
     Eigenvalues ---    0.04826   0.04842   0.04990   0.05162   0.05210
     Eigenvalues ---    0.05346   0.05475   0.05531   0.05560   0.05615
     Eigenvalues ---    0.05690   0.05703   0.05722   0.05749   0.05752
     Eigenvalues ---    0.05768   0.05786   0.05805   0.05857   0.05881
     Eigenvalues ---    0.05943   0.05982   0.06007   0.06113   0.06174
     Eigenvalues ---    0.06356   0.06963   0.11039   0.11230   0.11339
     Eigenvalues ---    0.11472   0.11488   0.11562   0.11673   0.11789
     Eigenvalues ---    0.11858   0.11929   0.12103   0.12376   0.13359
     Eigenvalues ---    0.13482   0.13663   0.13718   0.13815   0.13863
     Eigenvalues ---    0.13935   0.13969   0.14158   0.14225   0.14428
     Eigenvalues ---    0.15062   0.15992   0.16004   0.16008   0.16018
     Eigenvalues ---    0.16050   0.16139   0.19505   0.21233   0.21610
     Eigenvalues ---    0.21848   0.22243   0.22488   0.22652   0.22770
     Eigenvalues ---    0.23046   0.23552   0.23813   0.24031   0.24224
     Eigenvalues ---    0.24300   0.24516   0.24681   0.24704   0.25164
     Eigenvalues ---    0.26150   0.26951   0.27272   0.28430   0.28744
     Eigenvalues ---    0.29509   0.29970   0.30203   0.30756   0.30932
     Eigenvalues ---    0.32040   0.32887   0.33240   0.33686   0.33714
     Eigenvalues ---    0.33735   0.33803   0.33898   0.33930   0.34023
     Eigenvalues ---    0.34213   0.34232   0.34243   0.34271   0.34301
     Eigenvalues ---    0.34321   0.34324   0.34352   0.34371   0.34384
     Eigenvalues ---    0.34397   0.34409   0.34424   0.34438   0.34470
     Eigenvalues ---    0.34531   0.34645   0.34719   0.34802   0.35256
     Eigenvalues ---    0.35947   0.36425   0.41675   0.42710   0.43108
     Eigenvalues ---    0.43508   0.44265   0.44434   0.50868
 Maximum Force            0.000001     0.000015     YES
 RMS     Force            0.000000     0.000010     YES
 Maximum Displacement     0.001111     0.000060     NO 
 RMS     Displacement     0.000236     0.000040     NO 
 Optimization stopped.
    -- Number of steps exceeded,  NStep=  55
                          Input orientation:                          
 ---------------------------------------------------------------------
 Center     Atomic      Atomic             Coordinates (Angstroms)
 Number     Number       Type             X           Y           Z
 ---------------------------------------------------------------------
      1          6           0       -1.260778    6.358696    2.330811
      2          1           0       -1.637236    6.386108    1.314536
      3          1           0       -2.098123    6.211518    3.005758
      4          1           0       -0.803300    7.316685    2.550269
      5          6           0       -0.248064    5.242291    2.490648
      6          1           0        0.120134    5.206274    3.514470
      7          1           0       -0.711508    4.281159    2.278536
      8          8           0        0.817152    5.486174    1.613010
      9          6           0        1.839807    4.533524    1.608754
     10          1           0        1.960490    4.076957    2.587918
     11          1           0        2.759468    5.056761    1.376195
     12          6           0        1.574712    3.450162    0.568954
     13          1           0        0.655947    2.926640    0.801570
     14          1           0        1.455438    3.905863   -0.409975
     15          8           0        2.597146    2.491779    0.558764
     16          6           0        3.676414    2.747850   -0.294018
     17          1           0        4.213603    3.644115    0.012785
     18          1           0        3.324067    2.898525   -1.311342
     19          6           0        4.630454    1.571314   -0.267395
     20          1           0        4.932907    1.367241    0.756143
     21          1           0        5.517847    1.837171   -0.831689
     22          8           0        4.089553    0.430586   -0.867596
     23          6           0        3.478393   -0.493987   -0.009141
     24          1           0        2.716023   -0.012220    0.588292
     25          1           0        4.213961   -0.925206    0.665737
     26          6           0        2.880907   -1.582399   -0.885795
     27          1           0        3.669043   -2.072872   -1.442563
     28          1           0        2.204840   -1.144573   -1.608330
     29         16           0        2.042676   -2.892029    0.054992
     30          6           0        0.443783   -2.123730    0.468458
     31          1           0        0.057697   -2.710780    1.291876
     32          1           0        0.599742   -1.120499    0.840714
     33          6           0       -0.546729   -2.113314   -0.694138
     34          1           0       -0.699328   -3.116019   -1.071479
     35          1           0       -0.159615   -1.523315   -1.514734
     36         16           0       -2.148848   -1.351834   -0.280621
     37          6           0       -2.985311   -2.683480    0.633807
     38          1           0       -3.767575   -2.193392    1.198405
     39          1           0       -2.291671   -3.104191    1.353340
     40          6           0       -3.587736   -3.813607   -0.203695
     41          1           0       -2.852797   -4.250655   -0.868680
     42          1           0       -3.898702   -4.600044    0.475148
     43         16           0       -5.073540   -3.384501   -1.161678
     44          6           0       -4.407779   -3.004675   -2.814716
     45          1           0       -3.751537   -2.149425   -2.749611
     46          1           0       -3.830681   -3.854979   -3.159272
     47          6           0       -5.558620   -2.725079   -3.777068
     48          1           0       -6.219986   -3.580434   -3.860295
     49          1           0       -6.144705   -1.873422   -3.449522
     50          1           0       -5.167039   -2.502729   -4.764537
 ---------------------------------------------------------------------
 Stoichiometry    C14H30O3S3
 Framework group  C1[X(C14H30O3S3)]
                         Standard orientation:                         
 ---------------------------------------------------------------------
 Center     Atomic      Atomic             Coordinates (Angstroms)
 Number     Number       Type             X           Y           Z
 ---------------------------------------------------------------------
      1          6           0        4.534838    5.239411    0.359330
      2          1           0        4.050502    5.365307   -0.602364
      3          1           0        4.064379    5.908025    1.073462
      4          1           0        5.576464    5.521166    0.255310
      5          6           0        4.422015    3.801404    0.825061
      6          1           0        4.896780    3.677832    1.796866
      7          1           0        3.376181    3.523562    0.937229
      8          8           0        5.056457    2.982561   -0.119076
      9          6           0        5.025810    1.609410    0.139577
     10          1           0        5.026622    1.406985    1.207661
     11          1           0        5.934486    1.188630   -0.273811
     12          6           0        3.805914    0.958201   -0.503005
     13          1           0        2.897624    1.378129   -0.089504
     14          1           0        3.805445    1.159053   -1.570643
     15          8           0        3.769461   -0.419377   -0.248202
     16          6           0        4.428137   -1.237045   -1.172970
     17          1           0        5.499021   -1.039106   -1.177431
     18          1           0        4.047930   -1.053465   -2.174738
     19          6           0        4.199871   -2.690866   -0.813197
     20          1           0        4.511092   -2.868232    0.212687
     21          1           0        4.816634   -3.304792   -1.460711
     22          8           0        2.874636   -3.089047   -1.011385
     23          6           0        2.036262   -3.042494    0.111228
     24          1           0        2.047617   -2.055503    0.553894
     25          1           0        2.372222   -3.753392    0.862377
     26          6           0        0.641088   -3.413717   -0.363991
     27          1           0        0.650508   -4.418647   -0.766160
     28          1           0        0.335860   -2.752661   -1.164402
     29         16           0       -0.599752   -3.417299    0.963844
     30          6           0       -0.967023   -1.645201    1.169940
     31          1           0       -1.426300   -1.568078    2.147091
     32          1           0       -0.047224   -1.077767    1.206825
     33          6           0       -1.896147   -1.085731    0.094499
     34          1           0       -2.814718   -1.656307    0.052511
     35          1           0       -1.433355   -1.161318   -0.880921
     36         16           0       -2.270398    0.684622    0.302867
     37          6           0       -3.532775    0.661409    1.612444
     38          1           0       -3.536678    1.662988    2.021980
     39          1           0       -3.204679   -0.003027    2.404114
     40          6           0       -4.951114    0.275039    1.187538
     41          1           0       -4.965273   -0.675181    0.667700
     42          1           0       -5.543174    0.145742    2.086848
     43         16           0       -5.843958    1.508823    0.192508
     44          6           0       -5.568251    0.943134   -1.517469
     45          1           0       -4.512731    0.981969   -1.742665
     46          1           0       -5.899305   -0.085686   -1.599393
     47          6           0       -6.354688    1.827255   -2.481096
     48          1           0       -7.418251    1.789081   -2.272917
     49          1           0       -6.032823    2.860791   -2.415460
     50          1           0       -6.197204    1.491202   -3.500968
 ---------------------------------------------------------------------
 Mulliken charges:
     1  C   -0.488615
     2  H    0.173862
     3  H    0.158226
     4  H    0.174988
     5  C    0.015754
     6  H    0.142805
     7  H    0.140099
     8  O   -0.631125
     9  C   -0.002196
    10  H    0.152515
    11  H    0.168231
    12  C   -0.005390
    13  H    0.174133
    14  H    0.158105
    15  O   -0.642702
    16  C    0.009448
    17  H    0.136746
    18  H    0.157835
    19  C    0.000073
    20  H    0.156202
    21  H    0.170081
    22  O   -0.638013
    23  C    0.025498
    24  H    0.179596
    25  H    0.153424
    26  C   -0.495246
    27  H    0.211523
    28  H    0.200983
    29  S    0.107185
    30  C   -0.475366
    31  H    0.200478
    32  H    0.214407
    33  C   -0.476549
    34  H    0.204553
    35  H    0.205407
    36  S    0.118414
    37  C   -0.470220
    38  H    0.217875
    39  H    0.191317
    40  C   -0.478260
    41  H    0.194639
    42  H    0.204545
    43  S    0.114722
    44  C   -0.460339
    45  H    0.218673
    46  H    0.179813
    47  C   -0.497538
    48  H    0.177976
    49  H    0.179769
    50  H    0.171661
 Sum of Mulliken charges =  -0.00000
 Dipole moment (field-independent basis, Debye):
    X=              1.6318    Y=             -0.5131    Z=              0.3542  Tot=              1.7468
 Quadrupole moment (field-independent basis, Debye-Ang):
   XX=           -150.0059   YY=           -158.8820   ZZ=           -143.1490
   XY=              2.5625   XZ=              3.4478   YZ=              4.6921
 Traceless Quadrupole moment (field-independent basis, Debye-Ang):
   XX=              0.6731   YY=             -8.2030   ZZ=              7.5300
   XY=              2.5625   XZ=              3.4478   YZ=              4.6921
 Octapole moment (field-independent basis, Debye-Ang**2):
  XXX=            155.7899  YYY=             35.4184  ZZZ=             -3.2101  XYY=             44.8446
  XXY=            -93.8543  XXZ=            -13.1898  XZZ=             -8.4020  YZZ=             15.0295
  YYZ=              1.4594  XYZ=             22.3394
 Hexadecapole moment (field-independent basis, Debye-Ang**3):
 XXXX=         -15074.5360 YYYY=          -5484.4946 ZZZZ=          -1094.4523 XXXY=              0.6855
 XXXZ=            166.6704 YYYX=              5.6718 YYYZ=            109.3927 ZZZX=            -43.0285
 ZZZY=             23.4717 XXYY=          -3452.5872 XXZZ=          -2422.2785 YYZZ=          -1119.8738
 XXYZ=             47.6870 YYXZ=            106.6828 ZZXY=             -3.4029
 Error termination request processed by link 9999.
 Error termination via Lnk1e in /usr/local/g16C01-legacy-userred/g16/l9999.exe at Sat Jul  8 16:21:13 2023.
 Job cpu time:       0 days  6 hours 45 minutes  1.6 seconds.
