 Copyright (c) 1988-2019, Gaussian, Inc.  All Rights Reserved.
  
 This is part of the Gaussian(R) 16 program.  It is based on
 the Gaussian(R) 09 system (copyright 2009, Gaussian, Inc.),
 the Gaussian(R) 03 system (copyright 2003, Gaussian, Inc.),
 the Gaussian(R) 98 system (copyright 1998, Gaussian, Inc.),
 the Gaussian(R) 94 system (copyright 1995, Gaussian, Inc.),
 the Gaussian 92(TM) system (copyright 1992, Gaussian, Inc.),
 the Gaussian 90(TM) system (copyright 1990, Gaussian, Inc.),
 the Gaussian 88(TM) system (copyright 1988, Gaussian, Inc.),
 the Gaussian 86(TM) system (copyright 1986, Carnegie Mellon
 University), and the Gaussian 82(TM) system (copyright 1983,
 Carnegie Mellon University). Gaussian is a federally registered
 trademark of Gaussian, Inc.
 Cite this work as:
 Gaussian 16, Revision C.01,
 M. J. Frisch, G. W. Trucks, H. B. Schlegel, G. E. Scuseria, 
 M. A. Robb, J. R. Cheeseman, G. Scalmani, V. Barone, 
 G. A. Petersson, H. Nakatsuji, X. Li, M. Caricato, A. V. Marenich, 
 J. Bloino, B. G. Janesko, R. Gomperts, B. Mennucci, H. P. Hratchian, 
 J. V. Ortiz, A. F. Izmaylov, J. L. Sonnenberg, D. Williams-Young, 
 F. Ding, F. Lipparini, F. Egidi, J. Goings, B. Peng, A. Petrone, 
 T. Henderson, D. Ranasinghe, V. G. Zakrzewski, J. Gao, N. Rega, 
 G. Zheng, W. Liang, M. Hada, M. Ehara, K. Toyota, R. Fukuda, 
 J. Hasegawa, M. Ishida, T. Nakajima, Y. Honda, O. Kitao, H. Nakai, 
 T. Vreven, K. Throssell, J. A. Montgomery, Jr., J. E. Peralta, 
 F. Ogliaro, M. J. Bearpark, J. J. Heyd, E. N. Brothers, K. N. Kudin, 
 V. N. Staroverov, T. A. Keith, R. Kobayashi, J. Normand, 
 K. Raghavachari, A. P. Rendell, J. C. Burant, S. S. Iyengar, 
 J. Tomasi, M. Cossi, J. M. Millam, M. Klene, C. Adamo, R. Cammi, 
 J. W. Ochterski, R. L. Martin, K. Morokuma, O. Farkas, 
 J. B. Foresman, and D. J. Fox, Gaussian, Inc., Wallingford CT, 2019.
 
 ******************************************
 Gaussian 16:  EM64L-G16RevC.01  3-Jul-2019
                 8-Jul-2023 
 ******************************************
 ----------------------------------------------------------------------
 #P HF/6-31G(d) Opt=(Tight,MaxCycle=55) GFInput GFPrint SCF(Conver=8,XQ
 C,MaxConventionalCycles=64,MaxCycle=128) Test
 ----------------------------------------------------------------------
 1/6=55,7=10,18=20,19=15,38=1/1,3;
 2/9=110,12=2,17=6,18=5,40=1/2;
 3/5=1,6=6,7=1,11=9,24=110,25=1,30=1,71=1/1,2,3;
 4//1;
 5/5=2,6=8,7=128,8=3,13=1,38=5,85=64/2,8;
 6/7=2,8=2,9=2,10=2,28=1/1;
 7//1,2,3,16;
 1/6=55,7=10,18=20,19=15/3(2);
 2/9=110/2;
 99//99;
 2/9=110/2;
 3/5=1,6=6,7=1,11=9,25=1,30=1,71=1/1,2,3;
 4/5=5,16=3,69=1/1;
 5/5=2,6=8,7=128,8=3,13=1,38=5,85=64/2,8;
 7//1,2,3,16;
 1/6=55,7=10,18=20,19=15/3(-5);
 2/9=110/2;
 6/7=2,8=2,9=2,10=2,19=2,28=1/1;
 99/9=1/99;
 ----------------------------------------------------------
 Optimization step - Input generated by PyRED DVE-DMDS-OPLS
 ----------------------------------------------------------
 Symbolic Z-matrix:
 Charge =  0 Multiplicity = 1
 C                     10.561    1.765     1.05 
 H                     10.726    2.829     1.244 
 H                     10.585    1.229     2.003 
 H                     11.379    1.392     0.428 
 C                     9.232     1.55      0.356 
 H                     8.411     1.936     0.978 
 H                     9.201     2.096    -0.6 
 O                     9.082     0.164     0.119 
 C                     7.906    -0.19     -0.571 
 H                     8.1      -1.143    -1.07 
 H                     7.659     0.551    -1.345 
 C                     6.723    -0.357     0.371 
 H                     6.958    -1.125     1.124 
 H                     6.513     0.581     0.909 
 O                     5.613    -0.736    -0.408 
 C                     4.445    -0.95      0.344 
 H                     4.151    -0.032     0.88 
 H                     4.595    -1.737     1.098 
 C                     3.348    -1.373    -0.62 
 H                     3.635    -2.305    -1.113 
 H                     3.228    -0.607    -1.397 
 O                     2.14     -1.611     0.074 
 C                     1.276    -0.497     0.17 
 H                     1.837     0.442     0.268 
 H                     0.696    -0.63      1.088 
 C                     0.344    -0.422    -1.036 
 H                    -0.18     -1.373    -1.159 
 H                     0.919    -0.254    -1.951 
 S                    -0.844     0.955    -0.936 
 C                    -2.118     0.248     0.166 
 H                    -1.647    -0.23      1.027 
 H                    -2.674     1.109     0.545 
 C                    -3.052    -0.726    -0.543 
 H                    -2.495    -1.586    -0.922 
 H                    -3.521    -0.248    -1.407 
 S                    -4.326    -1.434     0.555 
 C                    -5.508    -0.049     0.683 
 H                    -4.973     0.883     0.881 
 H                    -6.107    -0.259     1.573 
 C                    -6.403     0.098    -0.544 
 H                    -5.797     0.276    -1.435 
 H                    -6.966    -0.823    -0.723 
 S                    -7.572     1.498    -0.429 
 C                    -9.104     0.668     0.112 
 H                    -9.865     1.451     0.044 
 H                    -9.367    -0.094    -0.629 
 C                    -9.078     0.077     1.514 
 H                    -8.366    -0.75      1.589 
 H                    -8.802     0.832     2.255 
 H                    -10.066   -0.318     1.776 
 
 ITRead=  0  0  0  0  0  0  0  0  0  0  0  0  0  0  0  0  0  0  0  0
 ITRead=  0  0  0  0  0  0  0  0  0  0  0  0  0  0  0  0  0  0  0  0
 ITRead=  0  0  0  0  0  0  0  0  0  0
 MicOpt= -1 -1 -1 -1 -1 -1 -1 -1 -1 -1 -1 -1 -1 -1 -1 -1 -1 -1 -1 -1
 MicOpt= -1 -1 -1 -1 -1 -1 -1 -1 -1 -1 -1 -1 -1 -1 -1 -1 -1 -1 -1 -1
 MicOpt= -1 -1 -1 -1 -1 -1 -1 -1 -1 -1
 NAtoms=     50 NQM=       50 NQMF=       0 NMMI=      0 NMMIF=      0
                NMic=       0 NMicF=      0.
                          Input orientation:                          
 ---------------------------------------------------------------------
 Center     Atomic      Atomic             Coordinates (Angstroms)
 Number     Number       Type             X           Y           Z
 ---------------------------------------------------------------------
      1          6           0       10.561000    1.765000    1.050000
      2          1           0       10.726000    2.829000    1.244000
      3          1           0       10.585000    1.229000    2.003000
      4          1           0       11.379000    1.392000    0.428000
      5          6           0        9.232000    1.550000    0.356000
      6          1           0        8.411000    1.936000    0.978000
      7          1           0        9.201000    2.096000   -0.600000
      8          8           0        9.082000    0.164000    0.119000
      9          6           0        7.906000   -0.190000   -0.571000
     10          1           0        8.100000   -1.143000   -1.070000
     11          1           0        7.659000    0.551000   -1.345000
     12          6           0        6.723000   -0.357000    0.371000
     13          1           0        6.958000   -1.125000    1.124000
     14          1           0        6.513000    0.581000    0.909000
     15          8           0        5.613000   -0.736000   -0.408000
     16          6           0        4.445000   -0.950000    0.344000
     17          1           0        4.151000   -0.032000    0.880000
     18          1           0        4.595000   -1.737000    1.098000
     19          6           0        3.348000   -1.373000   -0.620000
     20          1           0        3.635000   -2.305000   -1.113000
     21          1           0        3.228000   -0.607000   -1.397000
     22          8           0        2.140000   -1.611000    0.074000
     23          6           0        1.276000   -0.497000    0.170000
     24          1           0        1.837000    0.442000    0.268000
     25          1           0        0.696000   -0.630000    1.088000
     26          6           0        0.344000   -0.422000   -1.036000
     27          1           0       -0.180000   -1.373000   -1.159000
     28          1           0        0.919000   -0.254000   -1.951000
     29         16           0       -0.844000    0.955000   -0.936000
     30          6           0       -2.118000    0.248000    0.166000
     31          1           0       -1.647000   -0.230000    1.027000
     32          1           0       -2.674000    1.109000    0.545000
     33          6           0       -3.052000   -0.726000   -0.543000
     34          1           0       -2.495000   -1.586000   -0.922000
     35          1           0       -3.521000   -0.248000   -1.407000
     36         16           0       -4.326000   -1.434000    0.555000
     37          6           0       -5.508000   -0.049000    0.683000
     38          1           0       -4.973000    0.883000    0.881000
     39          1           0       -6.107000   -0.259000    1.573000
     40          6           0       -6.403000    0.098000   -0.544000
     41          1           0       -5.797000    0.276000   -1.435000
     42          1           0       -6.966000   -0.823000   -0.723000
     43         16           0       -7.572000    1.498000   -0.429000
     44          6           0       -9.104000    0.668000    0.112000
     45          1           0       -9.865000    1.451000    0.044000
     46          1           0       -9.367000   -0.094000   -0.629000
     47          6           0       -9.078000    0.077000    1.514000
     48          1           0       -8.366000   -0.750000    1.589000
     49          1           0       -8.802000    0.832000    2.255000
     50          1           0      -10.066000   -0.318000    1.776000
 ---------------------------------------------------------------------
 Stoichiometry    C14H30O3S3
 Framework group  C1[X(C14H30O3S3)]
                         Standard orientation:                         
 ---------------------------------------------------------------------
 Center     Atomic      Atomic             Coordinates (Angstroms)
 Number     Number       Type             X           Y           Z
 ---------------------------------------------------------------------
      1          6           0       10.560979    1.765219    1.049646
      2          1           0       10.725989    2.829262    1.243403
      3          1           0       10.584974    1.229437    2.002768
      4          1           0       11.378976    1.392070    0.427731
      5          6           0        9.231977    1.550074    0.355695
      6          1           0        8.410981    1.936224    0.977606
      7          1           0        9.200982    2.095856   -0.600430
      8          8           0        9.081964    0.164021    0.119011
      9          6           0        7.905961   -0.190125   -0.570908
     10          1           0        8.099951   -1.143241   -1.069690
     11          1           0        7.658968    0.550700   -1.345077
     12          6           0        6.722959   -0.356899    0.371130
     13          1           0        6.957952   -1.124729    1.124306
     14          1           0        6.512968    0.581226    0.908916
     15          8           0        5.612955   -0.736066   -0.407783
     16          6           0        4.444953   -0.949883    0.344266
     17          1           0        4.150962   -0.031758    0.880056
     18          1           0        4.594946   -1.736712    1.098445
     19          6           0        3.347949   -1.373093   -0.619638
     20          1           0        3.634940   -2.305208   -1.112425
     21          1           0        3.227957   -0.607269   -1.396813
     22          8           0        2.139947   -1.610923    0.074416
     23          6           0        1.275958   -0.496893    0.170162
     24          1           0        1.836967    0.442124    0.267947
     25          1           0        0.695956   -0.629677    1.088192
     26          6           0        0.343958   -0.422159   -1.035855
     27          1           0       -0.180051   -1.373182   -1.158638
     28          1           0        0.918960   -0.254374   -1.950894
     29         16           0       -0.844028    0.954875   -0.936170
     30          6           0       -2.118035    0.248139    0.165992
     31          1           0       -1.647040   -0.229669    1.027101
     32          1           0       -2.674027    1.109231    0.544795
     33          6           0       -3.052045   -0.726014   -0.542786
     34          1           0       -2.495053   -1.586106   -0.921589
     35          1           0       -3.521040   -0.248207   -1.406895
     36         16           0       -4.326051   -1.433751    0.555376
     37          6           0       -5.508038   -0.048711    0.683059
     38          1           0       -4.973029    0.883329    0.880846
     39          1           0       -6.107040   -0.258502    1.573107
     40          6           0       -6.403037    0.098018   -0.543974
     41          1           0       -5.797035    0.275808   -1.435015
     42          1           0       -6.966045   -0.823018   -0.722764
     43         16           0       -7.572023    1.498055   -0.429294
     44          6           0       -9.104031    0.668193    0.111895
     45          1           0       -9.865024    1.451185    0.043717
     46          1           0       -9.367039   -0.093973   -0.628931
     47          6           0       -9.078037    0.077513    1.514030
     48          1           0       -8.366045   -0.749476    1.589219
     49          1           0       -8.802030    0.832680    2.254858
     50          1           0      -10.066041   -0.317417    1.776121
 ---------------------------------------------------------------------
 Standard basis: 6-31G(d) (6D, 7F)
   372 basis functions,   752 primitive gaussians,   372 cartesian basis functions
    93 alpha electrons       93 beta electrons
 Requested convergence on RMS density matrix=1.00D-08 within  64 cycles.
 Requested convergence on MAX density matrix=1.00D-06.
 Requested convergence on             energy=1.00D-06.
 SCF Done:  E(RHF) =  -1964.68979613     A.U. after   13 cycles
            NFock= 13  Conv=0.61D-08     -V/T= 2.0009
 Mulliken charges:
     1  C   -0.486171
     2  H    0.156379
     3  H    0.172893
     4  H    0.175662
     5  C    0.016181
     6  H    0.136988
     7  H    0.142845
     8  O   -0.633096
     9  C    0.001366
    10  H    0.183747
    11  H    0.152793
    12  C    0.009481
    13  H    0.156164
    14  H    0.141485
    15  O   -0.648292
    16  C    0.017080
    17  H    0.140916
    18  H    0.157506
    19  C   -0.010230
    20  H    0.185822
    21  H    0.155187
    22  O   -0.639013
    23  C    0.013977
    24  H    0.160297
    25  H    0.176074
    26  C   -0.496767
    27  H    0.203799
    28  H    0.202432
    29  S    0.114887
    30  C   -0.475180
    31  H    0.209946
    32  H    0.203760
    33  C   -0.475034
    34  H    0.205036
    35  H    0.207856
    36  S    0.118439
    37  C   -0.472361
    38  H    0.203829
    39  H    0.209186
    40  C   -0.475930
    41  H    0.202988
    42  H    0.204864
    43  S    0.114769
    44  C   -0.467520
    45  H    0.198812
    46  H    0.190597
    47  C   -0.477063
    48  H    0.162703
    49  H    0.179179
    50  H    0.170731
 Sum of Mulliken charges =  -0.00000
 Dipole moment (field-independent basis, Debye):
    X=             -1.0220    Y=              0.6870    Z=              0.8305  Tot=              1.4853
 Quadrupole moment (field-independent basis, Debye-Ang):
   XX=           -139.4524   YY=           -157.6612   ZZ=           -150.3375
   XY=             17.3392   XZ=             -2.9159   YZ=              5.3572
 Traceless Quadrupole moment (field-independent basis, Debye-Ang):
   XX=              9.6980   YY=             -8.5108   ZZ=             -1.1871
   XY=             17.3392   XZ=             -2.9159   YZ=              5.3572
 Octapole moment (field-independent basis, Debye-Ang**2):
  XXX=           -271.2885  YYY=             -5.4262  ZZZ=              0.7957  XYY=             80.4337
  XXY=             55.7417  XXZ=             60.5856  XZZ=             37.7192  YZZ=             -6.7475
  YYZ=             -0.5706  XYZ=            -13.5123
 Hexadecapole moment (field-independent basis, Debye-Ang**3):
 XXXX=         -33125.5751 YYYY=          -1203.2705 ZZZZ=           -693.7845 XXXY=           1270.6875
 XXXZ=           -401.5002 YYYX=             13.2111 YYYZ=             19.9457 ZZZX=            -24.4825
 ZZZY=             12.2527 XXYY=          -5938.9709 XXZZ=          -5849.8037 YYZZ=           -316.2160
 XXYZ=            140.5085 YYXZ=            -10.1492 ZZXY=              8.1619
 Step number   1 out of a maximum of   55
     Eigenvalues ---    0.00230   0.00230   0.00230   0.00230   0.00230
     Eigenvalues ---    0.00230   0.00422   0.00424   0.00444   0.00479
     Eigenvalues ---    0.00483   0.00496   0.00572   0.01505   0.01515
     Eigenvalues ---    0.01519   0.01577   0.01585   0.01619   0.04280
     Eigenvalues ---    0.04500   0.04514   0.04520   0.04538   0.04559
     Eigenvalues ---    0.04969   0.04990   0.05102   0.05392   0.05423
     Eigenvalues ---    0.05426   0.05529   0.05604   0.05654   0.05658
     Eigenvalues ---    0.05660   0.05666   0.05679   0.05722   0.05739
     Eigenvalues ---    0.05784   0.05859   0.05960   0.05966   0.05990
     Eigenvalues ---    0.05996   0.06015   0.11125   0.11139   0.11210
     Eigenvalues ---    0.11439   0.11472   0.11552   0.11556   0.11562
     Eigenvalues ---    0.11564   0.11567   0.11601   0.11893   0.13630
     Eigenvalues ---    0.13644   0.13671   0.13851   0.13889   0.13905
     Eigenvalues ---    0.13923   0.13933   0.13938   0.13939   0.13951
     Eigenvalues ---    0.14113   0.16000   0.16000   0.16000   0.16000
     Eigenvalues ---    0.16000   0.16000   0.21944   0.21947   0.21951
     Eigenvalues ---    0.21996   0.22003   0.22006   0.22007   0.22013
     Eigenvalues ---    0.22014   0.22022   0.22039   0.22052   0.24064
     Eigenvalues ---    0.24112   0.24221   0.24256   0.24282   0.24501
     Eigenvalues ---    0.25000   0.25000   0.25000   0.25000   0.25000
     Eigenvalues ---    0.25000   0.29796   0.29812   0.29949   0.30204
     Eigenvalues ---    0.30229   0.30328   0.30890   0.33360   0.33513
     Eigenvalues ---    0.33531   0.33579   0.33663   0.33686   0.33724
     Eigenvalues ---    0.33882   0.33941   0.34149   0.34248   0.34333
     Eigenvalues ---    0.34348   0.34355   0.34356   0.34372   0.34394
     Eigenvalues ---    0.34394   0.34435   0.34443   0.34450   0.34453
     Eigenvalues ---    0.34458   0.34497   0.34497   0.34499   0.34500
     Eigenvalues ---    0.34529   0.34565   0.34625   0.43362   0.43479
     Eigenvalues ---    0.43525   0.44211   0.44313   0.44716
 Maximum Force            0.009671     0.000015     NO 
 RMS     Force            0.003402     0.000010     NO 
 Maximum Displacement     0.585747     0.000060     NO 
 RMS     Displacement     0.128371     0.000040     NO 
                          Input orientation:                          
 ---------------------------------------------------------------------
 Center     Atomic      Atomic             Coordinates (Angstroms)
 Number     Number       Type             X           Y           Z
 ---------------------------------------------------------------------
      1          6           0       10.735306    1.646532    0.978501
      2          1           0       10.960463    2.691452    1.165112
      3          1           0       10.744748    1.118292    1.924538
      4          1           0       11.515375    1.231676    0.351542
      5          6           0        9.385788    1.504370    0.305128
      6          1           0        8.605348    1.929162    0.930375
      7          1           0        9.370638    2.040179   -0.641143
      8          8           0        9.151239    0.140362    0.076296
      9          6           0        7.960488   -0.179495   -0.584186
     10          1           0        8.120867   -1.124340   -1.084729
     11          1           0        7.721192    0.560925   -1.341644
     12          6           0        6.798494   -0.328143    0.383353
     13          1           0        7.026782   -1.097361    1.115945
     14          1           0        6.611683    0.596574    0.923215
     15          8           0        5.673967   -0.680118   -0.367561
     16          6           0        4.512982   -0.883442    0.379303
     17          1           0        4.244874    0.023379    0.917322
     18          1           0        4.658633   -1.670086    1.114329
     19          6           0        3.411560   -1.281630   -0.585903
     20          1           0        3.682540   -2.204622   -1.079069
     21          1           0        3.296573   -0.520167   -1.349462
     22          8           0        2.211033   -1.510075    0.103209
     23          6           0        1.329992   -0.424126    0.205966
     24          1           0        1.868501    0.513665    0.285464
     25          1           0        0.781283   -0.563333    1.126971
     26          6           0        0.375119   -0.385694   -0.982389
     27          1           0       -0.121733   -1.340364   -1.086097
     28          1           0        0.924216   -0.215949   -1.899708
     29         16           0       -0.845371    0.959119   -0.881557
     30          6           0       -2.132602    0.261296    0.205591
     31          1           0       -1.675300   -0.227034    1.054171
     32          1           0       -2.668729    1.119039    0.588470
     33          6           0       -3.086430   -0.689742   -0.513108
     34          1           0       -2.548805   -1.546616   -0.895902
     35          1           0       -3.541471   -0.202440   -1.363586
     36         16           0       -4.373232   -1.390562    0.570704
     37          6           0       -5.588546   -0.038184    0.701904
     38          1           0       -5.079495    0.898182    0.882435
     39          1           0       -6.158457   -0.253905    1.593637
     40          6           0       -6.511035    0.076300   -0.510679
     41          1           0       -5.929795    0.267342   -1.402065
     42          1           0       -7.044744   -0.849568   -0.678429
     43         16           0       -7.714473    1.443507   -0.391344
     44          6           0       -9.271960    0.606398    0.051487
     45          1           0      -10.021566    1.382094   -0.047750
     46          1           0       -9.490207   -0.136819   -0.705595
     47          6           0       -9.340519   -0.004315    1.445827
     48          1           0       -8.652319   -0.833613    1.557050
     49          1           0       -9.111964    0.730995    2.207984
     50          1           0      -10.338933   -0.388098    1.632077
 ---------------------------------------------------------------------
 Stoichiometry    C14H30O3S3
 Framework group  C1[X(C14H30O3S3)]
                         Standard orientation:                         
 ---------------------------------------------------------------------
 Center     Atomic      Atomic             Coordinates (Angstroms)
 Number     Number       Type             X           Y           Z
 ---------------------------------------------------------------------
      1          6           0       10.743601    1.576262    1.063658
      2          1           0       10.969789    2.610146    1.303035
      3          1           0       10.751096    1.000963    1.981855
      4          1           0       11.524018    1.192546    0.417590
      5          6           0        9.394834    1.469999    0.382207
      6          1           0        8.614060    1.863726    1.027066
      7          1           0        9.381640    2.052878   -0.535849
      8          8           0        9.158919    0.119576    0.084556
      9          6           0        7.968682   -0.165011   -0.592775
     10          1           0        8.128583   -1.083612   -1.140132
     11          1           0        7.731336    0.612984   -1.312232
     12          6           0        6.805180   -0.360765    0.364513
     13          1           0        7.031517   -1.166252    1.057669
     14          1           0        6.618768    0.535785    0.950089
     15          8           0        5.681251   -0.672953   -0.404668
     16          6           0        4.518994   -0.912184    0.329471
     17          1           0        4.251266   -0.033309    0.912198
     18          1           0        4.662669   -1.735090    1.024070
     19          6           0        3.418407   -1.259748   -0.656031
     20          1           0        3.688926   -2.157039   -1.194773
     21          1           0        3.305404   -0.460590   -1.380356
     22          8           0        2.216656   -1.521102    0.019111
     23          6           0        1.336812   -0.440576    0.175364
     24          1           0        1.876366    0.491311    0.302771
     25          1           0        0.786671   -0.625350    1.087457
     26          6           0        0.383618   -0.341010   -1.010785
     27          1           0       -0.114267   -1.288587   -1.163168
     28          1           0        0.934180   -0.125922   -1.917656
     29         16           0       -0.835353    0.998589   -0.843840
     30          6           0       -2.124931    0.248490    0.205041
     31          1           0       -1.669394   -0.282616    1.028504
     32          1           0       -2.660526    1.086523    0.629998
     33          6           0       -3.078943   -0.663846   -0.561963
     34          1           0       -2.541849   -1.501019   -0.986791
     35          1           0       -3.532217   -0.133674   -1.387371
     36         16           0       -4.368091   -1.416772    0.483435
     37          6           0       -5.581918   -0.071156    0.681098
     38          1           0       -5.071962    0.854250    0.909298
     39          1           0       -6.153316   -0.330842    1.560069
     40          6           0       -6.502603    0.105545   -0.525371
     41          1           0       -5.919906    0.340552   -1.405225
     42          1           0       -7.037220   -0.809989   -0.740308
     43         16           0       -7.704519    1.466554   -0.338794
     44          6           0       -9.263641    0.610197    0.059211
     45          1           0      -10.012155    1.390884   -0.001750
     46          1           0       -9.481764   -0.093602   -0.734682
     47          6           0       -9.334863   -0.069982    1.420878
     48          1           0       -8.647837   -0.904728    1.491027
     49          1           0       -9.106448    0.625650    2.219455
     50          1           0      -10.334003   -0.461374    1.586228
 ---------------------------------------------------------------------
 Standard basis: 6-31G(d) (6D, 7F)
   372 basis functions,   752 primitive gaussians,   372 cartesian basis functions
    93 alpha electrons       93 beta electrons
 Requested convergence on RMS density matrix=1.00D-08 within  64 cycles.
 Requested convergence on MAX density matrix=1.00D-06.
 Requested convergence on             energy=1.00D-06.
 SCF Done:  E(RHF) =  -1964.69351187     A.U. after   12 cycles
            NFock= 12  Conv=0.34D-08     -V/T= 2.0006
 Step number   2 out of a maximum of   55
     Eigenvalues ---    0.00230   0.00230   0.00230   0.00230   0.00230
     Eigenvalues ---    0.00248   0.00422   0.00424   0.00444   0.00480
     Eigenvalues ---    0.00483   0.00496   0.00572   0.01505   0.01514
     Eigenvalues ---    0.01518   0.01575   0.01585   0.01619   0.04219
     Eigenvalues ---    0.04466   0.04482   0.04494   0.04505   0.04531
     Eigenvalues ---    0.04961   0.04999   0.05097   0.05372   0.05430
     Eigenvalues ---    0.05430   0.05495   0.05637   0.05644   0.05650
     Eigenvalues ---    0.05658   0.05664   0.05707   0.05718   0.05737
     Eigenvalues ---    0.05772   0.05820   0.05913   0.05947   0.05969
     Eigenvalues ---    0.05978   0.05988   0.11172   0.11212   0.11265
     Eigenvalues ---    0.11461   0.11503   0.11585   0.11590   0.11600
     Eigenvalues ---    0.11604   0.11610   0.11644   0.11941   0.13625
     Eigenvalues ---    0.13642   0.13686   0.13850   0.13878   0.13924
     Eigenvalues ---    0.13946   0.13950   0.13958   0.13960   0.13974
     Eigenvalues ---    0.14160   0.15991   0.16000   0.16000   0.16000
     Eigenvalues ---    0.16000   0.16007   0.21868   0.21947   0.21953
     Eigenvalues ---    0.21963   0.21999   0.22004   0.22008   0.22013
     Eigenvalues ---    0.22020   0.22026   0.22046   0.22090   0.23757
     Eigenvalues ---    0.24075   0.24156   0.24234   0.24265   0.24476
     Eigenvalues ---    0.24631   0.25000   0.25000   0.25000   0.25000
     Eigenvalues ---    0.26114   0.29796   0.29812   0.29950   0.30187
     Eigenvalues ---    0.30233   0.30334   0.30884   0.33381   0.33519
     Eigenvalues ---    0.33551   0.33605   0.33670   0.33707   0.33791
     Eigenvalues ---    0.33910   0.34008   0.34158   0.34235   0.34301
     Eigenvalues ---    0.34341   0.34350   0.34359   0.34378   0.34394
     Eigenvalues ---    0.34405   0.34428   0.34441   0.34450   0.34456
     Eigenvalues ---    0.34479   0.34496   0.34498   0.34499   0.34525
     Eigenvalues ---    0.34560   0.34617   0.37243   0.42518   0.43418
     Eigenvalues ---    0.43503   0.44064   0.44362   0.44750
 Maximum Force            0.004537     0.000015     NO 
 RMS     Force            0.000636     0.000010     NO 
 Maximum Displacement     0.636865     0.000060     NO 
 RMS     Displacement     0.133479     0.000040     NO 
                          Input orientation:                          
 ---------------------------------------------------------------------
 Center     Atomic      Atomic             Coordinates (Angstroms)
 Number     Number       Type             X           Y           Z
 ---------------------------------------------------------------------
      1          6           0       10.691826    1.614861    1.079484
      2          1           0       10.928180    2.656576    1.268325
      3          1           0       10.669881    1.089312    2.026363
      4          1           0       11.478882    1.186228    0.471401
      5          6           0        9.355789    1.492112    0.374828
      6          1           0        8.570003    1.933296    0.981908
      7          1           0        9.374366    2.027629   -0.571256
      8          8           0        9.105196    0.133465    0.145587
      9          6           0        7.925232   -0.172573   -0.535846
     10          1           0        8.082976   -1.113648   -1.043774
     11          1           0        7.699200    0.577206   -1.287657
     12          6           0        6.748011   -0.320133    0.413761
     13          1           0        6.965932   -1.094782    1.143352
     14          1           0        6.564660    0.603366    0.957019
     15          8           0        5.632555   -0.659946   -0.354418
     16          6           0        4.456340   -0.864108    0.366508
     17          1           0        4.176347    0.038430    0.905276
     18          1           0        4.580341   -1.658295    1.097065
     19          6           0        3.372629   -1.251506   -0.623345
     20          1           0        3.653373   -2.169654   -1.119725
     21          1           0        3.277268   -0.481401   -1.380722
     22          8           0        2.159222   -1.479783    0.038718
     23          6           0        1.270487   -0.401123    0.121865
     24          1           0        1.800351    0.541988    0.195201
     25          1           0        0.707808   -0.531326    1.035709
     26          6           0        0.331088   -0.380918   -1.079485
     27          1           0       -0.162282   -1.338412   -1.173421
     28          1           0        0.889158   -0.220559   -1.992557
     29         16           0       -0.893776    0.960208   -1.010843
     30          6           0       -2.168354    0.276852    0.096366
     31          1           0       -1.703683   -0.172341    0.962348
     32          1           0       -2.724784    1.135985    0.444958
     33          6           0       -3.095121   -0.722384   -0.592119
     34          1           0       -2.537154   -1.580700   -0.940466
     35          1           0       -3.558033   -0.274341   -1.459607
     36         16           0       -4.369028   -1.409398    0.512379
     37          6           0       -5.591103   -0.062850    0.608392
     38          1           0       -5.088370    0.879936    0.772440
     39          1           0       -6.169361   -0.266774    1.498147
     40          6           0       -6.501075    0.020936   -0.615011
     41          1           0       -5.919583    0.200227   -1.508436
     42          1           0       -7.024729   -0.913737   -0.760376
     43         16           0       -7.719462    1.374290   -0.512453
     44          6           0       -9.184384    0.547613    0.180694
     45          1           0       -9.970411    1.285705    0.083464
     46          1           0       -9.449164   -0.282567   -0.461697
     47          6           0       -9.067000    0.093578    1.631421
     48          1           0       -8.324148   -0.686915    1.748981
     49          1           0       -8.796801    0.919114    2.278162
     50          1           0      -10.017299   -0.307738    1.969092
 ---------------------------------------------------------------------
 Stoichiometry    C14H30O3S3
 Framework group  C1[X(C14H30O3S3)]
                         Standard orientation:                         
 ---------------------------------------------------------------------
 Center     Atomic      Atomic             Coordinates (Angstroms)
 Number     Number       Type             X           Y           Z
 ---------------------------------------------------------------------
      1          6           0       10.717666    1.563429    1.090533
      2          1           0       10.957565    2.600468    1.299562
      3          1           0       10.697429    1.018922    2.026677
      4          1           0       11.501474    1.145022    0.471237
      5          6           0        9.378932    1.458585    0.388107
      6          1           0        8.596426    1.889559    1.006649
      7          1           0        9.395831    2.013053   -0.547029
      8          8           0        9.123772    0.105536    0.132336
      9          6           0        7.940675   -0.183454   -0.551106
     10          1           0        8.094080   -1.114503   -1.078467
     11          1           0        7.714219    0.581973   -1.286849
     12          6           0        6.766241   -0.346953    0.399340
     13          1           0        6.984442   -1.136774    1.112394
     14          1           0        6.587299    0.565880    0.961757
     15          8           0        5.647266   -0.668134   -0.371731
     16          6           0        4.472911   -0.883608    0.348935
     17          1           0        4.197254    0.008623    0.906770
     18          1           0        4.597143   -1.692726    1.062880
     19          6           0        3.384804   -1.247973   -0.644833
     20          1           0        3.661311   -2.156669   -1.160606
     21          1           0        3.289055   -0.462468   -1.386176
     22          8           0        2.172994   -1.486266    0.016623
     23          6           0        1.287563   -0.407084    0.124565
     24          1           0        1.820306    0.532903    0.215121
     25          1           0        0.727593   -0.554185    1.037509
     26          6           0        0.344196   -0.360052   -1.072919
     27          1           0       -0.152163   -1.314103   -1.184484
     28          1           0        0.899644   -0.182805   -1.984465
     29         16           0       -0.876675    0.982751   -0.973031
     30          6           0       -2.149435    0.280648    0.124498
     31          1           0       -1.683117   -0.187213    0.979642
     32          1           0       -2.702286    1.134079    0.492264
     33          6           0       -3.081299   -0.701944   -0.580856
     34          1           0       -2.526908   -1.554567   -0.948364
     35          1           0       -3.545866   -0.235207   -1.437535
     36         16           0       -4.353407   -1.407651    0.513887
     37          6           0       -5.571382   -0.059987    0.641239
     38          1           0       -5.065467    0.877917    0.822573
     39          1           0       -6.147217   -0.280265    1.528665
     40          6           0       -6.485218    0.050977   -0.577109
     41          1           0       -5.906230    0.246693   -1.468712
     42          1           0       -7.011969   -0.879136   -0.739528
     43         16           0       -7.699464    1.405303   -0.443088
     44          6           0       -9.164358    0.568793    0.238221
     45          1           0       -9.948639    1.310841    0.158598
     46          1           0       -9.433613   -0.247516   -0.419893
     47          6           0       -9.043374    0.085226    1.679076
     48          1           0       -8.302317   -0.699506    1.778317
     49          1           0       -8.768697    0.896789    2.341428
     50          1           0       -9.993653   -0.320234    2.011816
 ---------------------------------------------------------------------
 Standard basis: 6-31G(d) (6D, 7F)
   372 basis functions,   752 primitive gaussians,   372 cartesian basis functions
    93 alpha electrons       93 beta electrons
 Requested convergence on RMS density matrix=1.00D-08 within  64 cycles.
 Requested convergence on MAX density matrix=1.00D-06.
 Requested convergence on             energy=1.00D-06.
 SCF Done:  E(RHF) =  -1964.69343043     A.U. after   12 cycles
            NFock= 12  Conv=0.86D-08     -V/T= 2.0006
 Step number   3 out of a maximum of   55
     Eigenvalues ---    0.00225   0.00230   0.00230   0.00230   0.00233
     Eigenvalues ---    0.00420   0.00424   0.00444   0.00455   0.00482
     Eigenvalues ---    0.00496   0.00572   0.00670   0.01381   0.01506
     Eigenvalues ---    0.01517   0.01554   0.01585   0.01618   0.04298
     Eigenvalues ---    0.04494   0.04509   0.04529   0.04544   0.04918
     Eigenvalues ---    0.04991   0.05046   0.05094   0.05379   0.05432
     Eigenvalues ---    0.05434   0.05517   0.05585   0.05652   0.05656
     Eigenvalues ---    0.05660   0.05705   0.05716   0.05746   0.05771
     Eigenvalues ---    0.05780   0.05843   0.05938   0.05968   0.05991
     Eigenvalues ---    0.05997   0.05999   0.10586   0.11144   0.11205
     Eigenvalues ---    0.11387   0.11481   0.11501   0.11548   0.11564
     Eigenvalues ---    0.11572   0.11579   0.11618   0.11882   0.13623
     Eigenvalues ---    0.13641   0.13675   0.13828   0.13853   0.13874
     Eigenvalues ---    0.13919   0.13930   0.13940   0.13944   0.14035
     Eigenvalues ---    0.14132   0.15910   0.16000   0.16000   0.16000
     Eigenvalues ---    0.16002   0.16007   0.21361   0.21955   0.21958
     Eigenvalues ---    0.21963   0.22008   0.22012   0.22012   0.22024
     Eigenvalues ---    0.22025   0.22030   0.22035   0.22687   0.23401
     Eigenvalues ---    0.24072   0.24157   0.24234   0.24304   0.24436
     Eigenvalues ---    0.24551   0.25000   0.25000   0.25000   0.25425
     Eigenvalues ---    0.29245   0.29788   0.29919   0.30069   0.30228
     Eigenvalues ---    0.30322   0.30841   0.32452   0.33383   0.33512
     Eigenvalues ---    0.33551   0.33607   0.33668   0.33700   0.33805
     Eigenvalues ---    0.33910   0.34014   0.34165   0.34255   0.34315
     Eigenvalues ---    0.34340   0.34350   0.34375   0.34394   0.34403
     Eigenvalues ---    0.34406   0.34429   0.34442   0.34456   0.34473
     Eigenvalues ---    0.34494   0.34498   0.34499   0.34525   0.34560
     Eigenvalues ---    0.34614   0.36170   0.37656   0.41009   0.43420
     Eigenvalues ---    0.43503   0.44031   0.44367   0.44752
 Maximum Force            0.005547     0.000015     NO 
 RMS     Force            0.000715     0.000010     NO 
 Maximum Displacement     0.528979     0.000060     NO 
 RMS     Displacement     0.102720     0.000040     NO 
                          Input orientation:                          
 ---------------------------------------------------------------------
 Center     Atomic      Atomic             Coordinates (Angstroms)
 Number     Number       Type             X           Y           Z
 ---------------------------------------------------------------------
      1          6           0       10.737836    1.590378    1.020186
      2          1           0       10.984422    2.631493    1.201586
      3          1           0       10.715667    1.070207    1.970564
      4          1           0       11.517757    1.150835    0.409854
      5          6           0        9.396640    1.475859    0.323085
      6          1           0        8.618553    1.929362    0.932665
      7          1           0        9.416473    2.007231   -0.626205
      8          8           0        9.132334    0.118787    0.103440
      9          6           0        7.944554   -0.179680   -0.566741
     10          1           0        8.090315   -1.120803   -1.079558
     11          1           0        7.712642    0.574050   -1.313892
     12          6           0        6.776714   -0.322424    0.395877
     13          1           0        7.000904   -1.099435    1.122259
     14          1           0        6.607152    0.602705    0.942736
     15          8           0        5.650573   -0.654893   -0.359782
     16          6           0        4.480608   -0.854638    0.372505
     17          1           0        4.207611    0.048645    0.915357
     18          1           0        4.606516   -1.651517    1.100999
     19          6           0        3.384761   -1.235834   -0.607099
     20          1           0        3.657751   -2.153926   -1.109361
     21          1           0        3.285853   -0.462023   -1.361455
     22          8           0        2.177694   -1.459570    0.066937
     23          6           0        1.291261   -0.380037    0.154647
     24          1           0        1.822287    0.564552    0.211886
     25          1           0        0.739443   -0.501335    1.077182
     26          6           0        0.335377   -0.368347   -1.034240
     27          1           0       -0.160883   -1.326523   -1.112532
     28          1           0        0.881545   -0.216093   -1.956465
     29         16           0       -0.886137    0.975334   -0.960929
     30          6           0       -2.147296    0.296583    0.163495
     31          1           0       -1.672734   -0.153398    1.024473
     32          1           0       -2.698012    1.157880    0.517426
     33          6           0       -3.084318   -0.702070   -0.512217
     34          1           0       -2.532272   -1.562668   -0.865904
     35          1           0       -3.557519   -0.253149   -1.374557
     36         16           0       -4.344900   -1.384288    0.609661
     37          6           0       -5.561525   -0.033636    0.711607
     38          1           0       -5.053983    0.908770    0.866981
     39          1           0       -6.132282   -0.233568    1.607363
     40          6           0       -6.480572    0.048639   -0.505660
     41          1           0       -5.902522    0.226979   -1.402123
     42          1           0       -7.006356   -0.886137   -0.647536
     43         16           0       -7.693804    1.406588   -0.403522
     44          6           0       -9.227635    0.547524    0.064985
     45          1           0       -9.996293    1.298064   -0.072002
     46          1           0       -9.419724   -0.237558   -0.656031
     47          6           0       -9.279067    0.000064    1.487656
     48          1           0       -8.561422   -0.798758    1.636407
     49          1           0       -9.076232    0.778982    2.212824
     50          1           0      -10.265758   -0.406204    1.689168
 ---------------------------------------------------------------------
 Stoichiometry    C14H30O3S3
 Framework group  C1[X(C14H30O3S3)]
                         Standard orientation:                         
 ---------------------------------------------------------------------
 Center     Atomic      Atomic             Coordinates (Angstroms)
 Number     Number       Type             X           Y           Z
 ---------------------------------------------------------------------
      1          6           0       10.750444    1.485817    1.129929
      2          1           0       10.999063    2.511064    1.384267
      3          1           0       10.726463    0.900131    2.041348
      4          1           0       11.529914    1.088630    0.490670
      5          6           0        9.409546    1.423481    0.425672
      6          1           0        8.631941    1.834641    1.065163
      7          1           0        9.431214    2.020269   -0.483876
      8          8           0        9.142578    0.085789    0.110947
      9          6           0        7.954691   -0.162260   -0.579302
     10          1           0        8.098880   -1.065288   -1.156961
     11          1           0        7.724923    0.642653   -1.271724
     12          6           0        6.785819   -0.369869    0.370170
     13          1           0        7.007831   -1.196529    1.040232
     14          1           0        6.617769    0.514860    0.980646
     15          8           0        5.659565   -0.645955   -0.407699
     16          6           0        4.488625   -0.894218    0.308002
     17          1           0        4.217099   -0.030777    0.912881
     18          1           0        4.612314   -1.740634    0.978713
     19          6           0        3.392736   -1.203221   -0.696665
     20          1           0        3.664195   -2.084289   -1.262097
     21          1           0        3.296020   -0.378054   -1.394781
     22          8           0        2.184689   -1.471239   -0.040782
     23          6           0        1.300444   -0.398659    0.122102
     24          1           0        1.833396    0.538427    0.245973
     25          1           0        0.747668   -0.583372    1.033479
     26          6           0        0.345496   -0.301328   -1.063607
     27          1           0       -0.152701   -1.250562   -1.209413
     28          1           0        0.892686   -0.085746   -1.972500
     29         16           0       -0.873267    1.036472   -0.896711
     30          6           0       -2.136700    0.283002    0.176404
     31          1           0       -1.663737   -0.227440    1.003888
     32          1           0       -2.685889    1.118443    0.589706
     33          6           0       -3.075286   -0.663643   -0.568460
     34          1           0       -2.524766   -1.498407   -0.981469
     35          1           0       -3.546890   -0.154166   -1.397377
     36         16           0       -4.338147   -1.420394    0.501871
     37          6           0       -5.552028   -0.077664    0.697824
     38          1           0       -5.042641    0.850393    0.919418
     39          1           0       -6.123887   -0.338891    1.576945
     40          6           0       -6.469971    0.091995   -0.511207
     41          1           0       -5.890864    0.331718   -1.392547
     42          1           0       -6.997595   -0.829361   -0.718811
     43         16           0       -7.680444    1.441982   -0.314546
     44          6           0       -9.216422    0.555368    0.091425
     45          1           0       -9.983408    1.315324    0.007099
     46          1           0       -9.409598   -0.176640   -0.683149
     47          6           0       -9.270085   -0.090700    1.472029
     48          1           0       -8.554223   -0.899537    1.564662
     49          1           0       -9.066180    0.634843    2.250318
     50          1           0      -10.257776   -0.508029    1.643855
 ---------------------------------------------------------------------
 Standard basis: 6-31G(d) (6D, 7F)
   372 basis functions,   752 primitive gaussians,   372 cartesian basis functions
    93 alpha electrons       93 beta electrons
 Requested convergence on RMS density matrix=1.00D-08 within  64 cycles.
 Requested convergence on MAX density matrix=1.00D-06.
 Requested convergence on             energy=1.00D-06.
 SCF Done:  E(RHF) =  -1964.69370502     A.U. after   12 cycles
            NFock= 12  Conv=0.21D-08     -V/T= 2.0006
 Step number   4 out of a maximum of   55
     Eigenvalues ---    0.00230   0.00230   0.00230   0.00232   0.00258
     Eigenvalues ---    0.00423   0.00424   0.00444   0.00461   0.00483
     Eigenvalues ---    0.00495   0.00572   0.00818   0.01230   0.01508
     Eigenvalues ---    0.01518   0.01550   0.01585   0.01618   0.04316
     Eigenvalues ---    0.04513   0.04528   0.04544   0.04578   0.04990
     Eigenvalues ---    0.05038   0.05095   0.05140   0.05382   0.05435
     Eigenvalues ---    0.05440   0.05551   0.05653   0.05654   0.05662
     Eigenvalues ---    0.05700   0.05718   0.05751   0.05761   0.05783
     Eigenvalues ---    0.05825   0.05882   0.05970   0.05979   0.06003
     Eigenvalues ---    0.06007   0.06042   0.10996   0.11130   0.11201
     Eigenvalues ---    0.11365   0.11463   0.11519   0.11554   0.11559
     Eigenvalues ---    0.11566   0.11595   0.11692   0.11948   0.13615
     Eigenvalues ---    0.13637   0.13681   0.13848   0.13868   0.13917
     Eigenvalues ---    0.13926   0.13933   0.13935   0.14040   0.14104
     Eigenvalues ---    0.14494   0.15929   0.16000   0.16000   0.16000
     Eigenvalues ---    0.16006   0.16050   0.21530   0.21958   0.21962
     Eigenvalues ---    0.21965   0.22010   0.22012   0.22015   0.22025
     Eigenvalues ---    0.22031   0.22034   0.22185   0.23401   0.24037
     Eigenvalues ---    0.24146   0.24229   0.24307   0.24411   0.24531
     Eigenvalues ---    0.24678   0.25000   0.25000   0.25019   0.28325
     Eigenvalues ---    0.29337   0.29813   0.29942   0.30087   0.30290
     Eigenvalues ---    0.30393   0.30836   0.32841   0.33382   0.33524
     Eigenvalues ---    0.33551   0.33607   0.33670   0.33700   0.33799
     Eigenvalues ---    0.33906   0.33987   0.34163   0.34263   0.34339
     Eigenvalues ---    0.34350   0.34367   0.34375   0.34394   0.34403
     Eigenvalues ---    0.34421   0.34435   0.34448   0.34462   0.34488
     Eigenvalues ---    0.34494   0.34498   0.34517   0.34545   0.34594
     Eigenvalues ---    0.34649   0.36158   0.37317   0.40605   0.43429
     Eigenvalues ---    0.43503   0.44061   0.44473   0.45024
 Maximum Force            0.001095     0.000015     NO 
 RMS     Force            0.000268     0.000010     NO 
 Maximum Displacement     0.124565     0.000060     NO 
 RMS     Displacement     0.031623     0.000040     NO 
                          Input orientation:                          
 ---------------------------------------------------------------------
 Center     Atomic      Atomic             Coordinates (Angstroms)
 Number     Number       Type             X           Y           Z
 ---------------------------------------------------------------------
      1          6           0       10.760916    1.588106    1.009020
      2          1           0       11.012496    2.630581    1.178313
      3          1           0       10.731185    1.079993    1.966344
      4          1           0       11.541772    1.136196    0.407995
      5          6           0        9.422291    1.472139    0.306462
      6          1           0        8.643024    1.938329    0.906367
      7          1           0        9.449601    1.991594   -0.650122
      8          8           0        9.150668    0.113919    0.102168
      9          6           0        7.961434   -0.184286   -0.566281
     10          1           0        8.105104   -1.127250   -1.077781
     11          1           0        7.729191    0.568482   -1.315510
     12          6           0        6.795041   -0.323000    0.399604
     13          1           0        7.018698   -1.099271    1.128192
     14          1           0        6.628657    0.604500    0.944994
     15          8           0        5.666182   -0.654336   -0.352293
     16          6           0        4.498904   -0.849590    0.385325
     17          1           0        4.229710    0.056732    0.926686
     18          1           0        4.626635   -1.644608    1.116728
     19          6           0        3.397945   -1.231070   -0.589235
     20          1           0        3.667056   -2.150873   -1.091911
     21          1           0        3.296444   -0.457724   -1.344986
     22          8           0        2.194075   -1.451873    0.091486
     23          6           0        1.307941   -0.371682    0.174416
     24          1           0        1.838992    0.574556    0.218537
     25          1           0        0.763380   -0.484416    1.103044
     26          6           0        0.342847   -0.372714   -1.007714
     27          1           0       -0.151566   -1.333268   -1.075082
     28          1           0        0.884394   -0.227952   -1.934624
     29         16           0       -0.881557    0.969394   -0.939208
     30          6           0       -2.154584    0.285195    0.169755
     31          1           0       -1.688494   -0.188732    1.023097
     32          1           0       -2.694272    1.147030    0.540482
     33          6           0       -3.106380   -0.685333   -0.526758
     34          1           0       -2.565451   -1.546441   -0.897362
     35          1           0       -3.571351   -0.212367   -1.381386
     36         16           0       -4.378776   -1.372926    0.579628
     37          6           0       -5.595525   -0.021205    0.682023
     38          1           0       -5.087484    0.922635    0.830417
     39          1           0       -6.161666   -0.216353    1.582513
     40          6           0       -6.524940    0.054931   -0.528294
     41          1           0       -5.953626    0.229299   -1.430355
     42          1           0       -7.051325   -0.881469   -0.661712
     43         16           0       -7.740341    1.411715   -0.421264
     44          6           0       -9.266358    0.552799    0.074752
     45          1           0      -10.035945    1.309755   -0.020376
     46          1           0       -9.485641   -0.214809   -0.658144
     47          6           0       -9.276109   -0.028005    1.485228
     48          1           0       -8.556375   -0.832303    1.592130
     49          1           0       -9.047073    0.733420    2.221852
     50          1           0      -10.257745   -0.436443    1.708844
 ---------------------------------------------------------------------
 Stoichiometry    C14H30O3S3
 Framework group  C1[X(C14H30O3S3)]
                         Standard orientation:                         
 ---------------------------------------------------------------------
 Center     Atomic      Atomic             Coordinates (Angstroms)
 Number     Number       Type             X           Y           Z
 ---------------------------------------------------------------------
      1          6           0       10.778368    1.477884    1.121475
      2          1           0       11.031919    2.503615    1.371065
      3          1           0       10.747744    0.897102    2.036508
      4          1           0       11.558334    1.072496    0.487043
      5          6           0        9.439481    1.419265    0.412320
      6          1           0        8.661132    1.838975    1.046742
      7          1           0        9.467707    2.011303   -0.501096
      8          8           0        9.165291    0.081495    0.103346
      9          6           0        7.975455   -0.161738   -0.585970
     10          1           0        8.117318   -1.062453   -1.169102
     11          1           0        7.744581    0.647310   -1.274503
     12          6           0        6.808865   -0.372773    0.366491
     13          1           0        7.031109   -1.203636    1.032624
     14          1           0        6.644262    0.509938    0.982215
     15          8           0        5.679337   -0.642676   -0.408604
     16          6           0        4.511741   -0.892374    0.311892
     17          1           0        4.244288   -0.030272    0.921979
     18          1           0        4.638024   -1.741966    0.979398
     19          6           0        3.410004   -1.195051   -0.689090
     20          1           0        3.677351   -2.073593   -1.261654
     21          1           0        3.309909   -0.365225   -1.382557
     22          8           0        2.205765   -1.465738   -0.027294
     23          6           0        1.321669   -0.393579    0.139359
     24          1           0        1.854503    0.545392    0.256632
     25          1           0        0.776958   -0.576985    1.056559
     26          6           0        0.356499   -0.301109   -1.039086
     27          1           0       -0.139725   -1.252617   -1.180654
     28          1           0        0.898257   -0.085899   -1.952089
     29         16           0       -0.865374    1.033929   -0.866426
     30          6           0       -2.139615    0.268155    0.186393
     31          1           0       -1.674361   -0.271406    1.000305
     32          1           0       -2.677656    1.099646    0.622965
     33          6           0       -3.093279   -0.643640   -0.583102
     34          1           0       -2.553994   -1.474418   -1.019497
     35          1           0       -3.557415   -0.104940   -1.398371
     36         16           0       -4.366895   -1.412600    0.466884
     37          6           0       -5.581092   -0.070621    0.674074
     38          1           0       -5.071267    0.857913    0.895125
     39          1           0       -6.147541   -0.333969    1.556834
     40          6           0       -6.510441    0.100904   -0.526495
     41          1           0       -5.938858    0.343648   -1.412433
     42          1           0       -7.038595   -0.821340   -0.732033
     43         16           0       -7.723280    1.447569   -0.314290
     44          6           0       -9.250878    0.555623    0.113929
     45          1           0      -10.019046    1.319115    0.077964
     46          1           0       -9.471652   -0.152413   -0.676254
     47          6           0       -9.261631   -0.132818    1.475106
     48          1           0       -8.543403   -0.944330    1.519149
     49          1           0       -9.031116    0.568746    2.268524
     50          1           0      -10.244019   -0.555534    1.666574
 ---------------------------------------------------------------------
 Standard basis: 6-31G(d) (6D, 7F)
   372 basis functions,   752 primitive gaussians,   372 cartesian basis functions
    93 alpha electrons       93 beta electrons
 Requested convergence on RMS density matrix=1.00D-08 within  64 cycles.
 Requested convergence on MAX density matrix=1.00D-06.
 Requested convergence on             energy=1.00D-06.
 SCF Done:  E(RHF) =  -1964.69375089     A.U. after   11 cycles
            NFock= 11  Conv=0.34D-08     -V/T= 2.0006
 Step number   5 out of a maximum of   55
     Eigenvalues ---    0.00230   0.00230   0.00230   0.00232   0.00414
     Eigenvalues ---    0.00424   0.00437   0.00444   0.00457   0.00484
     Eigenvalues ---    0.00493   0.00572   0.00797   0.00954   0.01511
     Eigenvalues ---    0.01519   0.01545   0.01585   0.01618   0.04317
     Eigenvalues ---    0.04502   0.04519   0.04535   0.04911   0.04993
     Eigenvalues ---    0.05065   0.05103   0.05159   0.05377   0.05434
     Eigenvalues ---    0.05439   0.05589   0.05660   0.05663   0.05671
     Eigenvalues ---    0.05692   0.05713   0.05746   0.05751   0.05782
     Eigenvalues ---    0.05798   0.05876   0.05970   0.05982   0.06003
     Eigenvalues ---    0.06006   0.06036   0.11132   0.11143   0.11263
     Eigenvalues ---    0.11321   0.11448   0.11529   0.11553   0.11559
     Eigenvalues ---    0.11570   0.11622   0.11653   0.11900   0.13568
     Eigenvalues ---    0.13635   0.13685   0.13839   0.13885   0.13898
     Eigenvalues ---    0.13926   0.13936   0.13960   0.14015   0.14067
     Eigenvalues ---    0.14187   0.15980   0.15998   0.16000   0.16001
     Eigenvalues ---    0.16006   0.16023   0.21245   0.21957   0.21961
     Eigenvalues ---    0.21968   0.21993   0.22011   0.22015   0.22018
     Eigenvalues ---    0.22028   0.22046   0.22561   0.23332   0.24017
     Eigenvalues ---    0.24045   0.24177   0.24237   0.24320   0.24484
     Eigenvalues ---    0.24562   0.24993   0.25000   0.25069   0.27925
     Eigenvalues ---    0.29325   0.29842   0.30019   0.30092   0.30286
     Eigenvalues ---    0.30423   0.30874   0.33108   0.33382   0.33524
     Eigenvalues ---    0.33551   0.33609   0.33669   0.33700   0.33812
     Eigenvalues ---    0.33912   0.34047   0.34182   0.34265   0.34330
     Eigenvalues ---    0.34347   0.34369   0.34375   0.34391   0.34403
     Eigenvalues ---    0.34422   0.34430   0.34447   0.34458   0.34481
     Eigenvalues ---    0.34494   0.34498   0.34510   0.34549   0.34605
     Eigenvalues ---    0.34665   0.36908   0.38091   0.40848   0.43460
     Eigenvalues ---    0.43514   0.44043   0.44479   0.45127
 Maximum Force            0.000374     0.000015     NO 
 RMS     Force            0.000105     0.000010     NO 
 Maximum Displacement     0.107286     0.000060     NO 
 RMS     Displacement     0.032208     0.000040     NO 
                          Input orientation:                          
 ---------------------------------------------------------------------
 Center     Atomic      Atomic             Coordinates (Angstroms)
 Number     Number       Type             X           Y           Z
 ---------------------------------------------------------------------
      1          6           0       10.744579    1.575964    1.048219
      2          1           0       11.000776    2.618045    1.213354
      3          1           0       10.695085    1.075903    2.009066
      4          1           0       11.532472    1.113617    0.464403
      5          6           0        9.417327    1.463780    0.323734
      6          1           0        8.630718    1.940027    0.906120
      7          1           0        9.464067    1.975118   -0.636571
      8          8           0        9.138791    0.106009    0.125097
      9          6           0        7.955010   -0.187803   -0.555483
     10          1           0        8.101525   -1.129376   -1.068995
     11          1           0        7.731235    0.567767   -1.304576
     12          6           0        6.780538   -0.326823    0.400646
     13          1           0        6.994833   -1.106847    1.128166
     14          1           0        6.612776    0.599006    0.948601
     15          8           0        5.656264   -0.650901   -0.360799
     16          6           0        4.484046   -0.845000    0.368868
     17          1           0        4.215028    0.060651    0.911665
     18          1           0        4.605596   -1.642394    1.098856
     19          6           0        3.387532   -1.219243   -0.613596
     20          1           0        3.656482   -2.137591   -1.119227
     21          1           0        3.291788   -0.442394   -1.366669
     22          8           0        2.179621   -1.439480    0.060361
     23          6           0        1.293846   -0.358515    0.137772
     24          1           0        1.825725    0.587328    0.182297
     25          1           0        0.746017   -0.468752    1.064915
     26          6           0        0.333467   -0.361555   -1.048258
     27          1           0       -0.160906   -1.322161   -1.115880
     28          1           0        0.879532   -0.219467   -1.973123
     29         16           0       -0.892259    0.979874   -0.984813
     30          6           0       -2.154223    0.308190    0.144887
     31          1           0       -1.679169   -0.138098    1.008190
     32          1           0       -2.705034    1.171042    0.496740
     33          6           0       -3.094612   -0.692255   -0.524390
     34          1           0       -2.542294   -1.554234   -0.876030
     35          1           0       -3.568346   -0.247120   -1.389153
     36         16           0       -4.355758   -1.367969    0.602675
     37          6           0       -5.582072   -0.023149    0.687994
     38          1           0       -5.079818    0.925120    0.827799
     39          1           0       -6.150327   -0.210596    1.588876
     40          6           0       -6.508587    0.034604   -0.525833
     41          1           0       -5.935046    0.201547   -1.427947
     42          1           0       -7.029659   -0.905931   -0.651170
     43         16           0       -7.732391    1.385734   -0.436149
     44          6           0       -9.248706    0.527845    0.092377
     45          1           0      -10.026775    1.273594   -0.021910
     46          1           0       -9.463737   -0.263738   -0.616051
     47          6           0       -9.247288   -0.009732    1.519932
     48          1           0       -8.517320   -0.801485    1.648904
     49          1           0       -9.025557    0.776559    2.232451
     50          1           0      -10.222794   -0.423718    1.759660
 ---------------------------------------------------------------------
 Stoichiometry    C14H30O3S3
 Framework group  C1[X(C14H30O3S3)]
                         Standard orientation:                         
 ---------------------------------------------------------------------
 Center     Atomic      Atomic             Coordinates (Angstroms)
 Number     Number       Type             X           Y           Z
 ---------------------------------------------------------------------
      1          6           0       10.762507    1.459421    1.161670
      2          1           0       11.021011    2.484845    1.407676
      3          1           0       10.712229    0.885852    2.080489
      4          1           0       11.549216    1.042470    0.543106
      5          6           0        9.434790    1.407075    0.431266
      6          1           0        8.649395    1.837993    1.049492
      7          1           0        9.482339    1.991850   -0.486129
      8          8           0        9.153254    0.069595    0.127182
      9          6           0        7.968629   -0.167562   -0.573725
     10          1           0        8.112945   -1.066400   -1.159374
     11          1           0        7.746258    0.644756   -1.261325
     12          6           0        6.794155   -0.378428    0.369165
     13          1           0        7.006987   -1.213417    1.033350
     14          1           0        6.628568    0.502066    0.987930
     15          8           0        5.668946   -0.639561   -0.414755
     16          6           0        4.496537   -0.887629    0.298057
     17          1           0        4.229649   -0.026633    0.910151
     18          1           0        4.616587   -1.739931    0.963389
     19          6           0        3.398910   -1.181548   -0.710141
     20          1           0        3.665715   -2.058110   -1.286175
     21          1           0        3.304615   -0.347979   -1.400105
     22          8           0        2.190734   -1.451241   -0.054894
     23          6           0        1.307326   -0.377754    0.107245
     24          1           0        1.841265    0.560572    0.225351
     25          1           0        0.759548   -0.558995    1.023188
     26          6           0        0.346574   -0.285977   -1.074931
     27          1           0       -0.149898   -1.237294   -1.217237
     28          1           0        0.892659   -0.073157   -1.986112
     29         16           0       -0.876224    1.048995   -0.906183
     30          6           0       -2.139289    0.293710    0.168130
     31          1           0       -1.664935   -0.219742    0.993658
     32          1           0       -2.688122    1.127574    0.586652
     33          6           0       -3.082049   -0.649318   -0.576890
     34          1           0       -2.531708   -1.482332   -0.995131
     35          1           0       -3.555087   -0.136904   -1.403964
     36         16           0       -4.344305   -1.408416    0.494480
     37          6           0       -5.567678   -0.071774    0.685301
     38          1           0       -5.063329    0.861582    0.898600
     39          1           0       -6.136058   -0.327892    1.569036
     40          6           0       -6.494443    0.082712   -0.519848
     41          1           0       -5.920822    0.318473   -1.406416
     42          1           0       -7.017589   -0.844026   -0.718108
     43         16           0       -7.715291    1.425298   -0.324182
     44          6           0       -9.233296    0.531939    0.136356
     45          1           0      -10.009784    1.286000    0.081116
     46          1           0       -9.450260   -0.201354   -0.631707
     47          6           0       -9.232599   -0.115641    1.517495
     48          1           0       -8.504307   -0.916612    1.583800
     49          1           0       -9.008945    0.612041    2.289220
     50          1           0      -10.208924   -0.545026    1.724579
 ---------------------------------------------------------------------
 Standard basis: 6-31G(d) (6D, 7F)
   372 basis functions,   752 primitive gaussians,   372 cartesian basis functions
    93 alpha electrons       93 beta electrons
 Requested convergence on RMS density matrix=1.00D-08 within  64 cycles.
 Requested convergence on MAX density matrix=1.00D-06.
 Requested convergence on             energy=1.00D-06.
 SCF Done:  E(RHF) =  -1964.69376707     A.U. after   11 cycles
            NFock= 11  Conv=0.50D-08     -V/T= 2.0006
 Step number   6 out of a maximum of   55
     Eigenvalues ---    0.00230   0.00230   0.00231   0.00239   0.00420
     Eigenvalues ---    0.00423   0.00436   0.00444   0.00470   0.00487
     Eigenvalues ---    0.00493   0.00572   0.00647   0.00762   0.01514
     Eigenvalues ---    0.01522   0.01537   0.01585   0.01618   0.04333
     Eigenvalues ---    0.04502   0.04523   0.04540   0.04976   0.05015
     Eigenvalues ---    0.05101   0.05145   0.05345   0.05371   0.05430
     Eigenvalues ---    0.05441   0.05593   0.05660   0.05669   0.05681
     Eigenvalues ---    0.05704   0.05734   0.05746   0.05751   0.05781
     Eigenvalues ---    0.05852   0.05873   0.05974   0.05980   0.05999
     Eigenvalues ---    0.06002   0.06072   0.11140   0.11162   0.11227
     Eigenvalues ---    0.11406   0.11491   0.11519   0.11550   0.11558
     Eigenvalues ---    0.11567   0.11624   0.11788   0.12057   0.13562
     Eigenvalues ---    0.13640   0.13689   0.13845   0.13884   0.13913
     Eigenvalues ---    0.13927   0.13934   0.13959   0.14071   0.14145
     Eigenvalues ---    0.15199   0.15981   0.15998   0.16000   0.16001
     Eigenvalues ---    0.16008   0.16110   0.20884   0.21948   0.21959
     Eigenvalues ---    0.21966   0.21996   0.22010   0.22012   0.22022
     Eigenvalues ---    0.22035   0.22103   0.23131   0.23739   0.23780
     Eigenvalues ---    0.24157   0.24231   0.24266   0.24384   0.24466
     Eigenvalues ---    0.24641   0.24993   0.25025   0.25424   0.27966
     Eigenvalues ---    0.29441   0.29849   0.30035   0.30128   0.30292
     Eigenvalues ---    0.30708   0.31447   0.32867   0.33383   0.33532
     Eigenvalues ---    0.33551   0.33609   0.33669   0.33700   0.33814
     Eigenvalues ---    0.33911   0.34025   0.34173   0.34267   0.34345
     Eigenvalues ---    0.34357   0.34370   0.34376   0.34395   0.34407
     Eigenvalues ---    0.34424   0.34438   0.34450   0.34465   0.34487
     Eigenvalues ---    0.34494   0.34504   0.34524   0.34559   0.34605
     Eigenvalues ---    0.34705   0.35926   0.39731   0.43198   0.43498
     Eigenvalues ---    0.44022   0.44267   0.44587   0.46331
 Maximum Force            0.000303     0.000015     NO 
 RMS     Force            0.000088     0.000010     NO 
 Maximum Displacement     0.050235     0.000060     NO 
 RMS     Displacement     0.011526     0.000040     NO 
                          Input orientation:                          
 ---------------------------------------------------------------------
 Center     Atomic      Atomic             Coordinates (Angstroms)
 Number     Number       Type             X           Y           Z
 ---------------------------------------------------------------------
      1          6           0       10.743292    1.584660    1.050983
      2          1           0       11.000285    2.627364    1.210247
      3          1           0       10.686009    1.091833    2.015027
      4          1           0       11.534426    1.116600    0.476334
      5          6           0        9.421184    1.469674    0.317905
      6          1           0        8.631227    1.951275    0.891106
      7          1           0        9.475652    1.974018   -0.645526
      8          8           0        9.141496    0.111009    0.127043
      9          6           0        7.958805   -0.185188   -0.554599
     10          1           0        8.107121   -1.126111   -1.068613
     11          1           0        7.733763    0.570240   -1.303167
     12          6           0        6.784973   -0.326192    0.401616
     13          1           0        7.000158   -1.106889    1.127916
     14          1           0        6.617554    0.598789    0.950925
     15          8           0        5.660258   -0.649890   -0.359359
     16          6           0        4.488826   -0.846027    0.371043
     17          1           0        4.219318    0.058583    0.915116
     18          1           0        4.611763   -1.643992    1.099956
     19          6           0        3.391647   -1.220170   -0.610420
     20          1           0        3.661057   -2.137236   -1.117936
     21          1           0        3.293916   -0.442337   -1.361990
     22          8           0        2.184858   -1.442486    0.065078
     23          6           0        1.296334   -0.363726    0.142554
     24          1           0        1.826004    0.583287    0.184765
     25          1           0        0.750391   -0.473713    1.070708
     26          6           0        0.334531   -0.370894   -1.042202
     27          1           0       -0.157437   -1.332708   -1.108121
     28          1           0        0.879275   -0.228798   -1.967735
     29         16           0       -0.893829    0.968044   -0.980232
     30          6           0       -2.159204    0.290690    0.142121
     31          1           0       -1.686864   -0.164681    1.002031
     32          1           0       -2.706777    1.152687    0.500750
     33          6           0       -3.102946   -0.700069   -0.536838
     34          1           0       -2.554236   -1.561396   -0.895298
     35          1           0       -3.573927   -0.245642   -1.398132
     36         16           0       -4.367949   -1.380329    0.582985
     37          6           0       -5.587687   -0.030446    0.679314
     38          1           0       -5.080860    0.914397    0.824891
     39          1           0       -6.155048   -0.221533    1.579862
     40          6           0       -6.515755    0.040031   -0.532663
     41          1           0       -5.943207    0.211056   -1.434536
     42          1           0       -7.041324   -0.897057   -0.664087
     43         16           0       -7.732983    1.396067   -0.431633
     44          6           0       -9.249973    0.541962    0.100861
     45          1           0      -10.025255    1.291481   -0.006562
     46          1           0       -9.471778   -0.245603   -0.609820
     47          6           0       -9.243671   -0.001441    1.526146
     48          1           0       -8.515995   -0.796214    1.648673
     49          1           0       -9.016055    0.781089    2.240833
     50          1           0      -10.219363   -0.413066    1.768683
 ---------------------------------------------------------------------
 Stoichiometry    C14H30O3S3
 Framework group  C1[X(C14H30O3S3)]
                         Standard orientation:                         
 ---------------------------------------------------------------------
 Center     Atomic      Atomic             Coordinates (Angstroms)
 Number     Number       Type             X           Y           Z
 ---------------------------------------------------------------------
      1          6           0       10.762186    1.481489    1.147680
      2          1           0       11.021553    2.510601    1.376373
      3          1           0       10.704257    0.925230    2.076529
      4          1           0       11.552021    1.051314    0.542449
      5          6           0        9.439491    1.418809    0.409341
      6          1           0        8.650862    1.862589    1.014035
      7          1           0        9.494631    1.986525   -0.518122
      8          8           0        9.156717    0.076618    0.127941
      9          6           0        7.973062   -0.170618   -0.571318
     10          1           0        8.119064   -1.075261   -1.147380
     11          1           0        7.749345    0.633809   -1.267390
     12          6           0        6.799360   -0.372897    0.373997
     13          1           0        7.013155   -1.201022    1.046162
     14          1           0        6.634236    0.513514    0.984215
     15          8           0        5.673585   -0.642376   -0.406297
     16          6           0        4.502057   -0.884522    0.310013
     17          1           0        4.234797   -0.017863    0.913704
     18          1           0        4.623567   -1.729851    0.983683
     19          6           0        3.403605   -1.189602   -0.693672
     20          1           0        3.670757   -2.071141   -1.261723
     21          1           0        3.307247   -0.362895   -1.391313
     22          8           0        2.196638   -1.454108   -0.033876
     23          6           0        1.310534   -0.381047    0.116325
     24          1           0        1.842313    0.559848    0.221644
     25          1           0        0.764775   -0.551862    1.035341
     26          6           0        0.348173   -0.306638   -1.065660
     27          1           0       -0.145947   -1.260792   -1.195651
     28          1           0        0.892805   -0.103960   -1.979908
     29         16           0       -0.877199    1.027793   -0.913272
     30          6           0       -2.143551    0.279427    0.161883
     31          1           0       -1.671823   -0.233626    0.989025
[...]
     18          1           0        4.614199   -1.653555    1.093324
     19          6           0        3.389607   -1.215244   -0.609681
     20          1           0        3.654875   -2.129401   -1.124408
     21          1           0        3.290692   -0.432144   -1.355336
     22          8           0        2.184679   -1.439364    0.069248
     23          6           0        1.296513   -0.360406    0.152419
     24          1           0        1.826850    0.585741    0.202317
     25          1           0        0.749311   -0.476947    1.078898
     26          6           0        0.336397   -0.358647   -1.033469
     27          1           0       -0.156176   -1.319551   -1.106701
     28          1           0        0.881878   -0.210283   -1.957487
     29         16           0       -0.890983    0.980730   -0.963713
     30          6           0       -2.157402    0.297083    0.153614
     31          1           0       -1.685806   -0.162307    1.011714
     32          1           0       -2.705497    1.157184    0.515788
     33          6           0       -3.099597   -0.690618   -0.531482
     34          1           0       -2.550162   -1.549955   -0.893454
     35          1           0       -3.569738   -0.232275   -1.391073
     36         16           0       -4.365450   -1.377669    0.583161
     37          6           0       -5.588145   -0.030786    0.682310
     38          1           0       -5.083809    0.914611    0.832406
     39          1           0       -6.156207   -0.226832    1.581245
     40          6           0       -6.513817    0.042408   -0.531099
     41          1           0       -5.939748    0.218653   -1.430981
     42          1           0       -7.036815   -0.895318   -0.667835
     43         16           0       -7.733999    1.395380   -0.429149
     44          6           0       -9.251325    0.537427    0.096070
     45          1           0      -10.026389    1.287342   -0.009628
     46          1           0       -9.471036   -0.246415   -0.619267
     47          6           0       -9.248605   -0.013321    1.518300
     48          1           0       -8.522392   -0.809707    1.638492
     49          1           0       -9.021812    0.765031    2.237712
     50          1           0      -10.225354   -0.424963    1.756358
 ---------------------------------------------------------------------
 Stoichiometry    C14H30O3S3
 Framework group  C1[X(C14H30O3S3)]
                         Standard orientation:                         
 ---------------------------------------------------------------------
 Center     Atomic      Atomic             Coordinates (Angstroms)
 Number     Number       Type             X           Y           Z
 ---------------------------------------------------------------------
      1          6           0       10.743185    1.478566    1.173691
      2          1           0       11.013181    2.509553    1.380325
      3          1           0       10.637238    0.953559    2.116325
      4          1           0       11.548350    1.015083    0.615143
      5          6           0        9.450718    1.415999    0.384115
      6          1           0        8.645675    1.889817    0.942540
      7          1           0        9.553254    1.954716   -0.556323
      8          8           0        9.155421    0.070695    0.130128
      9          6           0        7.975379   -0.176337   -0.576559
     10          1           0        8.124915   -1.076996   -1.157949
     11          1           0        7.751285    0.631546   -1.268013
     12          6           0        6.802205   -0.384759    0.367131
     13          1           0        7.013822   -1.220259    1.030537
     14          1           0        6.642836    0.496296    0.986526
     15          8           0        5.673570   -0.642100   -0.413503
     16          6           0        4.503559   -0.891164    0.303350
     17          1           0        4.239876   -0.031873    0.918824
     18          1           0        4.625511   -1.745215    0.965640
     19          6           0        3.401507   -1.181255   -0.700412
     20          1           0        3.664755   -2.055963   -1.280568
     21          1           0        3.304088   -0.345626   -1.386899
     22          8           0        2.196244   -1.451817   -0.039227
     23          6           0        1.310360   -0.379961    0.122767
     24          1           0        1.842692    0.558918    0.241390
     25          1           0        0.763097   -0.562662    1.038462
     26          6           0        0.350017   -0.289673   -1.059496
     27          1           0       -0.144585   -1.241646   -1.202481
     28          1           0        0.895627   -0.075411   -1.970414
     29         16           0       -0.874536    1.043590   -0.891759
     30          6           0       -2.142167    0.282865    0.173144
     31          1           0       -1.671367   -0.238899    0.995268
     32          1           0       -2.688385    1.115381    0.597307
     33          6           0       -3.086566   -0.650249   -0.581872
     34          1           0       -2.539007   -1.482021   -1.005779
     35          1           0       -3.555914   -0.129426   -1.405561
     36         16           0       -4.353639   -1.414175    0.480105
     37          6           0       -5.573486   -0.075581    0.677702
     38          1           0       -5.067138    0.855293    0.896209
     39          1           0       -6.141782   -0.335521    1.560133
     40          6           0       -6.499242    0.087888   -0.526808
     41          1           0       -5.924980    0.328137   -1.411630
     42          1           0       -7.024232   -0.836271   -0.731425
     43         16           0       -7.716561    1.432346   -0.325973
     44          6           0       -9.235581    0.541509    0.135768
     45          1           0      -10.009090    1.298747    0.085345
     46          1           0       -9.457077   -0.187585   -0.634785
     47          6           0       -9.233737   -0.111559    1.514015
     48          1           0       -8.509174   -0.916101    1.575518
     49          1           0       -9.005170    0.611746    2.288229
     50          1           0      -10.211301   -0.537446    1.721741
 ---------------------------------------------------------------------
 Standard basis: 6-31G(d) (6D, 7F)
   372 basis functions,   752 primitive gaussians,   372 cartesian basis functions
    93 alpha electrons       93 beta electrons
 Requested convergence on RMS density matrix=1.00D-08 within  64 cycles.
 Requested convergence on MAX density matrix=1.00D-06.
 Requested convergence on             energy=1.00D-06.
 SCF Done:  E(RHF) =  -1964.69378422     A.U. after    4 cycles
            NFock=  4  Conv=0.35D-08     -V/T= 2.0006
 Step number  26 out of a maximum of   55
     Eigenvalues ---    0.00179   0.00291   0.00331   0.00403   0.00415
     Eigenvalues ---    0.00442   0.00466   0.00513   0.00520   0.00533
     Eigenvalues ---    0.00582   0.00639   0.00682   0.00733   0.00754
     Eigenvalues ---    0.00891   0.01506   0.01612   0.02212   0.04441
     Eigenvalues ---    0.04925   0.04981   0.05001   0.05053   0.05173
     Eigenvalues ---    0.05246   0.05404   0.05451   0.05483   0.05565
     Eigenvalues ---    0.05673   0.05683   0.05728   0.05747   0.05766
     Eigenvalues ---    0.05776   0.05783   0.05789   0.05816   0.05883
     Eigenvalues ---    0.05905   0.05950   0.05972   0.05991   0.06096
     Eigenvalues ---    0.06232   0.07710   0.11072   0.11225   0.11282
     Eigenvalues ---    0.11462   0.11517   0.11579   0.11617   0.11665
     Eigenvalues ---    0.11732   0.11808   0.12024   0.12427   0.13161
     Eigenvalues ---    0.13641   0.13678   0.13744   0.13898   0.13954
     Eigenvalues ---    0.13983   0.14060   0.14153   0.14239   0.14685
     Eigenvalues ---    0.15088   0.15844   0.15959   0.16008   0.16020
     Eigenvalues ---    0.16077   0.16294   0.20294   0.20864   0.21892
     Eigenvalues ---    0.21967   0.22238   0.22502   0.22963   0.23163
     Eigenvalues ---    0.23310   0.23496   0.23675   0.23932   0.24158
     Eigenvalues ---    0.24263   0.24356   0.24525   0.24646   0.24791
     Eigenvalues ---    0.25147   0.25796   0.28050   0.28602   0.29797
     Eigenvalues ---    0.30023   0.30079   0.30261   0.30682   0.30765
     Eigenvalues ---    0.31712   0.32676   0.33379   0.33526   0.33555
     Eigenvalues ---    0.33619   0.33666   0.33705   0.33808   0.33916
     Eigenvalues ---    0.34087   0.34275   0.34298   0.34343   0.34380
     Eigenvalues ---    0.34392   0.34403   0.34417   0.34447   0.34451
     Eigenvalues ---    0.34480   0.34488   0.34508   0.34516   0.34590
     Eigenvalues ---    0.34641   0.34701   0.34735   0.34795   0.34968
     Eigenvalues ---    0.35748   0.39135   0.41812   0.43504   0.43878
     Eigenvalues ---    0.44456   0.44924   0.45917   0.51916
 Maximum Force            0.000000     0.000015     YES
 RMS     Force            0.000000     0.000010     YES
 Maximum Displacement     0.000051     0.000060     YES
 RMS     Displacement     0.000012     0.000040     YES
 Optimization completed.
    -- Stationary point found.
                          Input orientation:                          
 ---------------------------------------------------------------------
 Center     Atomic      Atomic             Coordinates (Angstroms)
 Number     Number       Type             X           Y           Z
 ---------------------------------------------------------------------
      1          6           0       10.725087    1.589642    1.066772
      2          1           0       10.992868    2.633524    1.197673
      3          1           0       10.619902    1.134601    2.045183
      4          1           0       11.531409    1.088327    0.543693
      5          6           0        9.433028    1.466913    0.283613
      6          1           0        8.626808    1.978528    0.805815
      7          1           0        9.534773    1.935782   -0.693609
      8          8           0        9.140616    0.106045    0.128416
      9          6           0        7.961337   -0.194372   -0.558592
     10          1           0        8.112948   -1.134740   -1.072678
     11          1           0        7.735806    0.560427   -1.307201
     12          6           0        6.788270   -0.335836    0.397561
     13          1           0        7.001391   -1.120252    1.120209
     14          1           0        6.626854    0.587732    0.950980
     15          8           0        5.660444   -0.651823   -0.362434
     16          6           0        4.490704   -0.850367    0.370452
     17          1           0        4.225020    0.050991    0.921529
     18          1           0        4.614199   -1.653555    1.093324
     19          6           0        3.389607   -1.215244   -0.609681
     20          1           0        3.654875   -2.129401   -1.124408
     21          1           0        3.290692   -0.432144   -1.355336
     22          8           0        2.184679   -1.439364    0.069248
     23          6           0        1.296513   -0.360406    0.152419
     24          1           0        1.826850    0.585741    0.202317
     25          1           0        0.749311   -0.476947    1.078898
     26          6           0        0.336397   -0.358647   -1.033469
     27          1           0       -0.156176   -1.319551   -1.106701
     28          1           0        0.881878   -0.210283   -1.957487
     29         16           0       -0.890983    0.980730   -0.963713
     30          6           0       -2.157402    0.297083    0.153614
     31          1           0       -1.685806   -0.162307    1.011714
     32          1           0       -2.705497    1.157184    0.515788
     33          6           0       -3.099597   -0.690618   -0.531482
     34          1           0       -2.550162   -1.549955   -0.893454
     35          1           0       -3.569738   -0.232275   -1.391073
     36         16           0       -4.365450   -1.377669    0.583161
     37          6           0       -5.588145   -0.030786    0.682310
     38          1           0       -5.083809    0.914611    0.832406
     39          1           0       -6.156207   -0.226832    1.581245
     40          6           0       -6.513817    0.042408   -0.531099
     41          1           0       -5.939748    0.218653   -1.430981
     42          1           0       -7.036815   -0.895318   -0.667835
     43         16           0       -7.733999    1.395380   -0.429149
     44          6           0       -9.251325    0.537427    0.096070
     45          1           0      -10.026389    1.287342   -0.009628
     46          1           0       -9.471036   -0.246415   -0.619267
     47          6           0       -9.248605   -0.013321    1.518300
     48          1           0       -8.522392   -0.809707    1.638492
     49          1           0       -9.021812    0.765031    2.237712
     50          1           0      -10.225354   -0.424963    1.756358
 ---------------------------------------------------------------------
 Stoichiometry    C14H30O3S3
 Framework group  C1[X(C14H30O3S3)]
                         Standard orientation:                         
 ---------------------------------------------------------------------
 Center     Atomic      Atomic             Coordinates (Angstroms)
 Number     Number       Type             X           Y           Z
 ---------------------------------------------------------------------
      1          6           0       10.743185    1.478566    1.173691
      2          1           0       11.013181    2.509553    1.380325
      3          1           0       10.637238    0.953559    2.116325
      4          1           0       11.548350    1.015083    0.615143
      5          6           0        9.450718    1.415999    0.384115
      6          1           0        8.645675    1.889817    0.942540
      7          1           0        9.553254    1.954716   -0.556323
      8          8           0        9.155421    0.070695    0.130128
      9          6           0        7.975379   -0.176337   -0.576559
     10          1           0        8.124915   -1.076996   -1.157949
     11          1           0        7.751285    0.631546   -1.268013
     12          6           0        6.802205   -0.384759    0.367131
     13          1           0        7.013822   -1.220259    1.030537
     14          1           0        6.642836    0.496296    0.986526
     15          8           0        5.673570   -0.642100   -0.413503
     16          6           0        4.503559   -0.891164    0.303350
     17          1           0        4.239876   -0.031873    0.918824
     18          1           0        4.625511   -1.745215    0.965640
     19          6           0        3.401507   -1.181255   -0.700412
     20          1           0        3.664755   -2.055963   -1.280568
     21          1           0        3.304088   -0.345626   -1.386899
     22          8           0        2.196244   -1.451817   -0.039227
     23          6           0        1.310360   -0.379961    0.122767
     24          1           0        1.842692    0.558918    0.241390
     25          1           0        0.763097   -0.562662    1.038462
     26          6           0        0.350017   -0.289673   -1.059496
     27          1           0       -0.144585   -1.241646   -1.202481
     28          1           0        0.895627   -0.075411   -1.970414
     29         16           0       -0.874536    1.043590   -0.891759
     30          6           0       -2.142167    0.282865    0.173144
     31          1           0       -1.671367   -0.238899    0.995268
     32          1           0       -2.688385    1.115381    0.597307
     33          6           0       -3.086566   -0.650249   -0.581872
     34          1           0       -2.539007   -1.482021   -1.005779
     35          1           0       -3.555914   -0.129426   -1.405561
     36         16           0       -4.353639   -1.414175    0.480105
     37          6           0       -5.573486   -0.075581    0.677702
     38          1           0       -5.067138    0.855293    0.896209
     39          1           0       -6.141782   -0.335521    1.560133
     40          6           0       -6.499242    0.087888   -0.526808
     41          1           0       -5.924980    0.328137   -1.411630
     42          1           0       -7.024232   -0.836271   -0.731425
     43         16           0       -7.716561    1.432346   -0.325973
     44          6           0       -9.235581    0.541509    0.135768
     45          1           0      -10.009090    1.298747    0.085345
     46          1           0       -9.457077   -0.187585   -0.634785
     47          6           0       -9.233737   -0.111559    1.514015
     48          1           0       -8.509174   -0.916101    1.575518
     49          1           0       -9.005170    0.611746    2.288229
     50          1           0      -10.211301   -0.537446    1.721741
 ---------------------------------------------------------------------
 Mulliken charges:
     1  C   -0.488581
     2  H    0.156896
     3  H    0.172778
     4  H    0.176120
     5  C    0.017562
     6  H    0.135766
     7  H    0.143033
     8  O   -0.631850
     9  C    0.001902
    10  H    0.181579
    11  H    0.152802
    12  C    0.012425
    13  H    0.155285
    14  H    0.140498
    15  O   -0.647474
    16  C    0.018198
    17  H    0.140278
    18  H    0.156398
    19  C   -0.007533
    20  H    0.183946
    21  H    0.154896
    22  O   -0.638597
    23  C    0.017351
    24  H    0.160155
    25  H    0.175280
    26  C   -0.497975
    27  H    0.204507
    28  H    0.203510
    29  S    0.109911
    30  C   -0.475624
    31  H    0.210786
    32  H    0.205196
    33  C   -0.475549
    34  H    0.206350
    35  H    0.209105
    36  S    0.113666
    37  C   -0.472986
    38  H    0.204982
    39  H    0.210952
    40  C   -0.476541
    41  H    0.204398
    42  H    0.206643
    43  S    0.110843
    44  C   -0.470217
    45  H    0.200567
    46  H    0.192073
    47  C   -0.477997
    48  H    0.163655
    49  H    0.179985
    50  H    0.170648
 Sum of Mulliken charges =  -0.00000
 Dipole moment (field-independent basis, Debye):
    X=             -0.8317    Y=              0.5239    Z=              0.7620  Tot=              1.2437
 Quadrupole moment (field-independent basis, Debye-Ang):
   XX=           -136.6417   YY=           -157.7537   ZZ=           -149.5288
   XY=             18.3768   XZ=             -2.3473   YZ=              4.7419
 Traceless Quadrupole moment (field-independent basis, Debye-Ang):
   XX=             11.3330   YY=             -9.7790   ZZ=             -1.5540
   XY=             18.3768   XZ=             -2.3473   YZ=              4.7419
 Octapole moment (field-independent basis, Debye-Ang**2):
  XXX=           -237.6764  YYY=             -7.0521  ZZZ=             -0.3900  XYY=             79.4298
  XXY=             49.6128  XXZ=             56.7616  XZZ=             37.0483  YZZ=             -6.6972
  YYZ=              0.0114  XYZ=            -10.9329
 Hexadecapole moment (field-independent basis, Debye-Ang**3):
 XXXX=         -33559.4575 YYYY=          -1079.0218 ZZZZ=           -688.8814 XXXY=           1450.3485
 XXXZ=           -369.5646 YYYX=              8.2347 YYYZ=             17.7505 ZZZX=            -23.8943
 ZZZY=             12.3404 XXYY=          -6118.5501 XXZZ=          -6001.9548 YYZZ=           -294.0736
 XXYZ=            133.2881 YYXZ=             -9.9341 ZZXY=              7.4397
 Job cpu time:       0 days  2 hours  9 minutes 31.8 seconds.
 Normal termination of Gaussian 16 at Sat Jul  8 18:30:59 2023.
