 Copyright (c) 1988-2019, Gaussian, Inc.  All Rights Reserved.
  
 This is part of the Gaussian(R) 16 program.  It is based on
 the Gaussian(R) 09 system (copyright 2009, Gaussian, Inc.),
 the Gaussian(R) 03 system (copyright 2003, Gaussian, Inc.),
 the Gaussian(R) 98 system (copyright 1998, Gaussian, Inc.),
 the Gaussian(R) 94 system (copyright 1995, Gaussian, Inc.),
 the Gaussian 92(TM) system (copyright 1992, Gaussian, Inc.),
 the Gaussian 90(TM) system (copyright 1990, Gaussian, Inc.),
 the Gaussian 88(TM) system (copyright 1988, Gaussian, Inc.),
 the Gaussian 86(TM) system (copyright 1986, Carnegie Mellon
 University), and the Gaussian 82(TM) system (copyright 1983,
 Carnegie Mellon University). Gaussian is a federally registered
 trademark of Gaussian, Inc.
 Cite this work as:
 Gaussian 16, Revision C.01,
 M. J. Frisch, G. W. Trucks, H. B. Schlegel, G. E. Scuseria, 
 M. A. Robb, J. R. Cheeseman, G. Scalmani, V. Barone, 
 G. A. Petersson, H. Nakatsuji, X. Li, M. Caricato, A. V. Marenich, 
 J. Bloino, B. G. Janesko, R. Gomperts, B. Mennucci, H. P. Hratchian, 
 J. V. Ortiz, A. F. Izmaylov, J. L. Sonnenberg, D. Williams-Young, 
 F. Ding, F. Lipparini, F. Egidi, J. Goings, B. Peng, A. Petrone, 
 T. Henderson, D. Ranasinghe, V. G. Zakrzewski, J. Gao, N. Rega, 
 G. Zheng, W. Liang, M. Hada, M. Ehara, K. Toyota, R. Fukuda, 
 J. Hasegawa, M. Ishida, T. Nakajima, Y. Honda, O. Kitao, H. Nakai, 
 T. Vreven, K. Throssell, J. A. Montgomery, Jr., J. E. Peralta, 
 F. Ogliaro, M. J. Bearpark, J. J. Heyd, E. N. Brothers, K. N. Kudin, 
 V. N. Staroverov, T. A. Keith, R. Kobayashi, J. Normand, 
 K. Raghavachari, A. P. Rendell, J. C. Burant, S. S. Iyengar, 
 J. Tomasi, M. Cossi, J. M. Millam, M. Klene, C. Adamo, R. Cammi, 
 J. W. Ochterski, R. L. Martin, K. Morokuma, O. Farkas, 
 J. B. Foresman, and D. J. Fox, Gaussian, Inc., Wallingford CT, 2019.
 
 ******************************************
 Gaussian 16:  EM64L-G16RevC.01  3-Jul-2019
                 8-Jul-2023 
 ******************************************
 ----------------------------------------------------------------------
 #P HF/6-31G(d) SCF(Conver=8,XQC,MaxConventionalCycles=64,MaxCycle=128)
  NoSymm Test Pop=mk IOp(6/33=2) GFInput GFPrint
 ----------------------------------------------------------------------
 1/38=1,172=1/1;
 2/12=2,15=1,17=6,18=5,40=1/2;
 3/5=1,6=6,7=1,11=9,24=110,25=1,30=1/1,2,3;
 4//1;
 5/5=2,6=8,7=128,8=3,13=1,38=5,85=64/2,8;
 6/7=2,8=2,9=2,10=2,15=8,20=1,28=1,33=2/1,2;
 99/5=1,9=1/99;
 -------------------------------------------------
 MEP step - Input generated by PyRED DVE-DMDS-OPLS
 -------------------------------------------------
 Symbolic Z-matrix:
 Charge =  0 Multiplicity = 1
 C                    -5.65186   2.57911   6.67182 
 H                    -5.44887   3.38731   7.36763 
 H                    -6.22332   2.97483   5.83981 
 H                    -6.25612   1.8328    7.17478 
 C                    -4.35675   1.96371   6.18009 
 H                    -3.74753   2.7165    5.6835 
 H                    -3.77699   1.5785    7.01713 
 O                    -4.67195   0.91971   5.30131 
 C                    -3.58716   0.24801   4.73125 
 H                    -3.89011  -0.77711   4.56118 
 H                    -2.7326    0.23443   5.40248 
 C                    -3.18816   0.87342   3.40461 
 H                    -4.03461   0.84812   2.72208 
 H                    -2.90324   1.91563   3.53851 
 O                    -2.11643   0.1368    2.89647 
 C                    -1.64337   0.56135   1.65518 
 H                    -1.28732   1.58938   1.71091 
 H                    -2.42956   0.5257    0.90448 
 C                    -0.51329  -0.36885   1.2504 
 H                    -0.89141  -1.37944   1.16833 
 H                     0.25545  -0.36421   2.01725 
 O                     0.        0.        0. 
 C                     1.12772   0.82956   0. 
 H                     1.12243   1.50453   0.85048 
 H                     1.07116   1.43361  -0.89627 
 C                     2.40834   0.        0. 
 H                     2.3887   -0.70306  -0.82258 
 H                     2.47937  -0.58025   0.91194 
 S                     3.91938   1.00899  -0.06263 
 C                     4.07292   1.37901  -1.84002 
 H                     3.11195   1.66899  -2.24277 
 H                     4.71369   2.24975  -1.89078 
 C                     4.66648   0.22754  -2.64901 
 H                     4.02493  -0.64256  -2.59707 
 H                     5.62655  -0.06428  -2.24515 
 S                     4.81929   0.59325  -4.42658 
 C                     6.31665   1.62854  -4.49717 
 H                     6.28511   2.37612  -3.71564 
 H                     6.25304   2.15835  -5.43763 
 C                     7.61549   0.82748  -4.42035 
 H                     7.66604   0.28314  -3.48678 
 H                     7.65868   0.09536  -5.21639 
 S                     9.11238   1.86893  -4.48732 
 C                     9.65137   1.69751  -6.21773 
 H                     10.6311   2.16024  -6.23412 
 H                     9.79578   0.64521  -6.43267 
 C                     8.75093   2.34493  -7.26469 
 H                     7.7812    1.86193  -7.31345 
 H                     8.59676   3.39619  -7.05044 
 H                     9.20682   2.25942  -8.24705 
 
 ITRead=  0  0  0  0  0  0  0  0  0  0  0  0  0  0  0  0  0  0  0  0
 ITRead=  0  0  0  0  0  0  0  0  0  0  0  0  0  0  0  0  0  0  0  0
 ITRead=  0  0  0  0  0  0  0  0  0  0
 MicOpt= -1 -1 -1 -1 -1 -1 -1 -1 -1 -1 -1 -1 -1 -1 -1 -1 -1 -1 -1 -1
 MicOpt= -1 -1 -1 -1 -1 -1 -1 -1 -1 -1 -1 -1 -1 -1 -1 -1 -1 -1 -1 -1
 MicOpt= -1 -1 -1 -1 -1 -1 -1 -1 -1 -1
 NAtoms=     50 NQM=       50 NQMF=       0 NMMI=      0 NMMIF=      0
                NMic=       0 NMicF=      0.
                          Input orientation:                          
 ---------------------------------------------------------------------
 Center     Atomic      Atomic             Coordinates (Angstroms)
 Number     Number       Type             X           Y           Z
 ---------------------------------------------------------------------
      1          6           0       -5.651857    2.579107    6.671824
      2          1           0       -5.448870    3.387305    7.367627
      3          1           0       -6.223318    2.974826    5.839806
      4          1           0       -6.256125    1.832796    7.174778
      5          6           0       -4.356748    1.963711    6.180094
      6          1           0       -3.747534    2.716498    5.683500
      7          1           0       -3.776986    1.578495    7.017135
      8          8           0       -4.671952    0.919713    5.301307
      9          6           0       -3.587158    0.248005    4.731255
     10          1           0       -3.890105   -0.777109    4.561179
     11          1           0       -2.732595    0.234433    5.402477
     12          6           0       -3.188164    0.873420    3.404609
     13          1           0       -4.034606    0.848117    2.722081
     14          1           0       -2.903239    1.915627    3.538513
     15          8           0       -2.116425    0.136804    2.896472
     16          6           0       -1.643371    0.561353    1.655176
     17          1           0       -1.287320    1.589380    1.710910
     18          1           0       -2.429555    0.525700    0.904479
     19          6           0       -0.513288   -0.368853    1.250404
     20          1           0       -0.891407   -1.379439    1.168326
     21          1           0        0.255450   -0.364210    2.017249
     22          8           0        0.000000    0.000000    0.000000
     23          6           0        1.127715    0.829558    0.000000
     24          1           0        1.122433    1.504534    0.850484
     25          1           0        1.071158    1.433614   -0.896265
     26          6           0        2.408336    0.000000    0.000000
     27          1           0        2.388696   -0.703064   -0.822583
     28          1           0        2.479366   -0.580254    0.911938
     29         16           0        3.919383    1.008994   -0.062628
     30          6           0        4.072923    1.379005   -1.840021
     31          1           0        3.111946    1.668988   -2.242775
     32          1           0        4.713691    2.249747   -1.890777
     33          6           0        4.666479    0.227542   -2.649011
     34          1           0        4.024933   -0.642564   -2.597069
     35          1           0        5.626552   -0.064284   -2.245148
     36         16           0        4.819285    0.593245   -4.426583
     37          6           0        6.316648    1.628537   -4.497171
     38          1           0        6.285107    2.376119   -3.715643
     39          1           0        6.253035    2.158351   -5.437630
     40          6           0        7.615493    0.827481   -4.420345
     41          1           0        7.666043    0.283144   -3.486778
     42          1           0        7.658680    0.095363   -5.216392
     43         16           0        9.112375    1.868934   -4.487319
     44          6           0        9.651367    1.697513   -6.217729
     45          1           0       10.631105    2.160237   -6.234122
     46          1           0        9.795779    0.645213   -6.432673
     47          6           0        8.750934    2.344932   -7.264693
     48          1           0        7.781197    1.861925   -7.313451
     49          1           0        8.596757    3.396190   -7.050438
     50          1           0        9.206820    2.259416   -8.247046
 ---------------------------------------------------------------------
 Stoichiometry    C14H30O3S3
 Framework group  C1[X(C14H30O3S3)]
 Standard basis: 6-31G(d) (6D, 7F)
   372 basis functions,   752 primitive gaussians,   372 cartesian basis functions
    93 alpha electrons       93 beta electrons
 Requested convergence on RMS density matrix=1.00D-08 within  64 cycles.
 Requested convergence on MAX density matrix=1.00D-06.
 Requested convergence on             energy=1.00D-06.
 SCF Done:  E(RHF) =  -1964.69378422     A.U. after   13 cycles
            NFock= 13  Conv=0.59D-08     -V/T= 2.0006
 Mulliken charges:
     1  C   -0.488581
     2  H    0.156896
     3  H    0.172778
     4  H    0.176120
     5  C    0.017562
     6  H    0.135765
     7  H    0.143033
     8  O   -0.631850
     9  C    0.001902
    10  H    0.181579
    11  H    0.152802
    12  C    0.012425
    13  H    0.155285
    14  H    0.140498
    15  O   -0.647474
    16  C    0.018198
    17  H    0.140279
    18  H    0.156398
    19  C   -0.007533
    20  H    0.183946
    21  H    0.154896
    22  O   -0.638597
    23  C    0.017351
    24  H    0.160155
    25  H    0.175280
    26  C   -0.497975
    27  H    0.204507
    28  H    0.203510
    29  S    0.109911
    30  C   -0.475624
    31  H    0.210786
    32  H    0.205196
    33  C   -0.475549
    34  H    0.206350
    35  H    0.209105
    36  S    0.113666
    37  C   -0.472986
    38  H    0.204982
    39  H    0.210952
    40  C   -0.476541
    41  H    0.204398
    42  H    0.206643
    43  S    0.110843
    44  C   -0.470217
    45  H    0.200567
    46  H    0.192073
    47  C   -0.477997
    48  H    0.163655
    49  H    0.179985
    50  H    0.170648
 Sum of Mulliken charges =  -0.00000
 Dipole moment (field-independent basis, Debye):
    X=              0.5676    Y=              0.9423    Z=             -0.5803  Tot=              1.2437
 Quadrupole moment (field-independent basis, Debye-Ang):
   XX=           -158.2424   YY=           -146.8010   ZZ=           -133.6466
   XY=             -6.8063   XZ=            -15.7230   YZ=              2.3219
 Traceless Quadrupole moment (field-independent basis, Debye-Ang):
   XX=            -12.0124   YY=             -0.5710   ZZ=             12.5834
   XY=             -6.8063   XZ=            -15.7230   YZ=              2.3219
 Octapole moment (field-independent basis, Debye-Ang**2):
  XXX=          -1097.2308  YYY=           -460.6326  ZZZ=            242.6442  XYY=           -397.6025
  XXY=           -169.8574  XXZ=           -108.8341  XZZ=           -219.4548  YZZ=            -86.5801
  YYZ=            111.2395  XYZ=            -48.7275
 Hexadecapole moment (field-independent basis, Debye-Ang**3):
 XXXX=         -27369.2907 YYYY=          -1797.6004 ZZZZ=         -14184.6877 XXXY=          -1751.9936
 XXXZ=           7847.0062 YYYX=          -1600.3354 YYYZ=            541.6979 ZZZX=           7807.5847
 ZZZY=            496.2743 XXYY=          -4790.5661 XXZZ=          -5497.4315 YYZZ=          -2731.0486
 XXYZ=              5.1696 YYXZ=           2967.2283 ZZXY=           -366.8747
 Merz-Kollman atomic radii used.
 Atom Element Radius
    1     6    1.50
    2     1    1.20
    3     1    1.20
    4     1    1.20
    5     6    1.50
    6     1    1.20
    7     1    1.20
    8     8    1.40
    9     6    1.50
   10     1    1.20
   11     1    1.20
   12     6    1.50
   13     1    1.20
   14     1    1.20
   15     8    1.40
   16     6    1.50
   17     1    1.20
   18     1    1.20
   19     6    1.50
   20     1    1.20
   21     1    1.20
   22     8    1.40
   23     6    1.50
   24     1    1.20
   25     1    1.20
   26     6    1.50
   27     1    1.20
   28     1    1.20
   29    16    1.75
   30     6    1.50
   31     1    1.20
   32     1    1.20
   33     6    1.50
   34     1    1.20
   35     1    1.20
   36    16    1.75
   37     6    1.50
   38     1    1.20
   39     1    1.20
   40     6    1.50
   41     1    1.20
   42     1    1.20
   43    16    1.75
   44     6    1.50
   45     1    1.20
   46     1    1.20
   47     6    1.50
   48     1    1.20
   49     1    1.20
   50     1    1.20
 Generate VDW surfaces: Layer= 4 Dens= 1 Start= 1.400 Inc= 0.200
            Electrostatic Properties Using The SCF Density.


       Atomic Center    1 is at  -5.651857  2.579107  6.671824
       Atomic Center    2 is at  -5.448870  3.387305  7.367627
       Atomic Center    3 is at  -6.223318  2.974826  5.839806
       Atomic Center    4 is at  -6.256125  1.832796  7.174778
       Atomic Center    5 is at  -4.356748  1.963711  6.180094
       Atomic Center    6 is at  -3.747534  2.716498  5.683500
       Atomic Center    7 is at  -3.776986  1.578495  7.017135
       Atomic Center    8 is at  -4.671952  0.919713  5.301307
       Atomic Center    9 is at  -3.587158  0.248005  4.731255
       Atomic Center   10 is at  -3.890105 -0.777109  4.561179
       Atomic Center   11 is at  -2.732595  0.234433  5.402477
       Atomic Center   12 is at  -3.188164  0.873420  3.404609
       Atomic Center   13 is at  -4.034606  0.848117  2.722081
       Atomic Center   14 is at  -2.903239  1.915627  3.538513
       Atomic Center   15 is at  -2.116425  0.136804  2.896472
       Atomic Center   16 is at  -1.643371  0.561353  1.655176
       Atomic Center   17 is at  -1.287320  1.589380  1.710910
       Atomic Center   18 is at  -2.429555  0.525700  0.904479
       Atomic Center   19 is at  -0.513288 -0.368853  1.250404
       Atomic Center   20 is at  -0.891407 -1.379439  1.168326
       Atomic Center   21 is at   0.255450 -0.364210  2.017249
       Atomic Center   22 is at   0.000000  0.000000  0.000000
       Atomic Center   23 is at   1.127715  0.829558  0.000000
       Atomic Center   24 is at   1.122433  1.504534  0.850484
       Atomic Center   25 is at   1.071158  1.433614 -0.896265
       Atomic Center   26 is at   2.408336  0.000000  0.000000
       Atomic Center   27 is at   2.388696 -0.703064 -0.822583
       Atomic Center   28 is at   2.479366 -0.580254  0.911938
       Atomic Center   29 is at   3.919383  1.008994 -0.062628
       Atomic Center   30 is at   4.072923  1.379005 -1.840021
       Atomic Center   31 is at   3.111946  1.668988 -2.242775
       Atomic Center   32 is at   4.713691  2.249747 -1.890777
       Atomic Center   33 is at   4.666479  0.227542 -2.649011
       Atomic Center   34 is at   4.024933 -0.642564 -2.597069
       Atomic Center   35 is at   5.626552 -0.064284 -2.245148
       Atomic Center   36 is at   4.819285  0.593245 -4.426583
       Atomic Center   37 is at   6.316648  1.628537 -4.497171
       Atomic Center   38 is at   6.285107  2.376119 -3.715643
       Atomic Center   39 is at   6.253035  2.158351 -5.437630
       Atomic Center   40 is at   7.615493  0.827481 -4.420345
       Atomic Center   41 is at   7.666043  0.283144 -3.486778
       Atomic Center   42 is at   7.658680  0.095363 -5.216392
       Atomic Center   43 is at   9.112375  1.868934 -4.487319
       Atomic Center   44 is at   9.651367  1.697513 -6.217729
       Atomic Center   45 is at  10.631105  2.160237 -6.234122
       Atomic Center   46 is at   9.795779  0.645213 -6.432673
       Atomic Center   47 is at   8.750934  2.344932 -7.264693
       Atomic Center   48 is at   7.781197  1.861925 -7.313451
       Atomic Center   49 is at   8.596757  3.396190 -7.050438
       Atomic Center   50 is at   9.206820  2.259416 -8.247046
      ESP Fit Center   51 is at  -5.126857  1.669780  8.490477
      ESP Fit Center   52 is at  -7.396842  3.091481  7.721824
      ESP Fit Center   53 is at  -7.690835  3.081670  6.671824
      ESP Fit Center   54 is at  -4.896361  4.233412  5.621824
      ESP Fit Center   55 is at  -6.842822  1.204661  5.621824
      ESP Fit Center   56 is at  -5.448870  3.387305  9.047627
      ESP Fit Center   57 is at  -4.461391  3.387305  8.726776
      ESP Fit Center   58 is at  -5.143722  4.326454  8.726776
      ESP Fit Center   59 is at  -6.247757  3.967731  8.726776
      ESP Fit Center   60 is at  -6.247757  2.806879  8.726776
      ESP Fit Center   61 is at  -5.143722  2.448156  8.726776
      ESP Fit Center   62 is at  -3.851095  3.387305  7.886776
      ESP Fit Center   63 is at  -4.224903  4.414335  7.886776
      ESP Fit Center   64 is at  -5.171419  4.960806  7.886776
      ESP Fit Center   65 is at  -6.247757  4.771019  7.886776
      ESP Fit Center   66 is at  -6.950287  3.933776  7.886776
      ESP Fit Center   67 is at  -4.224903  4.414335  6.848478
      ESP Fit Center   68 is at  -5.171419  4.960806  6.848478
      ESP Fit Center   69 is at  -6.247757  4.771019  6.848478
      ESP Fit Center   70 is at  -7.022205  4.358540  6.358955
      ESP Fit Center   71 is at  -7.724735  3.521297  6.358955
      ESP Fit Center   72 is at  -7.724735  2.428355  6.358955
      ESP Fit Center   73 is at  -5.945867  4.548327  5.320657
      ESP Fit Center   74 is at  -7.022205  4.358540  5.320657
      ESP Fit Center   75 is at  -7.724735  3.521297  5.320657
      ESP Fit Center   76 is at  -7.724735  2.428355  5.320657
      ESP Fit Center   77 is at  -7.022205  1.591112  5.320657
      ESP Fit Center   78 is at  -5.235839  2.974826  4.480657
      ESP Fit Center   79 is at  -5.918170  3.913975  4.480657
      ESP Fit Center   80 is at  -7.022205  3.555252  4.480657
      ESP Fit Center   81 is at  -7.022205  2.394400  4.480657
      ESP Fit Center   82 is at  -6.223318  2.974826  4.159806
      ESP Fit Center   83 is at  -6.256125  1.832796  8.854778
      ESP Fit Center   84 is at  -7.055012  2.413222  8.533927
      ESP Fit Center   85 is at  -7.055012  1.252370  8.533927
      ESP Fit Center   86 is at  -5.950977  0.893647  8.533927
      ESP Fit Center   87 is at  -7.757542  2.379267  7.693927
      ESP Fit Center   88 is at  -7.757542  1.286325  7.693927
      ESP Fit Center   89 is at  -7.055012  0.449082  7.693927
      ESP Fit Center   90 is at  -5.978674  0.259295  7.693927
      ESP Fit Center   91 is at  -7.757542  2.379267  6.655629
      ESP Fit Center   92 is at  -7.757542  1.286325  6.655629
      ESP Fit Center   93 is at  -7.055012  0.449082  6.655629
      ESP Fit Center   94 is at  -5.978674  0.259295  6.655629
      ESP Fit Center   95 is at  -7.055012  1.252370  5.815629
      ESP Fit Center   96 is at  -3.601252  3.618016  7.230094
      ESP Fit Center   97 is at  -2.256748  1.963711  6.180094
      ESP Fit Center   98 is at  -4.881748  2.873038  4.361441
      ESP Fit Center   99 is at  -3.442386  3.655647  7.042649
      ESP Fit Center  100 is at  -2.149759  2.716498  6.202649
      ESP Fit Center  101 is at  -2.523567  3.743528  6.202649
      ESP Fit Center  102 is at  -3.470083  4.289999  6.202649
      ESP Fit Center  103 is at  -2.149759  2.716498  5.164351
      ESP Fit Center  104 is at  -2.523567  3.743528  5.164351
      ESP Fit Center  105 is at  -3.470083  4.289999  5.164351
      ESP Fit Center  106 is at  -4.546421  4.100212  5.164351
      ESP Fit Center  107 is at  -3.442386  3.655647  4.324351
      ESP Fit Center  108 is at  -4.546421  3.296924  4.324351
      ESP Fit Center  109 is at  -3.776986  1.578495  8.697135
      ESP Fit Center  110 is at  -2.789507  1.578495  8.376284
      ESP Fit Center  111 is at  -3.471838  2.517644  8.376284
      ESP Fit Center  112 is at  -4.575873  0.998069  8.376284
      ESP Fit Center  113 is at  -3.471838  0.639346  8.376284
      ESP Fit Center  114 is at  -2.179211  1.578495  7.536284
      ESP Fit Center  115 is at  -2.553019  2.605525  7.536284
      ESP Fit Center  116 is at  -4.575873  0.194781  7.536284
      ESP Fit Center  117 is at  -3.499535  0.004994  7.536284
      ESP Fit Center  118 is at  -2.553019  0.551465  7.536284
      ESP Fit Center  119 is at  -2.179211  1.578495  6.497986
      ESP Fit Center  120 is at  -5.161952  0.071008  6.998717
      ESP Fit Center  121 is at  -6.045185 -0.077999  6.281307
      ESP Fit Center  122 is at  -5.196480 -0.694620  6.281307
      ESP Fit Center  123 is at  -6.631952  0.919713  5.301307
      ESP Fit Center  124 is at  -6.369362 -0.060287  5.301307
      ESP Fit Center  125 is at  -5.651952 -0.777697  5.301307
      ESP Fit Center  126 is at  -5.196480  2.534046  4.321307
      ESP Fit Center  127 is at  -6.045185  1.917425  4.321307
      ESP Fit Center  128 is at  -6.369362  0.919713  4.321307
      ESP Fit Center  129 is at  -6.045185 -0.077999  4.321307
      ESP Fit Center  130 is at  -5.161952  1.768418  3.603897
      ESP Fit Center  131 is at  -5.651952  0.919713  3.603897
      ESP Fit Center  132 is at  -4.112158 -0.661322  6.549908
      ESP Fit Center  133 is at  -2.831662 -1.406300  5.781255
      ESP Fit Center  134 is at  -5.332143 -0.264369  3.681255
      ESP Fit Center  135 is at  -4.688992 -1.357535  5.920328
      ESP Fit Center  136 is at  -3.584957 -1.716258  5.920328
      ESP Fit Center  137 is at  -5.391522 -1.323580  5.080328
      ESP Fit Center  138 is at  -4.688992 -2.160823  5.080328
      ESP Fit Center  139 is at  -3.612654 -2.350610  5.080328
      ESP Fit Center  140 is at  -2.666138 -1.804139  5.080328
      ESP Fit Center  141 is at  -5.391522 -1.323580  4.042030
      ESP Fit Center  142 is at  -4.688992 -2.160823  4.042030
      ESP Fit Center  143 is at  -3.612654 -2.350610  4.042030
      ESP Fit Center  144 is at  -2.666138 -1.804139  4.042030
      ESP Fit Center  145 is at  -4.688992 -1.357535  3.202030
      ESP Fit Center  146 is at  -3.584957 -1.716258  3.202030
      ESP Fit Center  147 is at  -2.732595  0.234433  7.082477
      ESP Fit Center  148 is at  -1.745116  0.234433  6.761626
      ESP Fit Center  149 is at  -3.531482 -0.345993  6.761626
      ESP Fit Center  150 is at  -2.427447 -0.704716  6.761626
      ESP Fit Center  151 is at  -1.134820  0.234433  5.921626
      ESP Fit Center  152 is at  -1.508628  1.261463  5.921626
      ESP Fit Center  153 is at  -2.455144 -1.339068  5.921626
      ESP Fit Center  154 is at  -1.508628 -0.792597  5.921626
      ESP Fit Center  155 is at  -1.134820  0.234433  4.883328
      ESP Fit Center  156 is at  -1.508628  1.261463  4.883328
      ESP Fit Center  157 is at  -1.508628 -0.792597  4.883328
      ESP Fit Center  158 is at  -4.760037  2.265978  3.404609
      ESP Fit Center  159 is at  -4.833493  2.231831  3.241230
      ESP Fit Center  160 is at  -5.536023  1.394588  3.241230
      ESP Fit Center  161 is at  -5.536023  0.301646  3.241230
      ESP Fit Center  162 is at  -4.833493  2.231831  2.202932
      ESP Fit Center  163 is at  -5.536023  1.394588  2.202932
      ESP Fit Center  164 is at  -5.536023  0.301646  2.202932
      ESP Fit Center  165 is at  -4.833493 -0.535597  2.202932
      ESP Fit Center  166 is at  -3.729458  1.787266  1.362932
      ESP Fit Center  167 is at  -4.833493  1.428543  1.362932
      ESP Fit Center  168 is at  -4.833493  0.267691  1.362932
      ESP Fit Center  169 is at  -1.915760  1.915627  4.897662
      ESP Fit Center  170 is at  -1.305464  1.915627  4.057662
      ESP Fit Center  171 is at  -1.679272  2.942657  4.057662
      ESP Fit Center  172 is at  -2.625788  3.489128  4.057662
      ESP Fit Center  173 is at  -3.702126  3.299341  4.057662
      ESP Fit Center  174 is at  -4.404656  2.462098  4.057662
      ESP Fit Center  175 is at  -1.679272  2.942657  3.019364
      ESP Fit Center  176 is at  -2.625788  3.489128  3.019364
      ESP Fit Center  177 is at  -3.702126  3.299341  3.019364
      ESP Fit Center  178 is at  -2.598091  2.854776  2.179364
      ESP Fit Center  179 is at  -1.136425  0.136804  4.593882
      ESP Fit Center  180 is at  -0.419015  0.136804  3.876472
      ESP Fit Center  181 is at  -0.743192  1.134516  3.876472
      ESP Fit Center  182 is at  -1.591897 -1.477529  3.876472
      ESP Fit Center  183 is at  -0.743192 -0.860908  3.876472
      ESP Fit Center  184 is at  -3.096425 -1.560606  2.896472
      ESP Fit Center  185 is at  -2.116425 -1.823196  2.896472
      ESP Fit Center  186 is at  -1.136425 -1.560606  2.896472
      ESP Fit Center  187 is at  -3.489658 -0.860908  1.916472
      ESP Fit Center  188 is at  -2.640953 -1.477529  1.916472
      ESP Fit Center  189 is at  -0.299841  1.589380  3.070059
      ESP Fit Center  190 is at  -0.982172  2.528529  3.070059
      ESP Fit Center  191 is at  -0.063353  2.616410  2.230059
      ESP Fit Center  192 is at  -1.009869  3.162881  2.230059
      ESP Fit Center  193 is at  -2.086207  2.973094  2.230059
      ESP Fit Center  194 is at  -1.009869  3.162881  1.191761
      ESP Fit Center  195 is at  -2.086207  2.973094  1.191761
      ESP Fit Center  196 is at  -0.982172  2.528529  0.351761
      ESP Fit Center  197 is at  -2.086207  2.169806  0.351761
      ESP Fit Center  198 is at  -3.228442 -0.858014  1.423628
      ESP Fit Center  199 is at  -3.228442  1.909414  0.385330
      ESP Fit Center  200 is at  -3.930972  1.072171  0.385330
      ESP Fit Center  201 is at  -3.930972 -0.020771  0.385330
      ESP Fit Center  202 is at  -3.228442 -0.858014  0.385330
      ESP Fit Center  203 is at  -2.124407  1.464849 -0.454670
      ESP Fit Center  204 is at  -3.228442  1.106126 -0.454670
      ESP Fit Center  205 is at  -3.228442 -0.054726 -0.454670
      ESP Fit Center  206 is at  -2.124407 -0.413449 -0.454670
      ESP Fit Center  207 is at  -2.429555  0.525700 -0.775521
      ESP Fit Center  208 is at   0.242208 -2.023158  2.300404
      ESP Fit Center  209 is at   0.679648 -2.097119  1.250404
      ESP Fit Center  210 is at  -1.690294 -1.959865  2.527475
      ESP Fit Center  211 is at  -0.586259 -2.318588  2.527475
      ESP Fit Center  212 is at  -2.392824 -1.925910  1.687475
      ESP Fit Center  213 is at  -1.690294 -2.763153  1.687475
      ESP Fit Center  214 is at  -0.613956 -2.952940  1.687475
      ESP Fit Center  215 is at   0.332560 -2.406469  1.687475
      ESP Fit Center  216 is at  -2.392824 -1.925910  0.649177
      ESP Fit Center  217 is at  -1.690294 -2.763153  0.649177
      ESP Fit Center  218 is at  -0.613956 -2.952940  0.649177
      ESP Fit Center  219 is at   0.332560 -2.406469  0.649177
      ESP Fit Center  220 is at  -1.690294 -1.959865 -0.190823
      ESP Fit Center  221 is at  -0.586259 -2.318588 -0.190823
      ESP Fit Center  222 is at   0.255450 -0.364210  3.697249
      ESP Fit Center  223 is at   1.242929 -0.364210  3.376398
      ESP Fit Center  224 is at   0.560598  0.574939  3.376398
      ESP Fit Center  225 is at  -0.543437 -0.944636  3.376398
      ESP Fit Center  226 is at   0.560598 -1.303359  3.376398
      ESP Fit Center  227 is at   1.853225 -0.364210  2.536398
      ESP Fit Center  228 is at   1.479417  0.662820  2.536398
      ESP Fit Center  229 is at   0.532901  1.209291  2.536398
      ESP Fit Center  230 is at   0.532901 -1.937711  2.536398
      ESP Fit Center  231 is at   1.479417 -1.391240  2.536398
      ESP Fit Center  232 is at  -0.980000  1.697410  0.000000
      ESP Fit Center  233 is at   0.980000 -1.697410  0.000000
      ESP Fit Center  234 is at  -1.373233  0.997712 -0.980000
      ESP Fit Center  235 is at  -1.697410  0.000000 -0.980000
      ESP Fit Center  236 is at  -1.373233 -0.997712 -0.980000
      ESP Fit Center  237 is at  -0.524528 -1.614333 -0.980000
      ESP Fit Center  238 is at   0.524528 -1.614333 -0.980000
      ESP Fit Center  239 is at  -0.490000  0.848705 -1.697410
      ESP Fit Center  240 is at  -0.980000  0.000000 -1.697410
      ESP Fit Center  241 is at  -0.490000 -0.848705 -1.697410
      ESP Fit Center  242 is at   0.490000 -0.848705 -1.697410
      ESP Fit Center  243 is at   0.000000  0.000000 -1.960000
      ESP Fit Center  244 is at   0.383045  2.793092  0.000000
      ESP Fit Center  245 is at  -0.444158  2.222116  0.000000
      ESP Fit Center  246 is at   1.122433  1.504534  2.530484
      ESP Fit Center  247 is at   2.109912  1.504534  2.209633
      ESP Fit Center  248 is at   1.427581  2.443683  2.209633
      ESP Fit Center  249 is at   0.323546  2.084960  2.209633
      ESP Fit Center  250 is at   2.346400  2.531564  1.369633
      ESP Fit Center  251 is at   1.399884  3.078035  1.369633
      ESP Fit Center  252 is at   0.323546  2.888248  1.369633
      ESP Fit Center  253 is at   1.399884  3.078035  0.331335
      ESP Fit Center  254 is at   0.323546  2.888248  0.331335
      ESP Fit Center  255 is at   1.348609  3.007115 -0.377116
      ESP Fit Center  256 is at   0.272271  2.817328 -0.377116
      ESP Fit Center  257 is at   1.348609  3.007115 -1.415414
      ESP Fit Center  258 is at   0.272271  2.817328 -1.415414
      ESP Fit Center  259 is at  -0.430259  1.980085 -1.415414
      ESP Fit Center  260 is at   1.376306  2.372763 -2.255414
      ESP Fit Center  261 is at   0.272271  2.014040 -2.255414
      ESP Fit Center  262 is at   0.272271  0.853188 -2.255414
      ESP Fit Center  263 is at   1.376306  0.494465 -2.255414
      ESP Fit Center  264 is at   1.071158  1.433614 -2.576265
      ESP Fit Center  265 is at   3.601272 -1.728266  0.000000
      ESP Fit Center  266 is at   1.589809 -2.086778 -0.303434
      ESP Fit Center  267 is at   2.666147 -2.276565 -0.303434
      ESP Fit Center  268 is at   3.612663 -1.730094 -0.303434
      ESP Fit Center  269 is at   0.887279 -1.249535 -1.341732
      ESP Fit Center  270 is at   1.589809 -2.086778 -1.341732
      ESP Fit Center  271 is at   2.666147 -2.276565 -1.341732
      ESP Fit Center  272 is at   3.612663 -1.730094 -1.341732
      ESP Fit Center  273 is at   1.589809 -0.122638 -2.181732
      ESP Fit Center  274 is at   1.589809 -1.283490 -2.181732
      ESP Fit Center  275 is at   2.693844 -1.642213 -2.181732
      ESP Fit Center  276 is at   2.479366 -0.580254  2.591938
      ESP Fit Center  277 is at   3.466845 -0.580254  2.271087
      ESP Fit Center  278 is at   2.784514  0.358895  2.271087
      ESP Fit Center  279 is at   2.784514 -1.519403  2.271087
      ESP Fit Center  280 is at   1.680479 -1.963968  1.431087
      ESP Fit Center  281 is at   2.756817 -2.153755  1.431087
      ESP Fit Center  282 is at   3.703333 -1.607284  1.431087
      ESP Fit Center  283 is at   1.680479 -1.963968  0.392789
      ESP Fit Center  284 is at   2.756817 -2.153755  0.392789
      ESP Fit Center  285 is at   3.703333 -1.607284  0.392789
      ESP Fit Center  286 is at   3.919383  1.008994  2.387372
      ESP Fit Center  287 is at   4.982398  1.008994  2.144746
      ESP Fit Center  288 is at   4.450891  1.929592  2.144746
      ESP Fit Center  289 is at   3.387875  1.929592  2.144746
      ESP Fit Center  290 is at   2.856368  1.008994  2.144746
      ESP Fit Center  291 is at   4.450891  0.088396  2.144746
      ESP Fit Center  292 is at   5.834870  1.008994  1.464922
      ESP Fit Center  293 is at   5.530793  2.044585  1.464922
      ESP Fit Center  294 is at   4.715105  2.751382  1.464922
      ESP Fit Center  295 is at   3.646781  2.904984  1.464922
      ESP Fit Center  296 is at   2.665006  2.456623  1.464922
      ESP Fit Center  297 is at   4.715105 -0.733394  1.464922
      ESP Fit Center  298 is at   5.530793 -0.026597  1.464922
      ESP Fit Center  299 is at   6.307956  1.008994  0.482548
      ESP Fit Center  300 is at   6.071413  2.045357  0.482548
      ESP Fit Center  301 is at   5.408634  2.876456  0.482548
      ESP Fit Center  302 is at   4.450891  3.337681  0.482548
      ESP Fit Center  303 is at   3.387875  3.337681  0.482548
      ESP Fit Center  304 is at   2.430132  2.876456  0.482548
      ESP Fit Center  305 is at   4.450891 -1.319693  0.482548
      ESP Fit Center  306 is at   5.408634 -0.858468  0.482548
      ESP Fit Center  307 is at   6.071413 -0.027369  0.482548
      ESP Fit Center  308 is at   6.307956  1.008994 -0.607804
      ESP Fit Center  309 is at   6.071413  2.045357 -0.607804
      ESP Fit Center  310 is at   4.450891  3.337681 -0.607804
      ESP Fit Center  311 is at   3.387875  3.337681 -0.607804
      ESP Fit Center  312 is at   2.430132  2.876456 -0.607804
      ESP Fit Center  313 is at   4.450891 -1.319693 -0.607804
      ESP Fit Center  314 is at   5.408634 -0.858468 -0.607804
      ESP Fit Center  315 is at   6.071413 -0.027369 -0.607804
      ESP Fit Center  316 is at   3.328253  3.342539 -1.840021
      ESP Fit Center  317 is at   2.313059  3.052702 -1.723626
      ESP Fit Center  318 is at   3.389397  3.242489 -2.761924
      ESP Fit Center  319 is at   2.313059  3.052702 -2.761924
      ESP Fit Center  320 is at   1.610529  2.215459 -2.761924
      ESP Fit Center  321 is at   1.610529  1.122517 -2.761924
      ESP Fit Center  322 is at   2.313059  0.285274 -2.761924
      ESP Fit Center  323 is at   3.417094  2.608137 -3.601924
      ESP Fit Center  324 is at   2.313059  2.249414 -3.601924
      ESP Fit Center  325 is at   2.313059  1.088562 -3.601924
      ESP Fit Center  326 is at   5.018839  3.188896 -0.531628
      ESP Fit Center  327 is at   6.311466  2.249747 -1.371628
      ESP Fit Center  328 is at   5.937658  3.276777 -1.371628
      ESP Fit Center  329 is at   4.991142  3.823248 -1.371628
      ESP Fit Center  330 is at   3.914804  3.633461 -1.371628
      ESP Fit Center  331 is at   4.991142  3.823248 -2.409926
      ESP Fit Center  332 is at   3.914804  3.633461 -2.409926
      ESP Fit Center  333 is at   4.330081 -1.581713 -1.237920
      ESP Fit Center  334 is at   3.226046 -2.026278 -2.077920
      ESP Fit Center  335 is at   4.302384 -2.216065 -2.077920
      ESP Fit Center  336 is at   2.523516 -0.096093 -3.116218
      ESP Fit Center  337 is at   2.523516 -1.189035 -3.116218
      ESP Fit Center  338 is at   3.226046 -2.026278 -3.116218
      ESP Fit Center  339 is at   4.302384 -2.216065 -3.116218
      ESP Fit Center  340 is at   3.226046 -1.222990 -3.956218
      ESP Fit Center  341 is at   6.614031 -0.064284 -0.885999
      ESP Fit Center  342 is at   5.931700 -1.003433 -0.885999
      ESP Fit Center  343 is at   7.224327 -0.064284 -1.725999
      ESP Fit Center  344 is at   6.850519  0.962746 -1.725999
      ESP Fit Center  345 is at   5.904003 -1.637785 -1.725999
      ESP Fit Center  346 is at   6.850519 -1.091314 -1.725999
      ESP Fit Center  347 is at   5.904003 -1.637785 -2.764297
      ESP Fit Center  348 is at   6.850519 -1.091314 -2.764297
      ESP Fit Center  349 is at   4.287777  2.921932 -3.881407
      ESP Fit Center  350 is at   3.330034  2.460707 -3.881407
      ESP Fit Center  351 is at   2.667255  1.629608 -3.881407
      ESP Fit Center  352 is at   2.430712  0.593245 -3.881407
      ESP Fit Center  353 is at   2.667255 -0.443118 -3.881407
      ESP Fit Center  354 is at   4.287777 -1.735442 -3.881407
      ESP Fit Center  355 is at   5.350793 -1.735442 -3.881407
      ESP Fit Center  356 is at   6.308536 -1.274217 -3.881407
      ESP Fit Center  357 is at   4.287777  2.921932 -4.971759
      ESP Fit Center  358 is at   3.330034  2.460707 -4.971759
      ESP Fit Center  359 is at   2.667255  1.629608 -4.971759
      ESP Fit Center  360 is at   2.430712  0.593245 -4.971759
      ESP Fit Center  361 is at   2.667255 -0.443118 -4.971759
      ESP Fit Center  362 is at   3.330034 -1.274217 -4.971759
      ESP Fit Center  363 is at   4.287777 -1.735442 -4.971759
      ESP Fit Center  364 is at   5.350793 -1.735442 -4.971759
      ESP Fit Center  365 is at   6.308536 -1.274217 -4.971759
      ESP Fit Center  366 is at   4.546683  2.489235 -5.954133
      ESP Fit Center  367 is at   3.564908  2.040874 -5.954133
      ESP Fit Center  368 is at   2.981389  1.132900 -5.954133
      ESP Fit Center  369 is at   2.981389  0.053590 -5.954133
      ESP Fit Center  370 is at   3.564908 -0.854384 -5.954133
      ESP Fit Center  371 is at   4.546683 -1.302745 -5.954133
      ESP Fit Center  372 is at   5.615007 -1.149143 -5.954133
      ESP Fit Center  373 is at   5.882300  0.593245 -6.633957
      ESP Fit Center  374 is at   4.287777  1.513843 -6.633957
      ESP Fit Center  375 is at   3.756270  0.593245 -6.633957
      ESP Fit Center  376 is at   4.287777 -0.327353 -6.633957
      ESP Fit Center  377 is at   5.350793 -0.327353 -6.633957
      ESP Fit Center  378 is at   4.819285  0.593245 -6.876583
      ESP Fit Center  379 is at   7.272586  2.376119 -2.356494
      ESP Fit Center  380 is at   6.590255  3.315268 -2.356494
      ESP Fit Center  381 is at   6.590255  1.436970 -2.356494
      ESP Fit Center  382 is at   7.509074  3.403149 -3.196494
      ESP Fit Center  383 is at   6.562558  3.949620 -3.196494
      ESP Fit Center  384 is at   5.486220  3.759833 -3.196494
      ESP Fit Center  385 is at   6.562558  3.949620 -4.234792
      ESP Fit Center  386 is at   5.486220  3.759833 -4.234792
      ESP Fit Center  387 is at   6.530486  3.731852 -4.918481
      ESP Fit Center  388 is at   5.454148  3.542065 -4.918481
      ESP Fit Center  389 is at   6.530486  3.731852 -5.956779
      ESP Fit Center  390 is at   5.454148  3.542065 -5.956779
      ESP Fit Center  391 is at   4.751618  2.704822 -5.956779
      ESP Fit Center  392 is at   6.558183  3.097500 -6.796779
      ESP Fit Center  393 is at   5.454148  2.738777 -6.796779
      ESP Fit Center  394 is at   5.454148  1.577925 -6.796779
      ESP Fit Center  395 is at   8.808429 -0.900785 -4.420345
      ESP Fit Center  396 is at   7.666043  0.283144 -1.806778
      ESP Fit Center  397 is at   8.653522  0.283144 -2.127629
      ESP Fit Center  398 is at   7.971191  1.222293 -2.127629
      ESP Fit Center  399 is at   7.971191 -0.656005 -2.127629
      ESP Fit Center  400 is at   6.867156 -1.100570 -2.967629
      ESP Fit Center  401 is at   7.943494 -1.290357 -2.967629
      ESP Fit Center  402 is at   8.890010 -0.743886 -2.967629
      ESP Fit Center  403 is at   6.867156 -1.100570 -4.005927
      ESP Fit Center  404 is at   7.943494 -1.290357 -4.005927
      ESP Fit Center  405 is at   6.859793 -1.288351 -4.697243
      ESP Fit Center  406 is at   7.936131 -1.478138 -4.697243
      ESP Fit Center  407 is at   8.882647 -0.931667 -4.697243
      ESP Fit Center  408 is at   6.859793 -1.288351 -5.735541
      ESP Fit Center  409 is at   7.936131 -1.478138 -5.735541
      ESP Fit Center  410 is at   8.882647 -0.931667 -5.735541
      ESP Fit Center  411 is at   6.859793 -0.485063 -6.575541
      ESP Fit Center  412 is at   7.963828 -0.843786 -6.575541
      ESP Fit Center  413 is at   7.658680  0.095363 -6.896392
      ESP Fit Center  414 is at   9.112375  1.868934 -2.037319
      ESP Fit Center  415 is at  10.175390  1.868934 -2.279945
      ESP Fit Center  416 is at   9.643883  2.789532 -2.279945
      ESP Fit Center  417 is at   8.580867  2.789532 -2.279945
      ESP Fit Center  418 is at   8.049360  1.868934 -2.279945
      ESP Fit Center  419 is at   9.643883  0.948336 -2.279945
      ESP Fit Center  420 is at  11.027862  1.868934 -2.959769
      ESP Fit Center  421 is at  10.723785  2.904525 -2.959769
      ESP Fit Center  422 is at   9.908097  3.611322 -2.959769
      ESP Fit Center  423 is at   8.839773  3.764924 -2.959769
      ESP Fit Center  424 is at   7.857998  3.316563 -2.959769
      ESP Fit Center  425 is at   9.908097  0.126546 -2.959769
      ESP Fit Center  426 is at  10.723785  0.833343 -2.959769
      ESP Fit Center  427 is at  11.500948  1.868934 -3.942143
      ESP Fit Center  428 is at  11.264405  2.905297 -3.942143
      ESP Fit Center  429 is at  10.601626  3.736396 -3.942143
      ESP Fit Center  430 is at   9.643883  4.197621 -3.942143
      ESP Fit Center  431 is at   8.580867  4.197621 -3.942143
      ESP Fit Center  432 is at   7.623124  3.736396 -3.942143
      ESP Fit Center  433 is at   9.643883 -0.459753 -3.942143
      ESP Fit Center  434 is at  10.601626  0.001472 -3.942143
      ESP Fit Center  435 is at  11.264405  0.832571 -3.942143
      ESP Fit Center  436 is at  10.601626  3.736396 -5.032495
      ESP Fit Center  437 is at   9.643883  4.197621 -5.032495
      ESP Fit Center  438 is at   8.580867  4.197621 -5.032495
      ESP Fit Center  439 is at   7.623124  3.736396 -5.032495
      ESP Fit Center  440 is at   9.643883 -0.459753 -5.032495
      ESP Fit Center  441 is at  10.601626  0.001472 -5.032495
      ESP Fit Center  442 is at  11.264405  0.832571 -5.032495
      ESP Fit Center  443 is at  11.181316  0.714275 -5.167729
      ESP Fit Center  444 is at  11.510825  0.721594 -6.217729
      ESP Fit Center  445 is at  11.618584  2.160237 -4.874973
      ESP Fit Center  446 is at  12.228880  2.160237 -5.714973
      ESP Fit Center  447 is at  11.855072  3.187267 -5.714973
      ESP Fit Center  448 is at  10.908556  3.733738 -5.714973
      ESP Fit Center  449 is at  11.855072  1.133207 -5.714973
      ESP Fit Center  450 is at  12.228880  2.160237 -6.753271
      ESP Fit Center  451 is at  11.855072  3.187267 -6.753271
      ESP Fit Center  452 is at  10.908556  3.733738 -6.753271
      ESP Fit Center  453 is at  11.855072  1.133207 -6.753271
      ESP Fit Center  454 is at  11.618584  2.160237 -7.593271
      ESP Fit Center  455 is at  10.936253  3.099386 -7.593271
      ESP Fit Center  456 is at   8.996892 -0.738501 -5.913524
      ESP Fit Center  457 is at  10.073230 -0.928288 -5.913524
      ESP Fit Center  458 is at  11.019746 -0.381817 -5.913524
      ESP Fit Center  459 is at  11.393554  0.645213 -6.951822
      ESP Fit Center  460 is at   8.294362  0.098742 -6.951822
      ESP Fit Center  461 is at   8.996892 -0.738501 -6.951822
      ESP Fit Center  462 is at  10.073230 -0.928288 -6.951822
      ESP Fit Center  463 is at  11.019746 -0.381817 -6.951822
      ESP Fit Center  464 is at  10.783258  0.645213 -7.791822
      ESP Fit Center  465 is at   8.996892  0.064787 -7.791822
      ESP Fit Center  466 is at  10.100927 -0.293936 -7.791822
      ESP Fit Center  467 is at   9.795779  0.645213 -8.112673
      ESP Fit Center  468 is at   8.492113  0.544790 -8.314693
      ESP Fit Center  469 is at   7.700934  2.344932 -9.083346
      ESP Fit Center  470 is at   6.982310  0.478211 -6.794302
      ESP Fit Center  471 is at   6.279780  2.408396 -7.832600
      ESP Fit Center  472 is at   6.279780  1.315454 -7.832600
      ESP Fit Center  473 is at   6.982310  0.478211 -7.832600
      ESP Fit Center  474 is at   8.058648  0.288424 -7.832600
      ESP Fit Center  475 is at   6.982310  2.442351 -8.672600
      ESP Fit Center  476 is at   6.982310  1.281499 -8.672600
      ESP Fit Center  477 is at   8.086345  0.922776 -8.672600
      ESP Fit Center  478 is at   8.901905  4.335339 -5.691289
      ESP Fit Center  479 is at   7.797870  3.976616 -5.691289
      ESP Fit Center  480 is at   9.820724  4.423220 -6.531289
      ESP Fit Center  481 is at   8.874208  4.969691 -6.531289
      ESP Fit Center  482 is at   7.797870  4.779904 -6.531289
      ESP Fit Center  483 is at   7.095340  3.942661 -6.531289
      ESP Fit Center  484 is at   9.820724  4.423220 -7.569587
      ESP Fit Center  485 is at   8.874208  4.969691 -7.569587
      ESP Fit Center  486 is at   7.797870  4.779904 -7.569587
      ESP Fit Center  487 is at   7.095340  3.942661 -7.569587
      ESP Fit Center  488 is at   8.901905  4.335339 -8.409587
      ESP Fit Center  489 is at   7.797870  3.976616 -8.409587
      ESP Fit Center  490 is at  10.804595  2.259416 -8.766195
      ESP Fit Center  491 is at  10.430787  3.286446 -8.766195
      ESP Fit Center  492 is at   9.484271  3.832917 -8.766195
      ESP Fit Center  493 is at   8.407933  0.875702 -8.766195
      ESP Fit Center  494 is at   9.484271  0.685915 -8.766195
      ESP Fit Center  495 is at  10.430787  1.232386 -8.766195
      ESP Fit Center  496 is at  10.194299  2.259416 -9.606195
      ESP Fit Center  497 is at   9.511968  3.198565 -9.606195
      ESP Fit Center  498 is at   8.407933  2.839842 -9.606195
      ESP Fit Center  499 is at   8.407933  1.678990 -9.606195
      ESP Fit Center  500 is at   9.511968  1.320267 -9.606195
      ESP Fit Center  501 is at   9.206820  2.259416 -9.927046
      ESP Fit Center  502 is at  -5.131197  1.677297  8.834149
      ESP Fit Center  503 is at  -7.452245  3.107749  8.168200
      ESP Fit Center  504 is at  -7.110715  4.408457  7.205874
      ESP Fit Center  505 is at  -7.759968  3.594320  7.205874
      ESP Fit Center  506 is at  -5.131197  4.860270  6.137774
      ESP Fit Center  507 is at  -4.872374  4.285936  5.175448
      ESP Fit Center  508 is at  -5.448870  3.387305  9.287627
      ESP Fit Center  509 is at  -4.488870  3.387305  9.030396
      ESP Fit Center  510 is at  -4.968870  4.218689  9.030396
      ESP Fit Center  511 is at  -5.928870  4.218689  9.030396
      ESP Fit Center  512 is at  -6.408870  3.387305  9.030396
      ESP Fit Center  513 is at  -4.968870  2.555921  9.030396
      ESP Fit Center  514 is at  -3.786101  3.387305  8.327627
      ESP Fit Center  515 is at  -4.103662  4.364656  8.327627
      ESP Fit Center  516 is at  -4.935046  4.968692  8.327627
      ESP Fit Center  517 is at  -5.962694  4.968692  8.327627
      ESP Fit Center  518 is at  -6.794078  4.364656  8.327627
      ESP Fit Center  519 is at  -3.786101  4.347305  7.367627
      ESP Fit Center  520 is at  -4.488870  5.050074  7.367627
      ESP Fit Center  521 is at  -5.448870  5.307305  7.367627
      ESP Fit Center  522 is at  -6.408870  5.050074  7.367627
      ESP Fit Center  523 is at  -4.935046  4.968692  6.407627
      ESP Fit Center  524 is at  -5.962694  4.968692  6.407627
      ESP Fit Center  525 is at  -6.223318  4.894826  5.839806
      ESP Fit Center  526 is at  -7.183318  4.637595  5.839806
      ESP Fit Center  527 is at  -7.886087  3.934826  5.839806
      ESP Fit Center  528 is at  -8.143318  2.974826  5.839806
      ESP Fit Center  529 is at  -7.886087  2.014826  5.839806
      ESP Fit Center  530 is at  -5.709494  4.556213  4.879806
      ESP Fit Center  531 is at  -6.737142  4.556213  4.879806
      ESP Fit Center  532 is at  -7.568526  3.952177  4.879806
      ESP Fit Center  533 is at  -7.886087  2.974826  4.879806
      ESP Fit Center  534 is at  -7.568526  1.997475  4.879806
      ESP Fit Center  535 is at  -5.263318  2.974826  4.177037
      ESP Fit Center  536 is at  -5.743318  3.806210  4.177037
      ESP Fit Center  537 is at  -6.703318  3.806210  4.177037
      ESP Fit Center  538 is at  -7.183318  2.974826  4.177037
      ESP Fit Center  539 is at  -6.703318  2.143442  4.177037
      ESP Fit Center  540 is at  -6.223318  2.974826  3.919806
      ESP Fit Center  541 is at  -6.256125  1.832796  9.094778
      ESP Fit Center  542 is at  -6.736125  2.664180  8.837547
      ESP Fit Center  543 is at  -7.216125  1.832796  8.837547
      ESP Fit Center  544 is at  -6.736125  1.001412  8.837547
      ESP Fit Center  545 is at  -5.776125  1.001412  8.837547
      ESP Fit Center  546 is at  -7.601333  2.810147  8.134778
      ESP Fit Center  547 is at  -7.918894  1.832796  8.134778
      ESP Fit Center  548 is at  -7.601333  0.855445  8.134778
      ESP Fit Center  549 is at  -6.769949  0.251409  8.134778
      ESP Fit Center  550 is at  -5.742301  0.251409  8.134778
      ESP Fit Center  551 is at  -8.176125  1.832796  7.174778
      ESP Fit Center  552 is at  -7.918894  0.872796  7.174778
      ESP Fit Center  553 is at  -7.216125  0.170027  7.174778
      ESP Fit Center  554 is at  -6.256125 -0.087204  7.174778
      ESP Fit Center  555 is at  -7.918894  1.832796  6.214778
      ESP Fit Center  556 is at  -7.601333  0.855445  6.214778
      ESP Fit Center  557 is at  -6.769949  0.251409  6.214778
      ESP Fit Center  558 is at  -4.877408  2.865521  4.017769
      ESP Fit Center  559 is at  -2.084765  2.716498  6.643500
      ESP Fit Center  560 is at  -2.402326  3.693849  6.643500
      ESP Fit Center  561 is at  -3.233710  4.297885  6.643500
      ESP Fit Center  562 is at  -1.827534  2.716498  5.683500
      ESP Fit Center  563 is at  -2.084765  3.676498  5.683500
      ESP Fit Center  564 is at  -2.787534  4.379267  5.683500
      ESP Fit Center  565 is at  -3.747534  4.636498  5.683500
      ESP Fit Center  566 is at  -2.402326  3.693849  4.723500
      ESP Fit Center  567 is at  -3.233710  4.297885  4.723500
      ESP Fit Center  568 is at  -4.261358  4.297885  4.723500
      ESP Fit Center  569 is at  -4.227534  3.547882  4.020731
      ESP Fit Center  570 is at  -3.776986  1.578495  8.937135
      ESP Fit Center  571 is at  -2.816986  1.578495  8.679904
      ESP Fit Center  572 is at  -3.296986  2.409879  8.679904
      ESP Fit Center  573 is at  -4.256986  2.409879  8.679904
      ESP Fit Center  574 is at  -4.736986  1.578495  8.679904
      ESP Fit Center  575 is at  -4.256986  0.747111  8.679904
      ESP Fit Center  576 is at  -3.296986  0.747111  8.679904
      ESP Fit Center  577 is at  -2.114217  1.578495  7.977135
      ESP Fit Center  578 is at  -2.431778  2.555846  7.977135
      ESP Fit Center  579 is at  -3.263162  3.159882  7.977135
      ESP Fit Center  580 is at  -4.290810 -0.002892  7.977135
      ESP Fit Center  581 is at  -3.263162 -0.002892  7.977135
      ESP Fit Center  582 is at  -2.431778  0.601144  7.977135
      ESP Fit Center  583 is at  -1.856986  1.578495  7.017135
      ESP Fit Center  584 is at  -2.114217  2.538495  7.017135
      ESP Fit Center  585 is at  -6.088786 -0.109677  6.697924
      ESP Fit Center  586 is at  -5.213134 -0.745875  6.697924
      ESP Fit Center  587 is at  -6.792332  0.397086  5.799754
      ESP Fit Center  588 is at  -6.306579 -0.528440  5.799754
      ESP Fit Center  589 is at  -5.446352 -1.122211  5.799754
      ESP Fit Center  590 is at  -6.792332  1.442340  4.802860
      ESP Fit Center  591 is at  -6.792332  0.397086  4.802860
      ESP Fit Center  592 is at  -6.306579 -0.528440  4.802860
      ESP Fit Center  593 is at  -5.213134  2.585301  3.904690
      ESP Fit Center  594 is at  -6.088786  1.949103  3.904690
      ESP Fit Center  595 is at  -6.423255  0.919713  3.904690
      ESP Fit Center  596 is at  -6.088786 -0.109677  3.904690
      ESP Fit Center  597 is at  -4.107818 -0.653805  6.893580
      ESP Fit Center  598 is at  -4.815936 -1.170080  6.227631
      ESP Fit Center  599 is at  -4.370105 -1.608493  6.223948
      ESP Fit Center  600 is at  -5.235313 -1.754460  5.521179
      ESP Fit Center  601 is at  -4.403929 -2.358496  5.521179
      ESP Fit Center  602 is at  -3.376281 -2.358496  5.521179
      ESP Fit Center  603 is at  -5.552874 -1.737109  4.561179
      ESP Fit Center  604 is at  -4.850105 -2.439878  4.561179
      ESP Fit Center  605 is at  -3.890105 -2.697109  4.561179
      ESP Fit Center  606 is at  -2.930105 -2.439878  4.561179
      ESP Fit Center  607 is at  -2.227336 -1.737109  4.561179
      ESP Fit Center  608 is at  -5.552874 -0.777109  3.601179
      ESP Fit Center  609 is at  -5.235313 -1.754460  3.601179
      ESP Fit Center  610 is at  -4.403929 -2.358496  3.601179
      ESP Fit Center  611 is at  -3.376281 -2.358496  3.601179
      ESP Fit Center  612 is at  -4.370105 -1.608493  2.898410
      ESP Fit Center  613 is at  -1.772595  0.234433  7.065246
      ESP Fit Center  614 is at  -3.212595 -0.596951  7.065246
      ESP Fit Center  615 is at  -2.252595 -0.596951  7.065246
      ESP Fit Center  616 is at  -1.069826  0.234433  6.362477
      ESP Fit Center  617 is at  -1.387387  1.211784  6.362477
      ESP Fit Center  618 is at  -2.218771 -1.346954  6.362477
      ESP Fit Center  619 is at  -1.387387 -0.742918  6.362477
      ESP Fit Center  620 is at  -0.812595  0.234433  5.402477
      ESP Fit Center  621 is at  -1.069826  1.194433  5.402477
      ESP Fit Center  622 is at  -1.772595  1.897202  5.402477
      ESP Fit Center  623 is at  -1.772595 -1.428336  5.402477
      ESP Fit Center  624 is at  -1.069826 -0.725567  5.402477
      ESP Fit Center  625 is at  -4.647022  2.702770  2.870559
      ESP Fit Center  626 is at  -4.994606  2.510886  2.722081
      ESP Fit Center  627 is at  -5.697375  1.808117  2.722081
      ESP Fit Center  628 is at  -5.954606  0.848117  2.722081
      ESP Fit Center  629 is at  -5.697375 -0.111883  2.722081
      ESP Fit Center  630 is at  -4.994606 -0.814652  2.722081
      ESP Fit Center  631 is at  -4.548430  2.429504  1.762081
      ESP Fit Center  632 is at  -5.379814  1.825468  1.762081
      ESP Fit Center  633 is at  -5.697375  0.848117  1.762081
      ESP Fit Center  634 is at  -5.379814 -0.129234  1.762081
      ESP Fit Center  635 is at  -4.548430 -0.733270  1.762081
      ESP Fit Center  636 is at  -4.514606  1.679501  1.059312
      ESP Fit Center  637 is at  -4.994606  0.848117  1.059312
      ESP Fit Center  638 is at  -4.514606  0.016733  1.059312
      ESP Fit Center  639 is at  -1.240470  1.915627  4.498513
      ESP Fit Center  640 is at  -1.558031  2.892978  4.498513
      ESP Fit Center  641 is at  -2.389415  3.497014  4.498513
      ESP Fit Center  642 is at  -1.240470  2.875627  3.538513
      ESP Fit Center  643 is at  -1.943239  3.578396  3.538513
      ESP Fit Center  644 is at  -2.903239  3.835627  3.538513
      ESP Fit Center  645 is at  -3.863239  3.578396  3.538513
      ESP Fit Center  646 is at  -4.566008  2.875627  3.538513
      ESP Fit Center  647 is at  -2.389415  3.497014  2.578513
      ESP Fit Center  648 is at  -3.417063  3.497014  2.578513
      ESP Fit Center  649 is at  -4.248447  2.892978  2.578513
      ESP Fit Center  650 is at  -3.383239  2.747011  1.875744
      ESP Fit Center  651 is at  -0.365122  0.136804  4.293089
      ESP Fit Center  652 is at  -0.699591  1.166194  4.293089
      ESP Fit Center  653 is at  -1.575243 -1.528784  4.293089
      ESP Fit Center  654 is at  -0.699591 -0.892586  4.293089
      ESP Fit Center  655 is at  -1.853192 -2.031112  3.394919
      ESP Fit Center  656 is at  -0.875863 -1.660460  3.394919
      ESP Fit Center  657 is at  -3.751052 -1.311349  2.398025
      ESP Fit Center  658 is at  -2.890825 -1.905120  2.398025
      ESP Fit Center  659 is at  -3.102229  2.390703  1.121126
      ESP Fit Center  660 is at  -3.102229 -1.267997  1.121126
      ESP Fit Center  661 is at  -0.807320  2.420764  3.373679
      ESP Fit Center  662 is at   0.375449  1.589380  2.670910
      ESP Fit Center  663 is at   0.057888  2.566731  2.670910
      ESP Fit Center  664 is at  -0.773496  3.170767  2.670910
      ESP Fit Center  665 is at  -0.327320  3.252149  1.710910
      ESP Fit Center  666 is at  -1.287320  3.509380  1.710910
      ESP Fit Center  667 is at  -2.247320  3.252149  1.710910
      ESP Fit Center  668 is at  -0.773496  3.170767  0.750910
      ESP Fit Center  669 is at  -1.801144  3.170767  0.750910
      ESP Fit Center  670 is at  -2.632528  2.566731  0.750910
      ESP Fit Center  671 is at  -0.807320  2.420764  0.048141
      ESP Fit Center  672 is at  -1.767320  2.420764  0.048141
      ESP Fit Center  673 is at  -3.389555  2.188469  0.904479
      ESP Fit Center  674 is at  -4.092324  1.485700  0.904479
      ESP Fit Center  675 is at  -4.092324 -0.434300  0.904479
      ESP Fit Center  676 is at  -3.389555 -1.137069  0.904479
      ESP Fit Center  677 is at  -2.943379  2.107087 -0.055521
      ESP Fit Center  678 is at  -3.774763  1.503051 -0.055521
      ESP Fit Center  679 is at  -4.092324  0.525700 -0.055521
      ESP Fit Center  680 is at  -3.774763 -0.451651 -0.055521
      ESP Fit Center  681 is at  -2.943379 -1.055687 -0.055521
      ESP Fit Center  682 is at  -1.949555  1.357084 -0.758290
      ESP Fit Center  683 is at  -2.909555  1.357084 -0.758290
      ESP Fit Center  684 is at  -3.389555  0.525700 -0.758290
      ESP Fit Center  685 is at  -2.909555 -0.305684 -0.758290
      ESP Fit Center  686 is at  -2.429555  0.525700 -1.015521
      ESP Fit Center  687 is at   0.945570 -2.198203  1.784454
      ESP Fit Center  688 is at   0.945570 -2.198203  0.716354
      ESP Fit Center  689 is at  -1.371407 -2.210823  2.831095
      ESP Fit Center  690 is at  -0.411407 -2.210823  2.831095
      ESP Fit Center  691 is at  -2.236615 -2.356790  2.128326
      ESP Fit Center  692 is at  -1.405231 -2.960826  2.128326
      ESP Fit Center  693 is at  -0.377583 -2.960826  2.128326
      ESP Fit Center  694 is at  -2.554176 -2.339439  1.168326
      ESP Fit Center  695 is at  -1.851407 -3.042208  1.168326
      ESP Fit Center  696 is at  -0.891407 -3.299439  1.168326
      ESP Fit Center  697 is at   0.068593 -3.042208  1.168326
      ESP Fit Center  698 is at  -2.554176 -1.379439  0.208326
      ESP Fit Center  699 is at  -2.236615 -2.356790  0.208326
      ESP Fit Center  700 is at  -1.405231 -2.960826  0.208326
      ESP Fit Center  701 is at  -0.377583 -2.960826  0.208326
      ESP Fit Center  702 is at   0.453801 -2.356790  0.208326
      ESP Fit Center  703 is at  -1.851407 -1.379439 -0.494443
      ESP Fit Center  704 is at  -1.371407 -2.210823 -0.494443
      ESP Fit Center  705 is at  -0.411407 -2.210823 -0.494443
      ESP Fit Center  706 is at   0.255450 -0.364210  3.937249
      ESP Fit Center  707 is at   1.215450 -0.364210  3.680018
      ESP Fit Center  708 is at   0.735450  0.467174  3.680018
      ESP Fit Center  709 is at  -0.224550 -1.195594  3.680018
      ESP Fit Center  710 is at   0.735450 -1.195594  3.680018
      ESP Fit Center  711 is at   1.918219 -0.364210  2.977249
      ESP Fit Center  712 is at   1.600658  0.613141  2.977249
      ESP Fit Center  713 is at   0.769274  1.217177  2.977249
      ESP Fit Center  714 is at   0.769274 -1.945597  2.977249
      ESP Fit Center  715 is at   1.600658 -1.341561  2.977249
      ESP Fit Center  716 is at   1.215450 -2.026979  2.017249
      ESP Fit Center  717 is at   0.263233 -2.167916 -0.498447
      ESP Fit Center  718 is at  -1.416834  1.029390 -1.396617
      ESP Fit Center  719 is at  -1.751303  0.000000 -1.396617
      ESP Fit Center  720 is at  -1.416834 -1.029390 -1.396617
      ESP Fit Center  721 is at  -0.541182 -1.665588 -1.396617
      ESP Fit Center  722 is at   0.541182 -1.665588 -1.396617
      ESP Fit Center  723 is at  -0.485950  0.841690 -2.018170
      ESP Fit Center  724 is at  -0.971900  0.000000 -2.018170
      ESP Fit Center  725 is at  -0.485950 -0.841690 -2.018170
      ESP Fit Center  726 is at   0.485950 -0.841690 -2.018170
      ESP Fit Center  727 is at   0.000000  0.000000 -2.240000
      ESP Fit Center  728 is at   0.607055 -0.072252 -2.162325
      ESP Fit Center  729 is at   1.122433  1.504534  2.770484
      ESP Fit Center  730 is at   2.082433  1.504534  2.513253
      ESP Fit Center  731 is at   1.602433  2.335918  2.513253
      ESP Fit Center  732 is at   0.642433  2.335918  2.513253
      ESP Fit Center  733 is at   1.636257  3.085921  1.810484
      ESP Fit Center  734 is at   0.608609  3.085921  1.810484
      ESP Fit Center  735 is at   2.082433  3.167303  0.850484
      ESP Fit Center  736 is at   1.122433  3.424534  0.850484
      ESP Fit Center  737 is at   0.162433  3.167303  0.850484
      ESP Fit Center  738 is at   2.031158  3.096383 -0.896265
      ESP Fit Center  739 is at   1.071158  3.353614 -0.896265
      ESP Fit Center  740 is at   0.111158  3.096383 -0.896265
      ESP Fit Center  741 is at  -0.591611  2.393614 -0.896265
      ESP Fit Center  742 is at   1.584982  3.015001 -1.856265
      ESP Fit Center  743 is at   0.557334  3.015001 -1.856265
      ESP Fit Center  744 is at  -0.274050  2.410965 -1.856265
      ESP Fit Center  745 is at  -0.591611  1.433614 -1.856265
      ESP Fit Center  746 is at   0.591158  2.264998 -2.559034
      ESP Fit Center  747 is at   0.111158  1.433614 -2.559034
      ESP Fit Center  748 is at   0.591158  0.602230 -2.559034
      ESP Fit Center  749 is at   1.071158  1.433614 -2.816265
      ESP Fit Center  750 is at   1.428696 -2.365833 -0.822583
      ESP Fit Center  751 is at   2.388696 -2.623064 -0.822583
      ESP Fit Center  752 is at   3.348696 -2.365833 -0.822583
      ESP Fit Center  753 is at   1.043488 -1.680415 -1.782583
      ESP Fit Center  754 is at   1.874872 -2.284451 -1.782583
      ESP Fit Center  755 is at   2.902520 -2.284451 -1.782583
      ESP Fit Center  756 is at   1.908696  0.128320 -2.485352
      ESP Fit Center  757 is at   1.428696 -0.703064 -2.485352
      ESP Fit Center  758 is at   1.908696 -1.534448 -2.485352
      ESP Fit Center  759 is at   2.479366 -0.580254  2.831938
      ESP Fit Center  760 is at   3.439366 -0.580254  2.574707
      ESP Fit Center  761 is at   2.959366  0.251130  2.574707
      ESP Fit Center  762 is at   1.999366  0.251130  2.574707
      ESP Fit Center  763 is at   1.999366 -1.411638  2.574707
      ESP Fit Center  764 is at   2.959366 -1.411638  2.574707
      ESP Fit Center  765 is at   1.965542 -2.161641  1.871938
      ESP Fit Center  766 is at   2.993190 -2.161641  1.871938
      ESP Fit Center  767 is at   3.824574 -1.557605  1.871938
      ESP Fit Center  768 is at   1.519366 -2.243023  0.911938
      ESP Fit Center  769 is at   2.479366 -2.500254  0.911938
      ESP Fit Center  770 is at   3.439366 -2.243023  0.911938
      ESP Fit Center  771 is at   3.919383  1.008994  2.737372
      ESP Fit Center  772 is at   4.990897  1.008994  2.524235
      ESP Fit Center  773 is at   4.455140  1.936952  2.524235
      ESP Fit Center  774 is at   3.383626  1.936952  2.524235
      ESP Fit Center  775 is at   2.847869  1.008994  2.524235
      ESP Fit Center  776 is at   3.383626  0.081036  2.524235
      ESP Fit Center  777 is at   4.455140  0.081036  2.524235
      ESP Fit Center  778 is at   5.899282  1.008994  1.917271
      ESP Fit Center  779 is at   5.634026  1.998943  1.917271
      ESP Fit Center  780 is at   4.909332  2.723637  1.917271
      ESP Fit Center  781 is at   3.919383  2.988893  1.917271
      ESP Fit Center  782 is at   2.929434  2.723637  1.917271
      ESP Fit Center  783 is at   4.909332 -0.705649  1.917271
      ESP Fit Center  784 is at   5.634026  0.019045  1.917271
      ESP Fit Center  785 is at   6.506246  1.008994  1.008886
      ESP Fit Center  786 is at   6.282600  2.061166  1.008886
      ESP Fit Center  787 is at   5.650332  2.931408  1.008886
      ESP Fit Center  788 is at   4.718768  3.469247  1.008886
      ESP Fit Center  789 is at   3.648982  3.581686  1.008886
      ESP Fit Center  790 is at   2.625952  3.249283  1.008886
      ESP Fit Center  791 is at   4.718768 -1.451259  1.008886
      ESP Fit Center  792 is at   5.650332 -0.913420  1.008886
      ESP Fit Center  793 is at   6.282600 -0.043178  1.008886
      ESP Fit Center  794 is at   6.719383  1.008994 -0.062628
      ESP Fit Center  795 is at   6.530305  2.020471 -0.062628
      ESP Fit Center  796 is at   5.988608  2.895342 -0.062628
      ESP Fit Center  797 is at   5.167450  3.515451 -0.062628
      ESP Fit Center  798 is at   4.177734  3.797050 -0.062628
      ESP Fit Center  799 is at   3.153127  3.702106 -0.062628
      ESP Fit Center  800 is at   2.232006  3.243442 -0.062628
      ESP Fit Center  801 is at   4.177734 -1.779062 -0.062628
      ESP Fit Center  802 is at   5.167450 -1.497463 -0.062628
      ESP Fit Center  803 is at   5.988608 -0.877354 -0.062628
      ESP Fit Center  804 is at   6.530305 -0.002483 -0.062628
      ESP Fit Center  805 is at   2.625952  3.249283 -1.134142
      ESP Fit Center  806 is at   3.805884  3.236302 -3.336397
      ESP Fit Center  807 is at   2.598122  3.250375 -1.282775
      ESP Fit Center  808 is at   3.111946  3.588988 -2.242775
      ESP Fit Center  809 is at   2.151946  3.331757 -2.242775
      ESP Fit Center  810 is at   2.598122  3.250375 -3.202775
      ESP Fit Center  811 is at   1.766738  2.646339 -3.202775
      ESP Fit Center  812 is at   1.449177  1.668988 -3.202775
      ESP Fit Center  813 is at   1.766738  0.691637 -3.202775
      ESP Fit Center  814 is at   2.631946  2.500372 -3.905544
      ESP Fit Center  815 is at   2.151946  1.668988 -3.905544
      ESP Fit Center  816 is at   6.376460  2.249747 -0.930777
      ESP Fit Center  817 is at   6.058899  3.227098 -0.930777
      ESP Fit Center  818 is at   5.227515  3.831134 -0.930777
      ESP Fit Center  819 is at   4.199867  3.831134 -0.930777
      ESP Fit Center  820 is at   6.376460  3.209747 -1.890777
      ESP Fit Center  821 is at   5.673691  3.912516 -1.890777
      ESP Fit Center  822 is at   4.713691  4.169747 -1.890777
      ESP Fit Center  823 is at   3.753691  3.912516 -1.890777
      ESP Fit Center  824 is at   5.227515  3.831134 -2.850777
      ESP Fit Center  825 is at   4.199867  3.831134 -2.850777
      ESP Fit Center  826 is at   3.511109 -2.223951 -1.637069
      ESP Fit Center  827 is at   4.538757 -2.223951 -1.637069
      ESP Fit Center  828 is at   2.362164 -1.602564 -2.597069
      ESP Fit Center  829 is at   3.064933 -2.305333 -2.597069
      ESP Fit Center  830 is at   4.024933 -2.562564 -2.597069
      ESP Fit Center  831 is at   4.984933 -2.305333 -2.597069
      ESP Fit Center  832 is at   2.362164 -0.642564 -3.557069
      ESP Fit Center  833 is at   2.679725 -1.619915 -3.557069
      ESP Fit Center  834 is at   3.511109 -2.223951 -3.557069
      ESP Fit Center  835 is at   4.538757 -2.223951 -3.557069
      ESP Fit Center  836 is at   6.586552 -0.064284 -0.582379
      ESP Fit Center  837 is at   6.106552 -0.895668 -0.582379
      ESP Fit Center  838 is at   7.289321 -0.064284 -1.285148
      ESP Fit Center  839 is at   6.971760  0.913067 -1.285148
      ESP Fit Center  840 is at   6.140376 -1.645671 -1.285148
      ESP Fit Center  841 is at   6.971760 -1.041635 -1.285148
      ESP Fit Center  842 is at   5.626552 -1.984284 -2.245148
      ESP Fit Center  843 is at   6.586552 -1.727053 -2.245148
      ESP Fit Center  844 is at   6.140376 -1.645671 -3.205148
      ESP Fit Center  845 is at   2.288951  0.055406 -3.355069
      ESP Fit Center  846 is at   5.618670 -1.867008 -3.355069
      ESP Fit Center  847 is at   4.053029  3.286357 -4.426583
      ESP Fit Center  848 is at   3.131908  2.827693 -4.426583
      ESP Fit Center  849 is at   2.438677  2.067255 -4.426583
      ESP Fit Center  850 is at   2.066960  1.107744 -4.426583
      ESP Fit Center  851 is at   2.066960  0.078746 -4.426583
      ESP Fit Center  852 is at   2.438677 -0.880765 -4.426583
      ESP Fit Center  853 is at   3.131908 -1.641203 -4.426583
      ESP Fit Center  854 is at   4.053029 -2.099867 -4.426583
      ESP Fit Center  855 is at   5.077636 -2.194811 -4.426583
      ESP Fit Center  856 is at   6.067352 -1.913212 -4.426583
      ESP Fit Center  857 is at   4.548884  3.165937 -5.498097
      ESP Fit Center  858 is at   3.525854  2.833534 -5.498097
      ESP Fit Center  859 is at   2.726469  2.113765 -5.498097
      ESP Fit Center  860 is at   2.288951  1.131084 -5.498097
      ESP Fit Center  861 is at   2.288951  0.055406 -5.498097
      ESP Fit Center  862 is at   2.726469 -0.927275 -5.498097
      ESP Fit Center  863 is at   3.525854 -1.647044 -5.498097
      ESP Fit Center  864 is at   4.548884 -1.979447 -5.498097
      ESP Fit Center  865 is at   5.618670 -1.867008 -5.498097
      ESP Fit Center  866 is at   3.829336  2.307888 -6.406482
      ESP Fit Center  867 is at   3.104642  1.583194 -6.406482
      ESP Fit Center  868 is at   2.839386  0.593245 -6.406482
      ESP Fit Center  869 is at   3.104642 -0.396704 -6.406482
      ESP Fit Center  870 is at   3.829336 -1.121398 -6.406482
      ESP Fit Center  871 is at   4.819285 -1.386654 -6.406482
      ESP Fit Center  872 is at   5.809234 -1.121398 -6.406482
      ESP Fit Center  873 is at   5.890799  0.593245 -7.013446
      ESP Fit Center  874 is at   5.355042  1.521203 -7.013446
      ESP Fit Center  875 is at   4.283528  1.521203 -7.013446
      ESP Fit Center  876 is at   3.747771  0.593245 -7.013446
      ESP Fit Center  877 is at   4.283528 -0.334713 -7.013446
      ESP Fit Center  878 is at   5.355042 -0.334713 -7.013446
      ESP Fit Center  879 is at   4.819285  0.593245 -7.226583
      ESP Fit Center  880 is at   4.857790  3.457887 -5.031221
      ESP Fit Center  881 is at   7.245107  2.376119 -2.052874
      ESP Fit Center  882 is at   6.765107  3.207503 -2.052874
      ESP Fit Center  883 is at   6.765107  1.544735 -2.052874
      ESP Fit Center  884 is at   6.798931  3.957506 -2.755643
      ESP Fit Center  885 is at   5.771283  3.957506 -2.755643
      ESP Fit Center  886 is at   7.245107  4.038888 -3.715643
      ESP Fit Center  887 is at   6.285107  4.296119 -3.715643
      ESP Fit Center  888 is at   5.325107  4.038888 -3.715643
      ESP Fit Center  889 is at   4.622338  3.336119 -3.715643
      ESP Fit Center  890 is at   7.213035  3.821120 -5.437630
      ESP Fit Center  891 is at   6.253035  4.078351 -5.437630
      ESP Fit Center  892 is at   5.293035  3.821120 -5.437630
      ESP Fit Center  893 is at   6.766859  3.739738 -6.397630
      ESP Fit Center  894 is at   5.739211  3.739738 -6.397630
      ESP Fit Center  895 is at   4.907827  3.135702 -6.397630
      ESP Fit Center  896 is at   5.773035  2.989735 -7.100399
      ESP Fit Center  897 is at   5.293035  2.158351 -7.100399
      ESP Fit Center  898 is at   5.773035  1.326967 -7.100399
      ESP Fit Center  899 is at   9.074351 -1.001869 -3.886295
      ESP Fit Center  900 is at   7.666043  0.283144 -1.566778
      ESP Fit Center  901 is at   8.626043  0.283144 -1.824009
      ESP Fit Center  902 is at   8.146043  1.114528 -1.824009
      ESP Fit Center  903 is at   7.186043  1.114528 -1.824009
      ESP Fit Center  904 is at   8.146043 -0.548240 -1.824009
      ESP Fit Center  905 is at   7.152219 -1.298243 -2.526778
      ESP Fit Center  906 is at   8.179867 -1.298243 -2.526778
      ESP Fit Center  907 is at   9.011251 -0.694207 -2.526778
      ESP Fit Center  908 is at   6.706043 -1.379625 -3.486778
      ESP Fit Center  909 is at   7.666043 -1.636856 -3.486778
      ESP Fit Center  910 is at   8.626043 -1.379625 -3.486778
      ESP Fit Center  911 is at   6.698680 -1.567406 -5.216392
      ESP Fit Center  912 is at   7.658680 -1.824637 -5.216392
      ESP Fit Center  913 is at   8.618680 -1.567406 -5.216392
      ESP Fit Center  914 is at   9.321449 -0.864637 -5.216392
      ESP Fit Center  915 is at   7.144856 -1.486024 -6.176392
      ESP Fit Center  916 is at   8.172504 -1.486024 -6.176392
      ESP Fit Center  917 is at   6.698680  0.095363 -6.879161
      ESP Fit Center  918 is at   7.178680 -0.736021 -6.879161
      ESP Fit Center  919 is at   8.138680 -0.736021 -6.879161
      ESP Fit Center  920 is at   9.112375  1.868934 -1.687319
      ESP Fit Center  921 is at  10.183889  1.868934 -1.900456
      ESP Fit Center  922 is at   9.648132  2.796892 -1.900456
      ESP Fit Center  923 is at   8.576618  2.796892 -1.900456
      ESP Fit Center  924 is at   8.040861  1.868934 -1.900456
      ESP Fit Center  925 is at   8.576618  0.940976 -1.900456
      ESP Fit Center  926 is at   9.648132  0.940976 -1.900456
      ESP Fit Center  927 is at  11.092274  1.868934 -2.507420
      ESP Fit Center  928 is at  10.827018  2.858883 -2.507420
      ESP Fit Center  929 is at  10.102324  3.583577 -2.507420
      ESP Fit Center  930 is at   9.112375  3.848833 -2.507420
      ESP Fit Center  931 is at   8.122426  3.583577 -2.507420
      ESP Fit Center  932 is at  10.102324  0.154291 -2.507420
      ESP Fit Center  933 is at  10.827018  0.878985 -2.507420
      ESP Fit Center  934 is at  11.699238  1.868934 -3.415805
      ESP Fit Center  935 is at  11.475592  2.921106 -3.415805
      ESP Fit Center  936 is at  10.843324  3.791348 -3.415805
      ESP Fit Center  937 is at   9.911760  4.329187 -3.415805
      ESP Fit Center  938 is at   8.841974  4.441626 -3.415805
      ESP Fit Center  939 is at   7.818944  4.109223 -3.415805
      ESP Fit Center  940 is at   9.911760 -0.591319 -3.415805
      ESP Fit Center  941 is at  10.843324 -0.053480 -3.415805
      ESP Fit Center  942 is at  11.475592  0.816762 -3.415805
      ESP Fit Center  943 is at  11.912375  1.868934 -4.487319
      ESP Fit Center  944 is at  11.723297  2.880411 -4.487319
      ESP Fit Center  945 is at  11.181600  3.755282 -4.487319
      ESP Fit Center  946 is at  10.360442  4.375391 -4.487319
      ESP Fit Center  947 is at   9.370726  4.656990 -4.487319
      ESP Fit Center  948 is at   8.346119  4.562046 -4.487319
      ESP Fit Center  949 is at   7.424998  4.103382 -4.487319
      ESP Fit Center  950 is at   9.370726 -0.919122 -4.487319
      ESP Fit Center  951 is at  10.360442 -0.637523 -4.487319
      ESP Fit Center  952 is at  11.181600 -0.017414 -4.487319
      ESP Fit Center  953 is at  11.723297  0.857457 -4.487319
      ESP Fit Center  954 is at   9.911760  4.329187 -5.558833
      ESP Fit Center  955 is at  11.759478  0.682300 -5.683679
      ESP Fit Center  956 is at  11.759478  0.682300 -6.751779
      ESP Fit Center  957 is at  11.229891  0.683057 -7.714105
      ESP Fit Center  958 is at  12.293874  2.160237 -5.274122
      ESP Fit Center  959 is at  11.976313  3.137588 -5.274122
      ESP Fit Center  960 is at  11.144929  3.741624 -5.274122
      ESP Fit Center  961 is at  11.976313  1.182886 -5.274122
      ESP Fit Center  962 is at  12.551105  2.160237 -6.234122
      ESP Fit Center  963 is at  12.293874  3.120237 -6.234122
      ESP Fit Center  964 is at  11.591105  3.823006 -6.234122
      ESP Fit Center  965 is at  10.631105  4.080237 -6.234122
      ESP Fit Center  966 is at  12.293874  1.200237 -6.234122
      ESP Fit Center  967 is at  12.293874  2.160237 -7.194122
      ESP Fit Center  968 is at  11.976313  3.137588 -7.194122
      ESP Fit Center  969 is at  11.144929  3.741624 -7.194122
      ESP Fit Center  970 is at  11.976313  1.182886 -7.194122
      ESP Fit Center  971 is at  11.591105  2.160237 -7.896891
      ESP Fit Center  972 is at  11.111105  2.991621 -7.896891
      ESP Fit Center  973 is at   9.281955 -0.936174 -5.472673
      ESP Fit Center  974 is at  10.309603 -0.936174 -5.472673
      ESP Fit Center  975 is at  11.140987 -0.332138 -5.472673
      ESP Fit Center  976 is at   8.835779 -1.017556 -6.432673
      ESP Fit Center  977 is at   9.795779 -1.274787 -6.432673
      ESP Fit Center  978 is at  10.755779 -1.017556 -6.432673
      ESP Fit Center  979 is at  11.458548 -0.314787 -6.432673
      ESP Fit Center  980 is at   8.450571 -0.332138 -7.392673
      ESP Fit Center  981 is at   9.281955 -0.936174 -7.392673
      ESP Fit Center  982 is at  10.309603 -0.936174 -7.392673
      ESP Fit Center  983 is at  11.140987 -0.332138 -7.392673
      ESP Fit Center  984 is at  10.755779  0.645213 -8.095442
      ESP Fit Center  985 is at   9.315779 -0.186171 -8.095442
      ESP Fit Center  986 is at  10.275779 -0.186171 -8.095442
      ESP Fit Center  987 is at  10.859045  3.360145 -7.798743
      ESP Fit Center  988 is at  10.209792  4.174282 -7.798743
      ESP Fit Center  989 is at   6.642823  3.360145 -7.798743
      ESP Fit Center  990 is at   7.522156  3.763017 -8.761069
      ESP Fit Center  991 is at   6.950546  2.873574 -8.761069
      ESP Fit Center  992 is at   8.483895  0.487635 -8.761069
      ESP Fit Center  993 is at   6.118428  2.821925 -7.313451
      ESP Fit Center  994 is at   5.861197  1.861925 -7.313451
      ESP Fit Center  995 is at   6.118428  0.901925 -7.313451
      ESP Fit Center  996 is at   6.821197  0.199156 -7.313451
      ESP Fit Center  997 is at   7.781197 -0.058075 -7.313451
      ESP Fit Center  998 is at   6.435989  2.839276 -8.273451
      ESP Fit Center  999 is at   6.118428  1.861925 -8.273451
      ESP Fit Center 1000 is at   6.435989  0.884574 -8.273451
      ESP Fit Center 1001 is at   7.267373  0.280538 -8.273451
      ESP Fit Center 1002 is at   6.821197  1.861925 -8.976220
      ESP Fit Center 1003 is at   7.301197  1.030541 -8.976220
      ESP Fit Center 1004 is at   9.941965  4.373541 -6.090438
      ESP Fit Center 1005 is at   9.110581  4.977577 -6.090438
      ESP Fit Center 1006 is at   8.082933  4.977577 -6.090438
      ESP Fit Center 1007 is at   7.251549  4.373541 -6.090438
      ESP Fit Center 1008 is at  10.259526  4.356190 -7.050438
      ESP Fit Center 1009 is at   9.556757  5.058959 -7.050438
      ESP Fit Center 1010 is at   8.596757  5.316190 -7.050438
      ESP Fit Center 1011 is at   7.636757  5.058959 -7.050438
      ESP Fit Center 1012 is at   6.933988  4.356190 -7.050438
      ESP Fit Center 1013 is at   9.941965  4.373541 -8.010438
      ESP Fit Center 1014 is at   9.110581  4.977577 -8.010438
      ESP Fit Center 1015 is at   8.082933  4.977577 -8.010438
      ESP Fit Center 1016 is at   7.251549  4.373541 -8.010438
      ESP Fit Center 1017 is at   8.116757  4.227574 -8.713207
      ESP Fit Center 1018 is at  11.126820  2.259416 -8.247046
      ESP Fit Center 1019 is at  10.869589  3.219416 -8.247046
      ESP Fit Center 1020 is at  10.869589  1.299416 -8.247046
      ESP Fit Center 1021 is at  10.869589  2.259416 -9.207046
      ESP Fit Center 1022 is at  10.552028  3.236767 -9.207046
      ESP Fit Center 1023 is at   9.720644  3.840803 -9.207046
      ESP Fit Center 1024 is at   8.692996  3.840803 -9.207046
      ESP Fit Center 1025 is at   8.692996  0.678029 -9.207046
      ESP Fit Center 1026 is at   9.720644  0.678029 -9.207046
      ESP Fit Center 1027 is at  10.552028  1.282065 -9.207046
      ESP Fit Center 1028 is at  10.166820  2.259416 -9.909815
      ESP Fit Center 1029 is at   9.686820  3.090800 -9.909815
      ESP Fit Center 1030 is at   8.726820  3.090800 -9.909815
      ESP Fit Center 1031 is at   8.246820  2.259416 -9.909815
      ESP Fit Center 1032 is at   8.726820  1.428032 -9.909815
      ESP Fit Center 1033 is at   9.686820  1.428032 -9.909815
      ESP Fit Center 1034 is at   9.206820  2.259416-10.167046
      ESP Fit Center 1035 is at  -5.651857  2.579107  9.371824
      ESP Fit Center 1036 is at  -6.685102  2.579107  9.166299
      ESP Fit Center 1037 is at  -5.135234  1.684290  9.166299
      ESP Fit Center 1038 is at  -7.483710  3.116988  8.581012
      ESP Fit Center 1039 is at  -7.899301  3.661419  7.705069
      ESP Fit Center 1040 is at  -6.685102  5.073582  6.671824
      ESP Fit Center 1041 is at  -7.561045  4.488295  6.671824
      ESP Fit Center 1042 is at  -8.146332  3.612352  6.671824
      ESP Fit Center 1043 is at  -8.351857  2.579107  6.671824
      ESP Fit Center 1044 is at  -5.096784  5.011040  5.638579
      ESP Fit Center 1045 is at  -7.899301  1.496795  5.638579
      ESP Fit Center 1046 is at  -7.207137  0.628848  5.638579
      ESP Fit Center 1047 is at  -5.448870  3.387305  9.527627
      ESP Fit Center 1048 is at  -4.368870  3.387305  9.238242
[...]
 1360 Fit       0.007178
 1361 Fit       0.006503
 1362 Fit       0.003877
 1363 Fit       0.008821
 1364 Fit       0.009955
 1365 Fit       0.003627
 1366 Fit       0.006499
 1367 Fit       0.005465
 1368 Fit       0.007965
 1369 Fit       0.002145
 1370 Fit      -0.003323
 1371 Fit       0.000700
 1372 Fit       0.003143
 1373 Fit       0.005774
 1374 Fit      -0.000248
 1375 Fit      -0.003998
 1376 Fit      -0.002445
 1377 Fit      -0.002260
 1378 Fit      -0.009203
 1379 Fit      -0.012165
 1380 Fit      -0.011575
 1381 Fit      -0.009123
 1382 Fit      -0.006294
 1383 Fit      -0.004878
 1384 Fit      -0.006220
 1385 Fit      -0.009332
 1386 Fit      -0.010907
 1387 Fit      -0.007463
 1388 Fit      -0.006567
 1389 Fit      -0.012729
 1390 Fit      -0.014512
 1391 Fit      -0.013359
 1392 Fit      -0.011612
 1393 Fit      -0.011311
 1394 Fit      -0.012780
 1395 Fit      -0.013839
 1396 Fit      -0.010762
 1397 Fit      -0.005778
 1398 Fit      -0.011526
 1399 Fit      -0.012985
 1400 Fit      -0.012900
 1401 Fit      -0.013199
 1402 Fit      -0.012390
 1403 Fit      -0.006436
 1404 Fit       0.007743
 1405 Fit       0.008018
 1406 Fit      -0.002627
 1407 Fit      -0.008844
 1408 Fit      -0.009403
 1409 Fit      -0.003730
 1410 Fit      -0.001893
 1411 Fit       0.004693
 1412 Fit       0.010839
 1413 Fit       0.010732
 1414 Fit       0.002832
 1415 Fit       0.009860
 1416 Fit       0.002035
 1417 Fit       0.006585
 1418 Fit       0.006256
 1419 Fit       0.002597
 1420 Fit       0.004599
 1421 Fit       0.000784
 1422 Fit       0.007264
 1423 Fit       0.005537
 1424 Fit       0.009537
 1425 Fit       0.007756
 1426 Fit       0.005165
 1427 Fit       0.010172
 1428 Fit       0.002540
 1429 Fit       0.007453
 1430 Fit       0.009720
 1431 Fit       0.005952
 1432 Fit      -0.000295
 1433 Fit       0.004203
 1434 Fit       0.005421
 1435 Fit       0.003057
 1436 Fit      -0.001505
 1437 Fit       0.005519
 1438 Fit       0.007697
 1439 Fit       0.006070
 1440 Fit       0.011143
 1441 Fit       0.009106
 1442 Fit       0.014627
 1443 Fit      -0.006307
 1444 Fit      -0.013859
 1445 Fit      -0.011987
 1446 Fit      -0.004915
 1447 Fit       0.004351
 1448 Fit       0.002290
 1449 Fit      -0.009002
 1450 Fit      -0.017397
 1451 Fit      -0.015920
 1452 Fit      -0.014823
 1453 Fit      -0.012550
 1454 Fit      -0.005330
 1455 Fit      -0.011926
 1456 Fit      -0.017169
 1457 Fit      -0.015851
 1458 Fit      -0.013753
 1459 Fit      -0.013500
 1460 Fit      -0.014762
 1461 Fit      -0.014993
 1462 Fit      -0.010677
 1463 Fit      -0.010279
 1464 Fit      -0.016441
 1465 Fit      -0.017720
 1466 Fit      -0.009312
 1467 Fit      -0.006888
 1468 Fit      -0.007348
 1469 Fit      -0.010356
 1470 Fit      -0.013722
 1471 Fit      -0.014495
 1472 Fit      -0.009844
 1473 Fit      -0.002518
 1474 Fit      -0.009591
 1475 Fit      -0.013048
 1476 Fit      -0.012409
 1477 Fit       0.001479
 1478 Fit      -0.003565
 1479 Fit      -0.008217
 1480 Fit      -0.010220
 1481 Fit      -0.007800
 1482 Fit       0.004571
 1483 Fit      -0.000954
 1484 Fit      -0.004250
 1485 Fit      -0.003188
 1486 Fit       0.008012
 1487 Fit       0.010208
 1488 Fit       0.002709
 1489 Fit       0.003913
 1490 Fit      -0.000551
 1491 Fit       0.007193
 1492 Fit       0.007920
 1493 Fit       0.007426
 1494 Fit       0.005978
 1495 Fit       0.005679
 1496 Fit       0.009312
 1497 Fit       0.009769
 1498 Fit       0.009304
 1499 Fit       0.008440
 1500 Fit       0.010975
 1501 Fit       0.008005
 1502 Fit       0.003125
 1503 Fit      -0.000301
 1504 Fit       0.012841
 1505 Fit       0.009620
 1506 Fit       0.007388
 1507 Fit       0.005712
 1508 Fit       0.013324
 1509 Fit       0.011525
 1510 Fit       0.010042
 1511 Fit       0.008750
 1512 Fit       0.011680
 1513 Fit       0.010879
 1514 Fit       0.007607
 1515 Fit       0.006150
 1516 Fit       0.005797
 1517 Fit       0.010371
 1518 Fit       0.004738
 1519 Fit       0.004525
 1520 Fit       0.005129
 1521 Fit       0.009586
 1522 Fit       0.009258
 1523 Fit       0.012056
 1524 Fit       0.016069
 1525 Fit       0.007340
 1526 Fit       0.007681
 1527 Fit       0.007942
 1528 Fit       0.009108
 1529 Fit       0.006181
 1530 Fit       0.006753
 1531 Fit       0.000052
 1532 Fit       0.000293
 1533 Fit       0.001283
 1534 Fit       0.006964
 1535 Fit       0.004733
 1536 Fit       0.004542
 1537 Fit       0.004706
 1538 Fit       0.005065
 1539 Fit       0.007198
 1540 Fit       0.005284
 1541 Fit       0.005325
 1542 Fit       0.005203
 1543 Fit       0.010041
 1544 Fit       0.010006
 1545 Fit       0.008521
 1546 Fit       0.006546
 1547 Fit       0.005234
 1548 Fit       0.008700
 1549 Fit       0.010073
 1550 Fit       0.010442
 1551 Fit       0.009292
 1552 Fit       0.007807
 1553 Fit       0.006451
 1554 Fit       0.006415
 1555 Fit       0.007663
 1556 Fit       0.009213
 1557 Fit       0.008110
 1558 Fit       0.002650
 1559 Fit       0.004855
 1560 Fit       0.001257
 1561 Fit       0.002865
 1562 Fit       0.000512
 1563 Fit       0.000527
 1564 Fit      -0.000551
 1565 Fit       0.001130
 1566 Fit      -0.000296
 1567 Fit      -0.001558
 1568 Fit       0.006805
 1569 Fit       0.004156
 1570 Fit       0.002383
 1571 Fit      -0.004628
 1572 Fit       0.005499
 1573 Fit      -0.013980
 1574 Fit       0.003955
 1575 Fit       0.005827
 1576 Fit       0.005621
 1577 Fit       0.004123
 1578 Fit       0.002285
 1579 Fit       0.008155
 1580 Fit       0.007389
 1581 Fit       0.006418
 1582 Fit       0.005076
 1583 Fit       0.003334
 1584 Fit       0.001481
 1585 Fit       0.009005
 1586 Fit       0.007390
 1587 Fit       0.005957
 1588 Fit       0.004419
 1589 Fit       0.002689
 1590 Fit       0.007618
 1591 Fit       0.005439
 1592 Fit       0.003585
 1593 Fit       0.000851
 1594 Fit      -0.000420
 1595 Fit       0.003626
 1596 Fit       0.002486
 1597 Fit       0.001560
 1598 Fit       0.000157
 1599 Fit      -0.002228
 1600 Fit      -0.006303
 1601 Fit       0.004227
 1602 Fit       0.002861
 1603 Fit       0.001607
 1604 Fit      -0.000560
 1605 Fit      -0.004694
 1606 Fit      -0.013252
 1607 Fit       0.002215
 1608 Fit       0.000945
 1609 Fit      -0.002720
 1610 Fit      -0.011035
 1611 Fit      -0.002983
 1612 Fit       0.001473
 1613 Fit       0.000833
 1614 Fit       0.000831
 1615 Fit       0.001411
 1616 Fit      -0.000027
 1617 Fit      -0.000041
 1618 Fit      -0.000514
 1619 Fit      -0.001225
 1620 Fit      -0.000607
 1621 Fit      -0.001517
 1622 Fit      -0.002137
 1623 Fit      -0.003577
 1624 Fit      -0.005842
 1625 Fit      -0.007699
 1626 Fit      -0.003921
 1627 Fit      -0.005665
 1628 Fit      -0.008995
 1629 Fit      -0.015265
 1630 Fit      -0.016999
 1631 Fit       0.009049
 1632 Fit      -0.005548
 1633 Fit       0.008223
 1634 Fit       0.008652
 1635 Fit       0.008799
 1636 Fit       0.008858
 1637 Fit       0.008559
 1638 Fit       0.009971
 1639 Fit       0.009475
 1640 Fit       0.008513
 1641 Fit       0.007047
 1642 Fit       0.010082
 1643 Fit       0.007712
 1644 Fit       0.005344
 1645 Fit       0.006229
 1646 Fit       0.007030
 1647 Fit       0.003227
 1648 Fit       0.004696
 1649 Fit       0.006730
 1650 Fit       0.007549
 1651 Fit       0.008724
 1652 Fit      -0.000253
 1653 Fit       0.000933
 1654 Fit       0.003677
 1655 Fit       0.005680
 1656 Fit       0.007274
 1657 Fit       0.007908
 1658 Fit       0.006843
 1659 Fit      -0.011866
 1660 Fit      -0.007952
 1661 Fit      -0.017284
 1662 Fit      -0.015246
 1663 Fit      -0.019204
 1664 Fit      -0.019570
 1665 Fit      -0.016288
 1666 Fit      -0.016208
 1667 Fit      -0.019020
 1668 Fit      -0.017225
 1669 Fit      -0.004613
 1670 Fit      -0.011028
 1671 Fit      -0.014381
 1672 Fit      -0.012817
 1673 Fit      -0.003072
 1674 Fit      -0.001069
 1675 Fit      -0.010372
 1676 Fit      -0.006484
 1677 Fit      -0.002455
 1678 Fit      -0.001340
 1679 Fit      -0.010569
 1680 Fit      -0.004207
 1681 Fit      -0.001710
 1682 Fit      -0.001589
 1683 Fit      -0.003312
 1684 Fit      -0.006916
 1685 Fit      -0.002835
 1686 Fit      -0.001577
 1687 Fit      -0.002854
 1688 Fit      -0.007670
 1689 Fit      -0.004280
 1690 Fit      -0.002314
 1691 Fit      -0.002892
 1692 Fit      -0.008358
 1693 Fit      -0.003061
 1694 Fit       0.006065
 1695 Fit       0.003562
 1696 Fit       0.004608
 1697 Fit       0.007047
 1698 Fit       0.001252
 1699 Fit       0.002705
 1700 Fit       0.001590
 1701 Fit       0.004585
 1702 Fit       0.008278
 1703 Fit      -0.001468
 1704 Fit      -0.000476
 1705 Fit       0.004612
 1706 Fit       0.002874
 1707 Fit       0.005077
 1708 Fit      -0.002147
 1709 Fit       0.001429
 1710 Fit      -0.001618
 1711 Fit      -0.003214
 1712 Fit      -0.002848
 1713 Fit      -0.001630
 1714 Fit       0.005637
 1715 Fit       0.003417
 1716 Fit       0.001795
 1717 Fit       0.001032
 1718 Fit       0.000792
 1719 Fit      -0.000101
 1720 Fit       0.005278
 1721 Fit       0.003770
 1722 Fit       0.009486
 1723 Fit       0.008152
 1724 Fit       0.009914
 1725 Fit       0.010698
 1726 Fit       0.010386
 1727 Fit       0.009561
 1728 Fit       0.008344
 1729 Fit       0.005985
 1730 Fit       0.008097
 1731 Fit      -0.005079
 1732 Fit      -0.001023
 1733 Fit      -0.009298
 1734 Fit      -0.007971
 1735 Fit       0.001340
 1736 Fit       0.004198
 1737 Fit      -0.010869
 1738 Fit      -0.008225
 1739 Fit      -0.009077
 1740 Fit      -0.006014
 1741 Fit       0.007200
 1742 Fit      -0.002519
 1743 Fit       0.005200
 1744 Fit       0.001365
 1745 Fit       0.008646
 1746 Fit       0.009264
 1747 Fit       0.009855
 1748 Fit       0.009439
 1749 Fit       0.009892
 1750 Fit       0.008728
 1751 Fit       0.008138
 1752 Fit       0.007758
 1753 Fit       0.006479
 1754 Fit       0.005416
 1755 Fit       0.005049
 1756 Fit       0.004009
 1757 Fit       0.001997
 1758 Fit       0.000062
 1759 Fit       0.002438
 1760 Fit       0.003041
 1761 Fit       0.002776
 1762 Fit       0.001547
 1763 Fit      -0.000506
 1764 Fit      -0.003714
 1765 Fit      -0.001160
 1766 Fit      -0.000888
 1767 Fit      -0.004908
 1768 Fit      -0.008727
 1769 Fit      -0.008167
 1770 Fit       0.001836
 1771 Fit       0.003833
 1772 Fit      -0.006770
 1773 Fit      -0.001832
 1774 Fit       0.000851
 1775 Fit      -0.004576
 1776 Fit      -0.001415
 1777 Fit       0.000495
 1778 Fit       0.001674
 1779 Fit       0.003103
 1780 Fit      -0.000848
 1781 Fit      -0.000092
 1782 Fit       0.000615
 1783 Fit       0.000904
 1784 Fit       0.001229
 1785 Fit      -0.002283
 1786 Fit      -0.002085
 1787 Fit      -0.002174
 1788 Fit      -0.003437
 1789 Fit      -0.009181
 1790 Fit      -0.004041
 1791 Fit       0.004101
 1792 Fit       0.002396
 1793 Fit       0.000889
 1794 Fit       0.008826
 1795 Fit       0.008161
 1796 Fit       0.007489
 1797 Fit       0.003497
 1798 Fit       0.007281
 1799 Fit       0.008384
 1800 Fit      -0.002168
 1801 Fit      -0.009864
 1802 Fit      -0.010481
 1803 Fit      -0.010107
 1804 Fit      -0.011561
 1805 Fit      -0.014176
 1806 Fit      -0.015396
 1807 Fit      -0.015243
 1808 Fit      -0.012371
 1809 Fit      -0.014467
 1810 Fit      -0.014594
 1811 Fit      -0.006812
 1812 Fit      -0.008531
 1813 Fit       0.005318
 1814 Fit      -0.002284
 1815 Fit       0.009151
 1816 Fit       0.006518
 1817 Fit       0.006044
 1818 Fit       0.009610
 1819 Fit       0.002244
 1820 Fit       0.007793
 1821 Fit       0.001855
 1822 Fit       0.007274
 1823 Fit       0.001313
 1824 Fit       0.006187
 1825 Fit       0.006537
 1826 Fit       0.006221
 1827 Fit       0.004534
 1828 Fit      -0.000353
 1829 Fit       0.007116
 1830 Fit       0.003985
 1831 Fit      -0.001632
 1832 Fit       0.005220
 1833 Fit       0.000300
 1834 Fit       0.000089
 1835 Fit       0.003396
 1836 Fit       0.004929
 1837 Fit       0.003192
 1838 Fit       0.002993
 1839 Fit       0.005086
 1840 Fit      -0.003574
 1841 Fit       0.003639
 1842 Fit       0.007023
 1843 Fit       0.000339
 1844 Fit       0.006917
 1845 Fit       0.004581
 1846 Fit       0.009334
 1847 Fit       0.005154
 1848 Fit       0.007371
 1849 Fit       0.007629
 1850 Fit       0.006020
 1851 Fit       0.002696
 1852 Fit       0.005969
 1853 Fit       0.005388
 1854 Fit       0.002753
 1855 Fit      -0.002291
 1856 Fit      -0.006981
 1857 Fit      -0.007173
 1858 Fit      -0.002956
 1859 Fit       0.003839
 1860 Fit       0.004037
 1861 Fit      -0.002650
 1862 Fit      -0.009982
 1863 Fit      -0.010128
 1864 Fit      -0.009986
 1865 Fit      -0.008608
 1866 Fit      -0.003808
 1867 Fit      -0.004257
 1868 Fit      -0.008543
 1869 Fit      -0.010695
 1870 Fit      -0.009922
 1871 Fit      -0.009727
 1872 Fit      -0.010170
 1873 Fit      -0.009835
 1874 Fit      -0.006422
 1875 Fit      -0.004300
 1876 Fit      -0.009106
 1877 Fit      -0.010902
 1878 Fit      -0.008508
 1879 Fit      -0.007057
 1880 Fit      -0.006292
 1881 Fit      -0.006774
 1882 Fit      -0.008019
 1883 Fit      -0.008345
 1884 Fit      -0.005656
 1885 Fit      -0.002628
 1886 Fit      -0.007549
 1887 Fit      -0.009758
 1888 Fit      -0.009734
 1889 Fit      -0.002563
 1890 Fit      -0.001293
 1891 Fit      -0.000193
 1892 Fit      -0.000199
 1893 Fit      -0.001793
 1894 Fit      -0.003845
 1895 Fit      -0.004275
 1896 Fit      -0.001496
 1897 Fit       0.001706
 1898 Fit      -0.002900
 1899 Fit      -0.005178
 1900 Fit      -0.004941
 1901 Fit      -0.003743
 1902 Fit       0.008871
 1903 Fit       0.001778
 1904 Fit       0.001997
 1905 Fit       0.002326
 1906 Fit       0.004968
 1907 Fit       0.003875
 1908 Fit       0.004755
 1909 Fit       0.006493
 1910 Fit      -0.000094
 1911 Fit       0.001614
 1912 Fit       0.002489
 1913 Fit       0.001953
 1914 Fit       0.010608
 1915 Fit       0.008134
 1916 Fit       0.006994
 1917 Fit       0.005664
 1918 Fit       0.003851
 1919 Fit       0.008142
 1920 Fit       0.006093
 1921 Fit       0.006151
 1922 Fit       0.002222
 1923 Fit       0.003507
 1924 Fit       0.008041
 1925 Fit       0.005679
 1926 Fit       0.007767
 1927 Fit       0.007235
 1928 Fit       0.006938
 1929 Fit       0.005521
 1930 Fit       0.003402
 1931 Fit       0.003592
 1932 Fit       0.000437
 1933 Fit       0.002407
 1934 Fit       0.004111
 1935 Fit       0.005885
 1936 Fit       0.005617
 1937 Fit       0.000389
 1938 Fit       0.002395
 1939 Fit      -0.000364
 1940 Fit      -0.004029
 1941 Fit      -0.005192
 1942 Fit      -0.004760
 1943 Fit      -0.004128
 1944 Fit      -0.003128
 1945 Fit      -0.001478
 1946 Fit      -0.000336
 1947 Fit      -0.001019
 1948 Fit      -0.003211
 1949 Fit      -0.005011
 1950 Fit      -0.004423
 1951 Fit      -0.000432
 1952 Fit       0.000808
 1953 Fit      -0.005049
 1954 Fit      -0.008732
 1955 Fit      -0.009951
 1956 Fit      -0.009440
 1957 Fit      -0.008073
 1958 Fit      -0.006754
 1959 Fit      -0.006480
 1960 Fit      -0.007524
 1961 Fit      -0.008761
 1962 Fit      -0.008118
 1963 Fit      -0.003391
 1964 Fit      -0.003803
 1965 Fit      -0.008731
 1966 Fit      -0.010712
 1967 Fit      -0.010635
 1968 Fit      -0.009891
 1969 Fit      -0.009688
 1970 Fit      -0.010183
 1971 Fit      -0.009971
 1972 Fit      -0.006605
 1973 Fit      -0.003500
 1974 Fit      -0.008036
 1975 Fit      -0.009640
 1976 Fit      -0.009855
 1977 Fit      -0.009737
 1978 Fit      -0.008331
 1979 Fit      -0.003196
 1980 Fit       0.006428
 1981 Fit      -0.001508
 1982 Fit      -0.006260
 1983 Fit      -0.006491
 1984 Fit      -0.001726
 1985 Fit      -0.000879
 1986 Fit       0.000321
 1987 Fit       0.003396
 1988 Fit       0.003210
 1989 Fit       0.000865
 1990 Fit       0.006001
 1991 Fit      -0.001693
 1992 Fit       0.003520
 1993 Fit       0.004419
 1994 Fit       0.002734
 1995 Fit       0.006638
 1996 Fit       0.004982
 1997 Fit       0.006743
 1998 Fit       0.003825
 1999 Fit       0.002856
 2000 Fit       0.001675
 2001 Fit       0.005444
 2002 Fit       0.004756
 2003 Fit      -0.000305
 2004 Fit       0.005857
 2005 Fit       0.004709
 2006 Fit       0.001458
 2007 Fit       0.000252
 2008 Fit       0.004290
 2009 Fit       0.001403
 2010 Fit       0.006175
 2011 Fit       0.008683
 2012 Fit       0.005774
 2013 Fit       0.010409
 2014 Fit       0.008437
 2015 Fit      -0.005327
 2016 Fit      -0.010659
 2017 Fit      -0.009386
 2018 Fit      -0.004042
 2019 Fit       0.002449
 2020 Fit       0.000769
 2021 Fit      -0.006972
 2022 Fit      -0.013480
 2023 Fit      -0.012695
 2024 Fit      -0.011635
 2025 Fit      -0.009328
 2026 Fit      -0.003450
 2027 Fit      -0.008681
 2028 Fit      -0.012788
 2029 Fit      -0.013202
 2030 Fit      -0.012014
 2031 Fit      -0.011636
 2032 Fit      -0.011850
 2033 Fit      -0.011018
 2034 Fit      -0.006757
 2035 Fit      -0.007470
 2036 Fit      -0.012410
 2037 Fit      -0.013935
 2038 Fit      -0.009686
 2039 Fit      -0.008217
 2040 Fit      -0.008133
 2041 Fit      -0.009431
 2042 Fit      -0.010996
 2043 Fit      -0.011098
 2044 Fit      -0.007838
 2045 Fit      -0.003665
 2046 Fit      -0.008854
 2047 Fit      -0.011387
 2048 Fit      -0.011306
 2049 Fit      -0.003323
 2050 Fit      -0.001729
 2051 Fit      -0.002117
 2052 Fit      -0.004218
 2053 Fit      -0.006910
 2054 Fit      -0.008887
 2055 Fit      -0.008887
 2056 Fit      -0.005848
 2057 Fit       0.002653
 2058 Fit      -0.001803
 2059 Fit      -0.005155
 2060 Fit      -0.006484
 2061 Fit      -0.005552
 2062 Fit       0.000846
 2063 Fit      -0.002339
 2064 Fit       0.001935
 2065 Fit       0.007786
 2066 Fit       0.010072
 2067 Fit       0.009524
 2068 Fit       0.004199
 2069 Fit       0.004877
 2070 Fit       0.004469
 2071 Fit       0.002789
 2072 Fit       0.006844
 2073 Fit       0.007283
 2074 Fit       0.007052
 2075 Fit       0.006349
 2076 Fit       0.006072
 2077 Fit       0.008430
 2078 Fit       0.008662
 2079 Fit       0.008379
 2080 Fit       0.008167
 2081 Fit       0.010205
 2082 Fit       0.009381
 2083 Fit       0.006283
 2084 Fit       0.004118
 2085 Fit       0.002683
 2086 Fit       0.010076
 2087 Fit       0.008392
 2088 Fit       0.007030
 2089 Fit       0.006167
 2090 Fit       0.011076
 2091 Fit       0.009935
 2092 Fit       0.008951
 2093 Fit       0.008252
 2094 Fit       0.009882
 2095 Fit       0.006743
 2096 Fit       0.005707
 2097 Fit       0.011507
 2098 Fit       0.006050
 2099 Fit       0.004878
 2100 Fit       0.004527
 2101 Fit       0.008718
 2102 Fit       0.010115
 2103 Fit       0.004642
 2104 Fit       0.004338
 2105 Fit       0.004656
 2106 Fit       0.005394
 2107 Fit       0.006061
 2108 Fit       0.007428
 2109 Fit       0.007286
 2110 Fit       0.006116
 2111 Fit       0.006524
 2112 Fit       0.009314
 2113 Fit       0.005732
 2114 Fit       0.005901
 2115 Fit       0.006304
 2116 Fit       0.007469
 2117 Fit       0.005409
 2118 Fit       0.006016
 2119 Fit      -0.003047
 2120 Fit      -0.001579
 2121 Fit       0.002869
 2122 Fit       0.002283
 2123 Fit       0.002500
 2124 Fit       0.003132
 2125 Fit       0.005185
 2126 Fit       0.004682
 2127 Fit       0.004264
 2128 Fit       0.004293
 2129 Fit       0.004439
 2130 Fit       0.005134
 2131 Fit       0.004738
 2132 Fit       0.004574
 2133 Fit       0.004509
 2134 Fit       0.009632
 2135 Fit       0.008412
 2136 Fit       0.006544
 2137 Fit       0.010254
 2138 Fit       0.009940
 2139 Fit       0.008600
 2140 Fit       0.007534
 2141 Fit       0.006154
 2142 Fit       0.005163
 2143 Fit       0.006428
 2144 Fit       0.007677
 2145 Fit       0.008670
 2146 Fit       0.008957
 2147 Fit       0.007964
 2148 Fit       0.006900
 2149 Fit       0.005936
 2150 Fit       0.005932
 2151 Fit       0.006861
 2152 Fit       0.007943
 2153 Fit       0.007065
 Job cpu time:       0 days  0 hours  4 minutes 27.4 seconds.
 Normal termination of Gaussian 16 at Sat Jul  8 20:57:02 2023.
