 Copyright (c) 1988-2019, Gaussian, Inc.  All Rights Reserved.
  
 This is part of the Gaussian(R) 16 program.  It is based on
 the Gaussian(R) 09 system (copyright 2009, Gaussian, Inc.),
 the Gaussian(R) 03 system (copyright 2003, Gaussian, Inc.),
 the Gaussian(R) 98 system (copyright 1998, Gaussian, Inc.),
 the Gaussian(R) 94 system (copyright 1995, Gaussian, Inc.),
 the Gaussian 92(TM) system (copyright 1992, Gaussian, Inc.),
 the Gaussian 90(TM) system (copyright 1990, Gaussian, Inc.),
 the Gaussian 88(TM) system (copyright 1988, Gaussian, Inc.),
 the Gaussian 86(TM) system (copyright 1986, Carnegie Mellon
 University), and the Gaussian 82(TM) system (copyright 1983,
 Carnegie Mellon University). Gaussian is a federally registered
 trademark of Gaussian, Inc.
 Cite this work as:
 Gaussian 16, Revision C.01,
 M. J. Frisch, G. W. Trucks, H. B. Schlegel, G. E. Scuseria, 
 M. A. Robb, J. R. Cheeseman, G. Scalmani, V. Barone, 
 G. A. Petersson, H. Nakatsuji, X. Li, M. Caricato, A. V. Marenich, 
 J. Bloino, B. G. Janesko, R. Gomperts, B. Mennucci, H. P. Hratchian, 
 J. V. Ortiz, A. F. Izmaylov, J. L. Sonnenberg, D. Williams-Young, 
 F. Ding, F. Lipparini, F. Egidi, J. Goings, B. Peng, A. Petrone, 
 T. Henderson, D. Ranasinghe, V. G. Zakrzewski, J. Gao, N. Rega, 
 G. Zheng, W. Liang, M. Hada, M. Ehara, K. Toyota, R. Fukuda, 
 J. Hasegawa, M. Ishida, T. Nakajima, Y. Honda, O. Kitao, H. Nakai, 
 T. Vreven, K. Throssell, J. A. Montgomery, Jr., J. E. Peralta, 
 F. Ogliaro, M. J. Bearpark, J. J. Heyd, E. N. Brothers, K. N. Kudin, 
 V. N. Staroverov, T. A. Keith, R. Kobayashi, J. Normand, 
 K. Raghavachari, A. P. Rendell, J. C. Burant, S. S. Iyengar, 
 J. Tomasi, M. Cossi, J. M. Millam, M. Klene, C. Adamo, R. Cammi, 
 J. W. Ochterski, R. L. Martin, K. Morokuma, O. Farkas, 
 J. B. Foresman, and D. J. Fox, Gaussian, Inc., Wallingford CT, 2019.
 
 ******************************************
 Gaussian 16:  EM64L-G16RevC.01  3-Jul-2019
                 8-Jul-2023 
 ******************************************
 ----------------------------------------------------------------------
 #P HF/6-31G(d) SCF(Conver=8,XQC,MaxConventionalCycles=64,MaxCycle=128)
  NoSymm Test Pop=mk IOp(6/33=2) GFInput GFPrint
 ----------------------------------------------------------------------
 1/38=1,172=1/1;
 2/12=2,15=1,17=6,18=5,40=1/2;
 3/5=1,6=6,7=1,11=9,24=110,25=1,30=1/1,2,3;
 4//1;
 5/5=2,6=8,7=128,8=3,13=1,38=5,85=64/2,8;
 6/7=2,8=2,9=2,10=2,15=8,20=1,28=1,33=2/1,2;
 99/5=1,9=1/99;
 -------------------------------------------------
 MEP step - Input generated by PyRED DVE-DMDS-OPLS
 -------------------------------------------------
 Symbolic Z-matrix:
 Charge =  0 Multiplicity = 1
 C                    -4.39314  -0.26677  -7.45145 
 H                    -3.67867   0.44797  -7.84382 
 H                    -4.34775  -1.16783  -8.0551 
 H                    -5.3856    0.16015  -7.54054 
 C                    -4.08401  -0.58339  -6.00172 
 H                    -4.79343  -1.31112  -5.61157 
 H                    -3.09119  -1.01979  -5.91571 
 O                    -4.17135   0.60511  -5.26399 
 C                    -3.88885   0.50284  -3.89903 
 H                    -4.17412  -0.47011  -3.50687 
 H                    -4.491     1.24847  -3.39397 
 C                    -2.40915   0.74999  -3.62601 
 H                    -1.80717   0.00447  -4.13013 
 H                    -2.12396   1.7228   -4.01652 
 O                    -2.11906   0.6498   -2.25861 
 C                    -2.2349    1.82855  -1.5138 
 H                    -3.26484   2.18205  -1.49815 
 H                    -1.61749   2.61034  -1.94901 
 C                    -1.78288   1.57243  -0.09069 
 H                    -2.34601   0.7436    0.32963 
 H                    -1.99667   2.45615   0.50082 
 O                    -0.4072    1.34145   0. 
 C                     0.        0.        0. 
 H                    -0.38989  -0.51596  -0.86719 
 H                    -0.36962  -0.50617   0.88862 
 C                     1.51992   0.        0. 
 H                     1.88245   0.48739   0.89596 
 H                     1.8889    0.56813  -0.84374 
 S                     2.24464  -1.6666    0.0083 
 C                     2.08452  -2.17874  -1.73233 
 H                     2.18176  -3.25668  -1.71524 
 H                     1.09008  -1.95632  -2.09427 
 C                     3.13697  -1.55934  -2.64969 
 H                     4.13264  -1.7762   -2.28541 
 H                     3.03556  -0.48197  -2.66728 
 S                     2.98299  -2.07586  -4.38955 
 C                     3.73798  -3.73077  -4.36985 
 H                     3.36891  -4.22274  -5.26016 
 H                     3.35154  -4.28246  -3.52005 
 C                     5.26713  -3.78402  -4.35041 
 H                     5.67471  -3.20112  -3.53344 
 H                     5.56099  -4.81296  -4.17446 
 S                     6.09651  -3.30043  -5.89564 
 C                     6.5162   -1.55005  -5.61272 
 H                     5.60823  -0.97888  -5.48748 
 H                     7.09692  -1.47634  -4.70052 
 C                     7.32352  -1.02081  -6.79462 
 H                     8.24404  -1.57897  -6.92519 
 H                     6.75518  -1.08304  -7.71615 
 H                     7.57988   0.02061  -6.62852 
 
 ITRead=  0  0  0  0  0  0  0  0  0  0  0  0  0  0  0  0  0  0  0  0
 ITRead=  0  0  0  0  0  0  0  0  0  0  0  0  0  0  0  0  0  0  0  0
 ITRead=  0  0  0  0  0  0  0  0  0  0
 MicOpt= -1 -1 -1 -1 -1 -1 -1 -1 -1 -1 -1 -1 -1 -1 -1 -1 -1 -1 -1 -1
 MicOpt= -1 -1 -1 -1 -1 -1 -1 -1 -1 -1 -1 -1 -1 -1 -1 -1 -1 -1 -1 -1
 MicOpt= -1 -1 -1 -1 -1 -1 -1 -1 -1 -1
 NAtoms=     50 NQM=       50 NQMF=       0 NMMI=      0 NMMIF=      0
                NMic=       0 NMicF=      0.
                          Input orientation:                          
 ---------------------------------------------------------------------
 Center     Atomic      Atomic             Coordinates (Angstroms)
 Number     Number       Type             X           Y           Z
 ---------------------------------------------------------------------
      1          6           0       -4.393136   -0.266771   -7.451446
      2          1           0       -3.678667    0.447973   -7.843824
      3          1           0       -4.347748   -1.167830   -8.055096
      4          1           0       -5.385603    0.160146   -7.540544
      5          6           0       -4.084015   -0.583393   -6.001724
      6          1           0       -4.793429   -1.311123   -5.611572
      7          1           0       -3.091189   -1.019789   -5.915711
      8          8           0       -4.171353    0.605107   -5.263990
      9          6           0       -3.888851    0.502836   -3.899030
     10          1           0       -4.174116   -0.470105   -3.506873
     11          1           0       -4.490999    1.248466   -3.393968
     12          6           0       -2.409152    0.749985   -3.626010
     13          1           0       -1.807171    0.004470   -4.130133
     14          1           0       -2.123959    1.722796   -4.016516
     15          8           0       -2.119065    0.649797   -2.258609
     16          6           0       -2.234899    1.828552   -1.513795
     17          1           0       -3.264844    2.182046   -1.498149
     18          1           0       -1.617489    2.610338   -1.949010
     19          6           0       -1.782879    1.572425   -0.090694
     20          1           0       -2.346015    0.743597    0.329630
     21          1           0       -1.996669    2.456153    0.500824
     22          8           0       -0.407196    1.341449    0.000000
     23          6           0        0.000000    0.000000    0.000000
     24          1           0       -0.389888   -0.515955   -0.867187
     25          1           0       -0.369615   -0.506171    0.888620
     26          6           0        1.519919    0.000000    0.000000
     27          1           0        1.882454    0.487386    0.895955
     28          1           0        1.888895    0.568131   -0.843742
     29         16           0        2.244642   -1.666596    0.008296
     30          6           0        2.084517   -2.178736   -1.732328
     31          1           0        2.181762   -3.256676   -1.715240
     32          1           0        1.090080   -1.956323   -2.094268
     33          6           0        3.136971   -1.559343   -2.649687
     34          1           0        4.132643   -1.776202   -2.285409
     35          1           0        3.035556   -0.481966   -2.667279
     36         16           0        2.982989   -2.075855   -4.389552
     37          6           0        3.737977   -3.730765   -4.369847
     38          1           0        3.368914   -4.222738   -5.260155
     39          1           0        3.351543   -4.282460   -3.520045
     40          6           0        5.267127   -3.784023   -4.350409
     41          1           0        5.674715   -3.201121   -3.533436
     42          1           0        5.560985   -4.812955   -4.174461
     43         16           0        6.096514   -3.300432   -5.895636
     44          6           0        6.516204   -1.550045   -5.612722
     45          1           0        5.608226   -0.978876   -5.487483
     46          1           0        7.096921   -1.476341   -4.700520
     47          6           0        7.323517   -1.020808   -6.794622
     48          1           0        8.244044   -1.578972   -6.925187
     49          1           0        6.755180   -1.083042   -7.716153
     50          1           0        7.579880    0.020614   -6.628525
 ---------------------------------------------------------------------
 Stoichiometry    C14H30O3S3
 Framework group  C1[X(C14H30O3S3)]
 Standard basis: 6-31G(d) (6D, 7F)
   372 basis functions,   752 primitive gaussians,   372 cartesian basis functions
    93 alpha electrons       93 beta electrons
 Requested convergence on RMS density matrix=1.00D-08 within  64 cycles.
 Requested convergence on MAX density matrix=1.00D-06.
 Requested convergence on             energy=1.00D-06.
 SCF Done:  E(RHF) =  -1964.69168231     A.U. after   13 cycles
            NFock= 13  Conv=0.39D-08     -V/T= 2.0006
 Mulliken charges:
     1  C   -0.488615
     2  H    0.173862
     3  H    0.158226
     4  H    0.174987
     5  C    0.015753
     6  H    0.142804
     7  H    0.140101
     8  O   -0.631125
     9  C   -0.002193
    10  H    0.152514
    11  H    0.168231
    12  C   -0.005393
    13  H    0.174133
    14  H    0.158105
    15  O   -0.642702
    16  C    0.009450
    17  H    0.136746
    18  H    0.157835
    19  C    0.000071
    20  H    0.156203
    21  H    0.170081
    22  O   -0.638012
    23  C    0.025498
    24  H    0.179595
    25  H    0.153424
    26  C   -0.495247
    27  H    0.211524
    28  H    0.200982
    29  S    0.107185
    30  C   -0.475367
    31  H    0.200479
    32  H    0.214407
    33  C   -0.476549
    34  H    0.204554
    35  H    0.205407
    36  S    0.118413
    37  C   -0.470221
    38  H    0.217875
    39  H    0.191318
    40  C   -0.478261
    41  H    0.194640
    42  H    0.204545
    43  S    0.114722
    44  C   -0.460339
    45  H    0.218673
    46  H    0.179813
    47  C   -0.497538
    48  H    0.177976
    49  H    0.179769
    50  H    0.171661
 Sum of Mulliken charges =  -0.00000
 Dipole moment (field-independent basis, Debye):
    X=             -1.4832    Y=              0.2910    Z=              0.8755  Tot=              1.7467
 Quadrupole moment (field-independent basis, Debye-Ang):
   XX=           -149.4656   YY=           -146.1683   ZZ=           -166.2505
   XY=              7.3251   XZ=              6.0501   YZ=             -1.0924
 Traceless Quadrupole moment (field-independent basis, Debye-Ang):
   XX=              4.4959   YY=              7.7931   ZZ=            -12.2890
   XY=              7.3251   XZ=              6.0501   YZ=             -1.0924
 Octapole moment (field-independent basis, Debye-Ang**2):
  XXX=           -582.7786  YYY=            418.7277  ZZZ=           1637.5783  XYY=           -207.8798
  XXY=            191.1045  XXZ=            558.4227  XZZ=           -276.6270  YZZ=            190.0889
  YYZ=            509.9879  XYZ=            -86.3470
 Hexadecapole moment (field-independent basis, Debye-Ang**3):
 XXXX=         -14297.9562 YYYY=          -3420.5657 ZZZZ=         -16620.2043 XXXY=           3148.0003
 XXXZ=           2830.8385 YYYX=           2570.7435 YYYZ=          -2126.8104 ZZZX=           3326.3608
 ZZZY=          -2522.4993 XXYY=          -3139.7211 XXZZ=          -5530.2570 YYZZ=          -3477.9453
 XXYZ=          -1058.3808 YYXZ=           1072.7196 ZZXY=           1592.8254
 Merz-Kollman atomic radii used.
 Atom Element Radius
    1     6    1.50
    2     1    1.20
    3     1    1.20
    4     1    1.20
    5     6    1.50
    6     1    1.20
    7     1    1.20
    8     8    1.40
    9     6    1.50
   10     1    1.20
   11     1    1.20
   12     6    1.50
   13     1    1.20
   14     1    1.20
   15     8    1.40
   16     6    1.50
   17     1    1.20
   18     1    1.20
   19     6    1.50
   20     1    1.20
   21     1    1.20
   22     8    1.40
   23     6    1.50
   24     1    1.20
   25     1    1.20
   26     6    1.50
   27     1    1.20
   28     1    1.20
   29    16    1.75
   30     6    1.50
   31     1    1.20
   32     1    1.20
   33     6    1.50
   34     1    1.20
   35     1    1.20
   36    16    1.75
   37     6    1.50
   38     1    1.20
   39     1    1.20
   40     6    1.50
   41     1    1.20
   42     1    1.20
   43    16    1.75
   44     6    1.50
   45     1    1.20
   46     1    1.20
   47     6    1.50
   48     1    1.20
   49     1    1.20
   50     1    1.20
 Generate VDW surfaces: Layer= 4 Dens= 1 Start= 1.400 Inc= 0.200
            Electrostatic Properties Using The SCF Density.


       Atomic Center    1 is at  -4.393136 -0.266771 -7.451446
       Atomic Center    2 is at  -3.678667  0.447973 -7.843824
       Atomic Center    3 is at  -4.347748 -1.167830 -8.055096
       Atomic Center    4 is at  -5.385603  0.160146 -7.540544
       Atomic Center    5 is at  -4.084015 -0.583393 -6.001724
       Atomic Center    6 is at  -4.793429 -1.311123 -5.611572
       Atomic Center    7 is at  -3.091189 -1.019789 -5.915711
       Atomic Center    8 is at  -4.171353  0.605107 -5.263990
       Atomic Center    9 is at  -3.888851  0.502836 -3.899030
       Atomic Center   10 is at  -4.174116 -0.470105 -3.506873
       Atomic Center   11 is at  -4.490999  1.248466 -3.393968
       Atomic Center   12 is at  -2.409152  0.749985 -3.626010
       Atomic Center   13 is at  -1.807171  0.004470 -4.130133
       Atomic Center   14 is at  -2.123959  1.722796 -4.016516
       Atomic Center   15 is at  -2.119065  0.649797 -2.258609
       Atomic Center   16 is at  -2.234899  1.828552 -1.513795
       Atomic Center   17 is at  -3.264844  2.182046 -1.498149
       Atomic Center   18 is at  -1.617489  2.610338 -1.949010
       Atomic Center   19 is at  -1.782879  1.572425 -0.090694
       Atomic Center   20 is at  -2.346015  0.743597  0.329630
       Atomic Center   21 is at  -1.996669  2.456153  0.500824
       Atomic Center   22 is at  -0.407196  1.341449  0.000000
       Atomic Center   23 is at   0.000000  0.000000  0.000000
       Atomic Center   24 is at  -0.389888 -0.515955 -0.867187
       Atomic Center   25 is at  -0.369615 -0.506171  0.888620
       Atomic Center   26 is at   1.519919  0.000000  0.000000
       Atomic Center   27 is at   1.882454  0.487386  0.895955
       Atomic Center   28 is at   1.888895  0.568131 -0.843742
       Atomic Center   29 is at   2.244642 -1.666596  0.008296
       Atomic Center   30 is at   2.084517 -2.178736 -1.732328
       Atomic Center   31 is at   2.181762 -3.256676 -1.715240
       Atomic Center   32 is at   1.090080 -1.956323 -2.094268
       Atomic Center   33 is at   3.136971 -1.559343 -2.649687
       Atomic Center   34 is at   4.132643 -1.776202 -2.285409
       Atomic Center   35 is at   3.035556 -0.481966 -2.667279
       Atomic Center   36 is at   2.982989 -2.075855 -4.389552
       Atomic Center   37 is at   3.737977 -3.730765 -4.369847
       Atomic Center   38 is at   3.368914 -4.222738 -5.260155
       Atomic Center   39 is at   3.351543 -4.282460 -3.520045
       Atomic Center   40 is at   5.267127 -3.784023 -4.350409
       Atomic Center   41 is at   5.674715 -3.201121 -3.533436
       Atomic Center   42 is at   5.560985 -4.812955 -4.174461
       Atomic Center   43 is at   6.096514 -3.300432 -5.895636
       Atomic Center   44 is at   6.516204 -1.550045 -5.612722
       Atomic Center   45 is at   5.608226 -0.978876 -5.487483
       Atomic Center   46 is at   7.096921 -1.476341 -4.700520
       Atomic Center   47 is at   7.323517 -1.020808 -6.794622
       Atomic Center   48 is at   8.244044 -1.578972 -6.925187
       Atomic Center   49 is at   6.755180 -1.083042 -7.716153
       Atomic Center   50 is at   7.579880  0.020614 -6.628525
      ESP Fit Center   51 is at  -5.965009 -1.659329 -7.451446
      ESP Fit Center   52 is at  -4.918136  0.642556 -9.270099
      ESP Fit Center   53 is at  -5.443136 -0.266771 -9.270099
      ESP Fit Center   54 is at  -4.393136 -0.266771 -9.551446
      ESP Fit Center   55 is at  -2.080892  0.447973 -7.324675
      ESP Fit Center   56 is at  -2.454700  1.475003 -7.324675
      ESP Fit Center   57 is at  -3.401216  2.021474 -7.324675
      ESP Fit Center   58 is at  -4.477554  1.831687 -7.324675
      ESP Fit Center   59 is at  -2.080892  0.447973 -8.362973
      ESP Fit Center   60 is at  -2.454700  1.475003 -8.362973
      ESP Fit Center   61 is at  -3.401216  2.021474 -8.362973
      ESP Fit Center   62 is at  -4.477554  1.831687 -8.362973
      ESP Fit Center   63 is at  -2.454700 -0.579057 -8.362973
      ESP Fit Center   64 is at  -2.691188  0.447973 -9.202973
      ESP Fit Center   65 is at  -3.373519  1.387122 -9.202973
      ESP Fit Center   66 is at  -4.477554  1.028399 -9.202973
      ESP Fit Center   67 is at  -3.678667  0.447973 -9.523824
      ESP Fit Center   68 is at  -5.146635 -2.551544 -7.535947
      ESP Fit Center   69 is at  -4.070297 -2.741331 -7.535947
      ESP Fit Center   70 is at  -3.123781 -2.194860 -7.535947
      ESP Fit Center   71 is at  -2.749973 -1.167830 -8.574245
      ESP Fit Center   72 is at  -5.849165 -1.714301 -8.574245
      ESP Fit Center   73 is at  -5.146635 -2.551544 -8.574245
      ESP Fit Center   74 is at  -4.070297 -2.741331 -8.574245
      ESP Fit Center   75 is at  -3.123781 -2.194860 -8.574245
      ESP Fit Center   76 is at  -3.360269 -1.167830 -9.414245
      ESP Fit Center   77 is at  -5.146635 -0.587404 -9.414245
      ESP Fit Center   78 is at  -5.146635 -1.748256 -9.414245
      ESP Fit Center   79 is at  -4.042600 -2.106979 -9.414245
      ESP Fit Center   80 is at  -4.347748 -1.167830 -9.735096
      ESP Fit Center   81 is at  -6.184490  0.740572 -6.181395
      ESP Fit Center   82 is at  -6.184490 -0.420280 -6.181395
      ESP Fit Center   83 is at  -5.108152  1.733647 -7.021395
      ESP Fit Center   84 is at  -6.184490  1.543860 -7.021395
      ESP Fit Center   85 is at  -6.887020  0.706617 -7.021395
      ESP Fit Center   86 is at  -6.887020 -0.386325 -7.021395
      ESP Fit Center   87 is at  -5.108152  1.733647 -8.059693
      ESP Fit Center   88 is at  -6.184490  1.543860 -8.059693
      ESP Fit Center   89 is at  -6.887020  0.706617 -8.059693
      ESP Fit Center   90 is at  -6.887020 -0.386325 -8.059693
      ESP Fit Center   91 is at  -6.184490 -1.223568 -8.059693
      ESP Fit Center   92 is at  -5.080455  1.099295 -8.899693
      ESP Fit Center   93 is at  -6.184490  0.740572 -8.899693
      ESP Fit Center   94 is at  -6.184490 -0.420280 -8.899693
      ESP Fit Center   95 is at  -6.122993 -0.080830 -6.001724
      ESP Fit Center   96 is at  -3.830888 -2.668082 -6.001724
      ESP Fit Center   97 is at  -3.328519 -2.237698 -7.051724
      ESP Fit Center   98 is at  -5.592316 -1.891549 -4.252423
      ESP Fit Center   99 is at  -4.488281 -2.250272 -4.252423
      ESP Fit Center  100 is at  -6.294846 -0.764652 -5.092423
      ESP Fit Center  101 is at  -6.294846 -1.857594 -5.092423
      ESP Fit Center  102 is at  -5.592316 -2.694837 -5.092423
      ESP Fit Center  103 is at  -4.515978 -2.884624 -5.092423
      ESP Fit Center  104 is at  -6.294846 -0.764652 -6.130721
      ESP Fit Center  105 is at  -6.294846 -1.857594 -6.130721
      ESP Fit Center  106 is at  -5.592316 -2.694837 -6.130721
      ESP Fit Center  107 is at  -4.515978 -2.884624 -6.130721
      ESP Fit Center  108 is at  -2.786041 -1.958938 -4.556562
      ESP Fit Center  109 is at  -2.813738 -2.593290 -5.396562
      ESP Fit Center  110 is at  -1.867222 -2.046819 -5.396562
      ESP Fit Center  111 is at  -1.493414 -1.019789 -6.434860
      ESP Fit Center  112 is at  -1.867222  0.007241 -6.434860
      ESP Fit Center  113 is at  -2.813738 -2.593290 -6.434860
      ESP Fit Center  114 is at  -1.867222 -2.046819 -6.434860
      ESP Fit Center  115 is at  -2.103710 -1.019789 -7.274860
      ESP Fit Center  116 is at  -2.786041 -1.958938 -7.274860
      ESP Fit Center  117 is at  -3.191353  2.302517 -5.263990
      ESP Fit Center  118 is at  -4.171353  2.565107 -5.263990
      ESP Fit Center  119 is at  -5.151353  2.302517 -5.263990
      ESP Fit Center  120 is at  -5.868763  1.585107 -5.263990
      ESP Fit Center  121 is at  -6.131353  0.605107 -5.263990
      ESP Fit Center  122 is at  -2.798120  1.602819 -6.243990
      ESP Fit Center  123 is at  -3.646825  2.219440 -6.243990
      ESP Fit Center  124 is at  -4.695881  2.219440 -6.243990
      ESP Fit Center  125 is at  -5.544586  1.602819 -6.243990
      ESP Fit Center  126 is at  -5.927829  0.000273 -3.899030
      ESP Fit Center  127 is at  -4.174116 -0.470105 -1.826873
      ESP Fit Center  128 is at  -4.973003 -1.050531 -2.147724
      ESP Fit Center  129 is at  -3.868968 -1.409254 -2.147724
      ESP Fit Center  130 is at  -5.675533 -1.016576 -2.987724
      ESP Fit Center  131 is at  -4.973003 -1.853819 -2.987724
      ESP Fit Center  132 is at  -3.896665 -2.043606 -2.987724
      ESP Fit Center  133 is at  -2.950149 -1.497135 -2.987724
      ESP Fit Center  134 is at  -5.675533 -1.016576 -4.026022
      ESP Fit Center  135 is at  -4.973003 -1.853819 -4.026022
      ESP Fit Center  136 is at  -3.896665 -2.043606 -4.026022
      ESP Fit Center  137 is at  -2.950149 -1.497135 -4.026022
      ESP Fit Center  138 is at  -5.289886  1.828892 -2.034819
      ESP Fit Center  139 is at  -5.289886  0.668040 -2.034819
      ESP Fit Center  140 is at  -4.213548  2.821967 -2.874819
      ESP Fit Center  141 is at  -5.289886  2.632180 -2.874819
      ESP Fit Center  142 is at  -5.992416  1.794937 -2.874819
      ESP Fit Center  143 is at  -5.992416  0.701995 -2.874819
      ESP Fit Center  144 is at  -4.213548  2.821967 -3.913117
      ESP Fit Center  145 is at  -5.289886  2.632180 -3.913117
      ESP Fit Center  146 is at  -5.992416  1.794937 -3.913117
      ESP Fit Center  147 is at  -5.992416  0.701995 -3.913117
      ESP Fit Center  148 is at  -0.309152  0.749985 -3.626010
      ESP Fit Center  149 is at  -0.209396  0.004470 -3.610984
      ESP Fit Center  150 is at  -2.606058 -1.379244 -3.610984
      ESP Fit Center  151 is at  -1.529720 -1.569031 -3.610984
      ESP Fit Center  152 is at  -0.583204 -1.022560 -3.610984
      ESP Fit Center  153 is at  -0.209396  0.004470 -4.649282
      ESP Fit Center  154 is at  -0.583204  1.031500 -4.649282
      ESP Fit Center  155 is at  -1.529720 -1.569031 -4.649282
      ESP Fit Center  156 is at  -0.583204 -1.022560 -4.649282
      ESP Fit Center  157 is at  -0.819692  0.004470 -5.489282
      ESP Fit Center  158 is at  -0.526184  1.722796 -3.497367
      ESP Fit Center  159 is at  -0.899992  2.749826 -3.497367
      ESP Fit Center  160 is at  -1.846508  3.296297 -3.497367
      ESP Fit Center  161 is at  -2.922846  3.106510 -3.497367
      ESP Fit Center  162 is at  -0.526184  1.722796 -4.535665
      ESP Fit Center  163 is at  -0.899992  2.749826 -4.535665
      ESP Fit Center  164 is at  -1.846508  3.296297 -4.535665
      ESP Fit Center  165 is at  -2.922846  3.106510 -4.535665
      ESP Fit Center  166 is at  -1.136480  1.722796 -5.375665
      ESP Fit Center  167 is at  -1.818811  2.661945 -5.375665
      ESP Fit Center  168 is at  -2.922846  2.303222 -5.375665
      ESP Fit Center  169 is at  -2.123959  1.722796 -5.696516
      ESP Fit Center  170 is at  -3.492298 -0.347915 -1.278609
      ESP Fit Center  171 is at  -2.643593 -0.964536 -1.278609
      ESP Fit Center  172 is at  -0.159065  0.649797 -2.258609
      ESP Fit Center  173 is at  -3.099065 -1.047613 -2.258609
      ESP Fit Center  174 is at  -2.119065 -1.310203 -2.258609
      ESP Fit Center  175 is at  -4.063731  2.762472 -0.139000
      ESP Fit Center  176 is at  -4.063731  1.601620 -0.139000
      ESP Fit Center  177 is at  -2.987393  3.755547 -0.979000
      ESP Fit Center  178 is at  -4.063731  3.565760 -0.979000
      ESP Fit Center  179 is at  -4.766261  2.728517 -0.979000
      ESP Fit Center  180 is at  -4.766261  1.635575 -0.979000
      ESP Fit Center  181 is at  -4.063731  0.798332 -0.979000
      ESP Fit Center  182 is at  -2.987393  3.755547 -2.017298
      ESP Fit Center  183 is at  -4.063731  3.565760 -2.017298
      ESP Fit Center  184 is at  -4.766261  2.728517 -2.017298
      ESP Fit Center  185 is at  -0.393522  3.637368 -1.429861
      ESP Fit Center  186 is at  -1.340038  4.183839 -1.429861
      ESP Fit Center  187 is at  -2.416376  3.994052 -1.429861
      ESP Fit Center  188 is at  -0.019714  2.610338 -2.468159
      ESP Fit Center  189 is at  -0.393522  3.637368 -2.468159
      ESP Fit Center  190 is at  -1.340038  4.183839 -2.468159
      ESP Fit Center  191 is at  -2.416376  3.994052 -2.468159
      ESP Fit Center  192 is at  -0.630010  2.610338 -3.308159
      ESP Fit Center  193 is at  -1.312341  3.549487 -3.308159
      ESP Fit Center  194 is at  -1.782879  1.572425  2.009306
      ESP Fit Center  195 is at  -2.832879  1.572425  1.727959
      ESP Fit Center  196 is at  -1.257879  0.663098  1.727959
      ESP Fit Center  197 is at  -0.589943  3.300691 -0.090694
      ESP Fit Center  198 is at  -2.346015  0.743597  2.009630
      ESP Fit Center  199 is at  -3.144902  1.324023  1.688779
      ESP Fit Center  200 is at  -3.144902  0.163171  1.688779
      ESP Fit Center  201 is at  -2.040867 -0.195552  1.688779
      ESP Fit Center  202 is at  -3.847432  1.290068  0.848779
      ESP Fit Center  203 is at  -3.847432  0.197126  0.848779
      ESP Fit Center  204 is at  -3.144902 -0.640117  0.848779
      ESP Fit Center  205 is at  -2.068564 -0.829904  0.848779
      ESP Fit Center  206 is at  -3.847432  0.197126 -0.189519
      ESP Fit Center  207 is at  -3.144902 -0.640117 -0.189519
      ESP Fit Center  208 is at  -2.068564 -0.829904 -0.189519
      ESP Fit Center  209 is at  -1.996669  2.456153  2.180824
      ESP Fit Center  210 is at  -1.009190  2.456153  1.859973
      ESP Fit Center  211 is at  -1.691521  3.395302  1.859973
      ESP Fit Center  212 is at  -2.795556  3.036579  1.859973
      ESP Fit Center  213 is at  -2.795556  1.875727  1.859973
      ESP Fit Center  214 is at  -0.772702  3.483183  1.019973
      ESP Fit Center  215 is at  -1.719218  4.029654  1.019973
      ESP Fit Center  216 is at  -2.795556  3.839867  1.019973
      ESP Fit Center  217 is at  -3.498086  3.002624  1.019973
      ESP Fit Center  218 is at  -0.772702  3.483183 -0.018325
      ESP Fit Center  219 is at  -1.719218  4.029654 -0.018325
      ESP Fit Center  220 is at  -2.795556  3.839867 -0.018325
      ESP Fit Center  221 is at  -3.498086  3.002624 -0.018325
      ESP Fit Center  222 is at  -0.407196  1.341449  1.960000
      ESP Fit Center  223 is at   0.572804  1.341449  1.697410
      ESP Fit Center  224 is at   0.082804  2.190154  1.697410
      ESP Fit Center  225 is at   0.966037  2.339161  0.980000
      ESP Fit Center  226 is at   0.117332  2.955782  0.980000
      ESP Fit Center  227 is at   1.290214  2.321449  0.000000
      ESP Fit Center  228 is at   0.572804  3.038859  0.000000
      ESP Fit Center  229 is at  -0.407196  3.301449  0.000000
      ESP Fit Center  230 is at   0.966037  2.339161 -0.980000
      ESP Fit Center  231 is at   0.117332  2.955782 -0.980000
      ESP Fit Center  232 is at   0.572804  1.341449 -1.697410
      ESP Fit Center  233 is at   0.082804  2.190154 -1.697410
      ESP Fit Center  234 is at   0.525000  0.909327  1.818653
      ESP Fit Center  235 is at  -1.571873 -1.392558  0.000000
      ESP Fit Center  236 is at  -0.744670 -1.963534  0.000000
      ESP Fit Center  237 is at   0.525000  0.909327 -1.818653
      ESP Fit Center  238 is at  -1.891305 -1.062426 -0.348038
      ESP Fit Center  239 is at  -1.188775 -1.899669 -0.348038
      ESP Fit Center  240 is at  -1.188775 -1.899669 -1.386336
      ESP Fit Center  241 is at  -0.084740  0.423194 -2.226336
      ESP Fit Center  242 is at  -1.188775 -1.096381 -2.226336
      ESP Fit Center  243 is at  -0.389888 -0.515955 -2.547187
      ESP Fit Center  244 is at  -0.369615 -0.506171  2.568620
      ESP Fit Center  245 is at   0.617864 -0.506171  2.247769
      ESP Fit Center  246 is at  -0.064467  0.432978  2.247769
      ESP Fit Center  247 is at  -1.168502  0.074255  2.247769
      ESP Fit Center  248 is at  -1.168502 -1.086597  2.247769
      ESP Fit Center  249 is at  -0.064467 -1.445320  2.247769
      ESP Fit Center  250 is at  -1.871032 -1.052642  1.407769
      ESP Fit Center  251 is at  -1.168502 -1.889885  1.407769
      ESP Fit Center  252 is at  -0.092164 -2.079672  1.407769
      ESP Fit Center  253 is at  -1.871032 -1.052642  0.369471
      ESP Fit Center  254 is at  -1.168502 -1.889885  0.369471
      ESP Fit Center  255 is at   3.379377  0.975919  0.000000
      ESP Fit Center  256 is at   1.773046  2.084689  0.000000
      ESP Fit Center  257 is at   1.882454  0.487386  2.575955
      ESP Fit Center  258 is at   2.869933  0.487386  2.255104
      ESP Fit Center  259 is at   2.187602  1.426535  2.255104
      ESP Fit Center  260 is at   1.083567  1.067812  2.255104
      ESP Fit Center  261 is at   1.083567 -0.093040  2.255104
      ESP Fit Center  262 is at   2.187602 -0.451763  2.255104
      ESP Fit Center  263 is at   3.480229  0.487386  1.415104
      ESP Fit Center  264 is at   3.106421  1.514416  1.415104
      ESP Fit Center  265 is at   2.159905  2.060887  1.415104
      ESP Fit Center  266 is at   1.083567  1.871100  1.415104
      ESP Fit Center  267 is at   3.106421  1.514416  0.376806
      ESP Fit Center  268 is at   2.159905  2.060887  0.376806
      ESP Fit Center  269 is at   3.112862  1.595161 -0.324593
      ESP Fit Center  270 is at   2.166346  2.141632 -0.324593
      ESP Fit Center  271 is at   3.486670  0.568131 -1.362891
      ESP Fit Center  272 is at   3.112862  1.595161 -1.362891
      ESP Fit Center  273 is at   2.166346  2.141632 -1.362891
      ESP Fit Center  274 is at   1.090008  1.951845 -1.362891
      ESP Fit Center  275 is at   2.194043  1.507280 -2.202891
      ESP Fit Center  276 is at   1.090008  1.148557 -2.202891
      ESP Fit Center  277 is at   1.090008 -0.012295 -2.202891
      ESP Fit Center  278 is at   2.244642 -1.666596  2.458296
      ESP Fit Center  279 is at   3.307657 -1.666596  2.215670
      ESP Fit Center  280 is at   2.776150 -0.745998  2.215670
      ESP Fit Center  281 is at   1.713134 -0.745998  2.215670
      ESP Fit Center  282 is at   1.181627 -1.666596  2.215670
      ESP Fit Center  283 is at   1.713134 -2.587194  2.215670
      ESP Fit Center  284 is at   2.776150 -2.587194  2.215670
      ESP Fit Center  285 is at   4.160129 -1.666596  1.535846
      ESP Fit Center  286 is at   3.856052 -0.631005  1.535846
      ESP Fit Center  287 is at   0.406746 -2.206251  1.535846
      ESP Fit Center  288 is at   0.990265 -3.114225  1.535846
      ESP Fit Center  289 is at   1.972040 -3.562586  1.535846
      ESP Fit Center  290 is at   3.040364 -3.408984  1.535846
      ESP Fit Center  291 is at   3.856052 -2.702187  1.535846
      ESP Fit Center  292 is at   4.633215 -1.666596  0.553472
      ESP Fit Center  293 is at   4.396672 -0.630233  0.553472
      ESP Fit Center  294 is at   3.733893  0.200866  0.553472
      ESP Fit Center  295 is at   0.092612 -2.702959  0.553472
      ESP Fit Center  296 is at   0.755391 -3.534058  0.553472
      ESP Fit Center  297 is at   1.713134 -3.995283  0.553472
      ESP Fit Center  298 is at   2.776150 -3.995283  0.553472
      ESP Fit Center  299 is at   3.733893 -3.534058  0.553472
      ESP Fit Center  300 is at   4.396672 -2.702959  0.553472
      ESP Fit Center  301 is at   4.633215 -1.666596 -0.536880
      ESP Fit Center  302 is at   4.396672 -0.630233 -0.536880
      ESP Fit Center  303 is at   3.733893  0.200866 -0.536880
      ESP Fit Center  304 is at   0.092612 -2.702959 -0.536880
      ESP Fit Center  305 is at   0.755391 -3.534058 -0.536880
      ESP Fit Center  306 is at   3.733893 -3.534058 -0.536880
      ESP Fit Center  307 is at   4.396672 -2.702959 -0.536880
      ESP Fit Center  308 is at   0.512644 -3.571294 -1.732328
      ESP Fit Center  309 is at   0.893552 -3.553182 -2.782328
      ESP Fit Center  310 is at   2.486910 -4.195825 -0.356091
      ESP Fit Center  311 is at   0.680345 -3.803147 -1.196091
      ESP Fit Center  312 is at   1.382875 -4.640390 -1.196091
      ESP Fit Center  313 is at   2.459213 -4.830177 -1.196091
      ESP Fit Center  314 is at   3.405729 -4.283706 -1.196091
      ESP Fit Center  315 is at   0.680345 -3.803147 -2.234389
      ESP Fit Center  316 is at   1.382875 -4.640390 -2.234389
      ESP Fit Center  317 is at   1.382875 -3.837102 -3.074389
      ESP Fit Center  318 is at  -0.411337 -2.502794 -1.575119
      ESP Fit Center  319 is at   0.291193 -3.340037 -1.575119
      ESP Fit Center  320 is at   0.291193 -0.572609 -2.613417
      ESP Fit Center  321 is at  -0.411337 -1.409852 -2.613417
      ESP Fit Center  322 is at  -0.411337 -2.502794 -2.613417
      ESP Fit Center  323 is at   0.291193 -3.340037 -2.613417
      ESP Fit Center  324 is at   0.291193 -1.375897 -3.453417
      ESP Fit Center  325 is at   0.291193 -2.536749 -3.453417
      ESP Fit Center  326 is at   5.120122 -1.776202 -0.926260
      ESP Fit Center  327 is at   4.437791 -0.837053 -0.926260
      ESP Fit Center  328 is at   4.437791 -2.715351 -0.926260
      ESP Fit Center  329 is at   5.730418 -1.776202 -1.766260
      ESP Fit Center  330 is at   5.356610 -0.749172 -1.766260
      ESP Fit Center  331 is at   4.410094 -3.349703 -1.766260
      ESP Fit Center  332 is at   5.356610 -2.803232 -1.766260
      ESP Fit Center  333 is at   5.356610 -0.749172 -2.804558
      ESP Fit Center  334 is at   4.259523  0.545064 -2.148130
      ESP Fit Center  335 is at   3.313007  1.091535 -2.148130
      ESP Fit Center  336 is at   4.259523  0.545064 -3.186428
      ESP Fit Center  337 is at   3.313007  1.091535 -3.186428
      ESP Fit Center  338 is at   2.236669  0.901748 -3.186428
      ESP Fit Center  339 is at   1.534139  0.064505 -3.186428
      ESP Fit Center  340 is at   3.340704  0.457183 -4.026428
      ESP Fit Center  341 is at   5.135019 -1.039492 -3.844376
      ESP Fit Center  342 is at   4.472240 -0.208393 -3.844376
      ESP Fit Center  343 is at   1.493738 -0.208393 -3.844376
      ESP Fit Center  344 is at   0.830959 -1.039492 -3.844376
      ESP Fit Center  345 is at   0.594416 -2.075855 -3.844376
      ESP Fit Center  346 is at   0.830959 -3.112218 -3.844376
      ESP Fit Center  347 is at   1.493738 -3.943317 -3.844376
      ESP Fit Center  348 is at   3.514497  0.252832 -4.934728
      ESP Fit Center  349 is at   2.451481  0.252832 -4.934728
      ESP Fit Center  350 is at   1.493738 -0.208393 -4.934728
      ESP Fit Center  351 is at   0.830959 -1.039492 -4.934728
      ESP Fit Center  352 is at   0.594416 -2.075855 -4.934728
      ESP Fit Center  353 is at   0.830959 -3.112218 -4.934728
      ESP Fit Center  354 is at   1.493738 -3.943317 -4.934728
      ESP Fit Center  355 is at   3.778711 -0.333467 -5.917102
      ESP Fit Center  356 is at   2.710387 -0.179865 -5.917102
      ESP Fit Center  357 is at   1.728612 -0.628226 -5.917102
      ESP Fit Center  358 is at   1.145093 -1.536200 -5.917102
      ESP Fit Center  359 is at   1.145093 -2.615510 -5.917102
      ESP Fit Center  360 is at   1.728612 -3.523484 -5.917102
      ESP Fit Center  361 is at   4.046004 -2.075855 -6.596926
      ESP Fit Center  362 is at   3.514497 -1.155257 -6.596926
      ESP Fit Center  363 is at   2.451481 -1.155257 -6.596926
      ESP Fit Center  364 is at   1.919974 -2.075855 -6.596926
      ESP Fit Center  365 is at   2.451481 -2.996453 -6.596926
      ESP Fit Center  366 is at   3.514497 -2.996453 -6.596926
      ESP Fit Center  367 is at   2.982989 -2.075855 -6.839552
      ESP Fit Center  368 is at   1.698999 -4.233328 -4.369847
      ESP Fit Center  369 is at   2.166104 -5.123323 -4.369847
      ESP Fit Center  370 is at   2.993307 -5.694299 -4.369847
      ESP Fit Center  371 is at   3.991104 -5.815454 -4.369847
      ESP Fit Center  372 is at   1.867497 -4.769209 -4.741006
      ESP Fit Center  373 is at   2.570027 -5.606452 -4.741006
      ESP Fit Center  374 is at   3.646365 -5.796239 -4.741006
      ESP Fit Center  375 is at   1.867497 -4.769209 -5.779304
      ESP Fit Center  376 is at   2.570027 -5.606452 -5.779304
      ESP Fit Center  377 is at   3.646365 -5.796239 -5.779304
      ESP Fit Center  378 is at   4.592881 -5.249768 -5.779304
      ESP Fit Center  379 is at   3.674062 -3.283589 -6.619304
      ESP Fit Center  380 is at   2.570027 -3.642312 -6.619304
      ESP Fit Center  381 is at   2.570027 -4.803164 -6.619304
      ESP Fit Center  382 is at   3.674062 -5.161887 -6.619304
      ESP Fit Center  383 is at   3.368914 -4.222738 -6.940155
      ESP Fit Center  384 is at   4.339022 -4.282460 -2.160896
      ESP Fit Center  385 is at   2.552656 -4.862886 -2.160896
      ESP Fit Center  386 is at   3.656691 -5.221609 -2.160896
      ESP Fit Center  387 is at   1.850126 -4.828931 -3.000896
      ESP Fit Center  388 is at   2.552656 -5.666174 -3.000896
      ESP Fit Center  389 is at   3.628994 -5.855961 -3.000896
      ESP Fit Center  390 is at   1.850126 -4.828931 -4.039194
      ESP Fit Center  391 is at   2.552656 -5.666174 -4.039194
      ESP Fit Center  392 is at   3.628994 -5.855961 -4.039194
      ESP Fit Center  393 is at   4.742127 -4.693350 -2.531756
      ESP Fit Center  394 is at   5.674715 -3.201121 -1.853436
      ESP Fit Center  395 is at   6.662194 -3.201121 -2.174287
      ESP Fit Center  396 is at   5.979863 -2.261972 -2.174287
      ESP Fit Center  397 is at   4.875828 -3.781547 -2.174287
      ESP Fit Center  398 is at   5.979863 -4.140270 -2.174287
      ESP Fit Center  399 is at   7.272490 -3.201121 -3.014287
      ESP Fit Center  400 is at   6.898682 -2.174091 -3.014287
      ESP Fit Center  401 is at   5.952166 -1.627620 -3.014287
      ESP Fit Center  402 is at   6.898682 -4.228151 -3.014287
      ESP Fit Center  403 is at   5.560985 -4.812955 -2.494461
      ESP Fit Center  404 is at   6.548464 -4.812955 -2.815312
      ESP Fit Center  405 is at   4.762098 -5.393381 -2.815312
      ESP Fit Center  406 is at   5.866133 -5.752104 -2.815312
      ESP Fit Center  407 is at   7.158760 -4.812955 -3.655312
      ESP Fit Center  408 is at   4.762098 -6.196669 -3.655312
      ESP Fit Center  409 is at   5.838436 -6.386456 -3.655312
      ESP Fit Center  410 is at   6.784952 -5.839985 -3.655312
      ESP Fit Center  411 is at   4.762098 -6.196669 -4.693610
      ESP Fit Center  412 is at   5.838436 -6.386456 -4.693610
      ESP Fit Center  413 is at   6.784952 -5.839985 -4.693610
      ESP Fit Center  414 is at   5.866133 -5.752104 -5.533610
      ESP Fit Center  415 is at   8.012001 -3.300432 -4.368086
      ESP Fit Center  416 is at   7.707924 -4.336023 -4.368086
      ESP Fit Center  417 is at   8.485087 -3.300432 -5.350460
      ESP Fit Center  418 is at   6.628022 -5.629119 -5.350460
      ESP Fit Center  419 is at   7.585765 -5.167894 -5.350460
      ESP Fit Center  420 is at   8.248544 -4.336795 -5.350460
      ESP Fit Center  421 is at   8.485087 -3.300432 -6.440812
      ESP Fit Center  422 is at   4.607263 -5.167894 -6.440812
      ESP Fit Center  423 is at   5.565006 -5.629119 -6.440812
      ESP Fit Center  424 is at   6.628022 -5.629119 -6.440812
      ESP Fit Center  425 is at   7.585765 -5.167894 -6.440812
      ESP Fit Center  426 is at   8.248544 -4.336795 -6.440812
      ESP Fit Center  427 is at   8.012001 -3.300432 -7.423186
      ESP Fit Center  428 is at   4.842137 -1.852803 -7.423186
      ESP Fit Center  429 is at   4.258618 -2.760777 -7.423186
      ESP Fit Center  430 is at   4.258618 -3.840087 -7.423186
      ESP Fit Center  431 is at   4.842137 -4.748061 -7.423186
      ESP Fit Center  432 is at   5.823912 -5.196422 -7.423186
      ESP Fit Center  433 is at   6.892236 -5.042820 -7.423186
      ESP Fit Center  434 is at   7.707924 -4.336023 -7.423186
      ESP Fit Center  435 is at   7.159529 -3.300432 -8.103010
      ESP Fit Center  436 is at   5.565006 -2.379834 -8.103010
      ESP Fit Center  437 is at   5.033499 -3.300432 -8.103010
      ESP Fit Center  438 is at   5.565006 -4.221030 -8.103010
      ESP Fit Center  439 is at   6.628022 -4.221030 -8.103010
      ESP Fit Center  440 is at   6.096514 -3.300432 -8.345636
      ESP Fit Center  441 is at   5.466204 -1.550045 -3.794069
      ESP Fit Center  442 is at   5.913374 -0.039727 -4.128334
      ESP Fit Center  443 is at   4.809339 -0.398450 -4.128334
      ESP Fit Center  444 is at   5.885677  0.594625 -4.968334
      ESP Fit Center  445 is at   4.809339  0.404838 -4.968334
      ESP Fit Center  446 is at   5.885677  0.594625 -6.006632
      ESP Fit Center  447 is at   4.809339  0.404838 -6.006632
      ESP Fit Center  448 is at   4.106809 -0.432405 -6.006632
      ESP Fit Center  449 is at   4.809339 -0.398450 -6.846632
      ESP Fit Center  450 is at   7.096921 -1.476341 -3.020520
      ESP Fit Center  451 is at   8.084400 -1.476341 -3.341371
      ESP Fit Center  452 is at   7.402069 -0.537192 -3.341371
      ESP Fit Center  453 is at   6.298034 -0.895915 -3.341371
      ESP Fit Center  454 is at   7.402069 -2.415490 -3.341371
      ESP Fit Center  455 is at   8.694696 -1.476341 -4.181371
      ESP Fit Center  456 is at   8.320888 -0.449311 -4.181371
      ESP Fit Center  457 is at   7.374372  0.097160 -4.181371
      ESP Fit Center  458 is at   8.320888 -2.503371 -4.181371
      ESP Fit Center  459 is at   8.694696 -1.476341 -5.219669
      ESP Fit Center  460 is at   5.751644  0.371750 -6.794622
      ESP Fit Center  461 is at   8.853466 -0.037570 -7.844622
      ESP Fit Center  462 is at   8.373517 -1.020808 -8.613275
      ESP Fit Center  463 is at   7.848517 -0.111481 -8.613275
      ESP Fit Center  464 is at   9.231523 -1.578972 -5.566038
      ESP Fit Center  465 is at   8.549192 -2.518121 -5.566038
      ESP Fit Center  466 is at   9.841819 -1.578972 -6.406038
      ESP Fit Center  467 is at   9.468011 -0.551942 -6.406038
      ESP Fit Center  468 is at   8.521495 -3.152473 -6.406038
      ESP Fit Center  469 is at   9.468011 -2.606002 -6.406038
      ESP Fit Center  470 is at   9.841819 -1.578972 -7.444336
      ESP Fit Center  471 is at   9.468011 -0.551942 -7.444336
      ESP Fit Center  472 is at   8.521495 -3.152473 -7.444336
      ESP Fit Center  473 is at   9.468011 -2.606002 -7.444336
      ESP Fit Center  474 is at   9.231523 -1.578972 -8.284336
      ESP Fit Center  475 is at   8.549192 -2.518121 -8.284336
      ESP Fit Center  476 is at   8.244044 -1.578972 -8.605187
      ESP Fit Center  477 is at   5.253763 -0.536571 -7.197004
      ESP Fit Center  478 is at   7.032631  0.490459 -8.235302
      ESP Fit Center  479 is at   5.956293  0.300672 -8.235302
      ESP Fit Center  480 is at   5.253763 -0.536571 -8.235302
      ESP Fit Center  481 is at   5.253763 -1.629513 -8.235302
      ESP Fit Center  482 is at   5.956293 -2.466756 -8.235302
      ESP Fit Center  483 is at   7.032631 -2.656543 -8.235302
      ESP Fit Center  484 is at   7.742659 -1.083042 -9.075302
      ESP Fit Center  485 is at   7.060328 -0.143893 -9.075302
      ESP Fit Center  486 is at   5.956293 -0.502616 -9.075302
      ESP Fit Center  487 is at   5.956293 -1.663468 -9.075302
      ESP Fit Center  488 is at   7.060328 -2.022191 -9.075302
      ESP Fit Center  489 is at   6.755180 -1.083042 -9.396153
      ESP Fit Center  490 is at   8.567359  0.020614 -5.269376
      ESP Fit Center  491 is at   7.885028  0.959763 -5.269376
      ESP Fit Center  492 is at   6.780993  0.601040 -5.269376
      ESP Fit Center  493 is at   9.177655  0.020614 -6.109376
      ESP Fit Center  494 is at   8.803847  1.047644 -6.109376
      ESP Fit Center  495 is at   7.857331  1.594115 -6.109376
      ESP Fit Center  496 is at   6.780993  1.404328 -6.109376
      ESP Fit Center  497 is at   6.078463  0.567085 -6.109376
      ESP Fit Center  498 is at   9.177655  0.020614 -7.147674
      ESP Fit Center  499 is at   8.803847  1.047644 -7.147674
      ESP Fit Center  500 is at   7.857331  1.594115 -7.147674
      ESP Fit Center  501 is at   6.780993  1.404328 -7.147674
      ESP Fit Center  502 is at   7.885028  0.959763 -7.987674
      ESP Fit Center  503 is at  -4.913796  2.014392 -6.917396
      ESP Fit Center  504 is at  -6.501247 -1.281984 -6.917396
      ESP Fit Center  505 is at  -4.913796  2.014392 -7.985496
      ESP Fit Center  506 is at  -2.285025 -1.281984 -7.985496
      ESP Fit Center  507 is at  -3.351815 -0.266771 -9.613771
      ESP Fit Center  508 is at  -4.913796  0.635039 -9.613771
      ESP Fit Center  509 is at  -5.434457 -0.266771 -9.613771
      ESP Fit Center  510 is at  -4.393136 -0.266771 -9.851446
      ESP Fit Center  511 is at  -2.015898  0.447973 -6.883824
      ESP Fit Center  512 is at  -2.333459  1.425324 -6.883824
      ESP Fit Center  513 is at  -3.164843  2.029360 -6.883824
      ESP Fit Center  514 is at  -1.758667  0.447973 -7.843824
      ESP Fit Center  515 is at  -2.015898  1.407973 -7.843824
      ESP Fit Center  516 is at  -2.718667  2.110742 -7.843824
      ESP Fit Center  517 is at  -3.678667  2.367973 -7.843824
      ESP Fit Center  518 is at  -4.638667  2.110742 -7.843824
      ESP Fit Center  519 is at  -2.015898 -0.512027 -7.843824
      ESP Fit Center  520 is at  -2.015898  0.447973 -8.803824
      ESP Fit Center  521 is at  -2.333459  1.425324 -8.803824
      ESP Fit Center  522 is at  -3.164843  2.029360 -8.803824
      ESP Fit Center  523 is at  -4.192491  2.029360 -8.803824
      ESP Fit Center  524 is at  -2.333459 -0.529378 -8.803824
      ESP Fit Center  525 is at  -2.718667  0.447973 -9.506593
      ESP Fit Center  526 is at  -3.198667  1.279357 -9.506593
      ESP Fit Center  527 is at  -4.158667  1.279357 -9.506593
      ESP Fit Center  528 is at  -3.678667  0.447973 -9.763824
      ESP Fit Center  529 is at  -4.861572 -2.749217 -7.095096
      ESP Fit Center  530 is at  -3.833924 -2.749217 -7.095096
      ESP Fit Center  531 is at  -6.010517 -2.127830 -8.055096
      ESP Fit Center  532 is at  -5.307748 -2.830599 -8.055096
      ESP Fit Center  533 is at  -4.347748 -3.087830 -8.055096
      ESP Fit Center  534 is at  -3.387748 -2.830599 -8.055096
      ESP Fit Center  535 is at  -2.684979 -2.127830 -8.055096
      ESP Fit Center  536 is at  -2.684979 -1.167830 -9.015096
      ESP Fit Center  537 is at  -6.010517 -1.167830 -9.015096
      ESP Fit Center  538 is at  -5.692956 -2.145181 -9.015096
      ESP Fit Center  539 is at  -4.861572 -2.749217 -9.015096
      ESP Fit Center  540 is at  -3.833924 -2.749217 -9.015096
      ESP Fit Center  541 is at  -3.002540 -2.145181 -9.015096
      ESP Fit Center  542 is at  -3.387748 -1.167830 -9.717865
      ESP Fit Center  543 is at  -5.307748 -1.167830 -9.717865
      ESP Fit Center  544 is at  -4.827748 -1.999214 -9.717865
      ESP Fit Center  545 is at  -3.867748 -1.999214 -9.717865
      ESP Fit Center  546 is at  -4.347748 -1.167830 -9.975096
      ESP Fit Center  547 is at  -5.899427  1.741533 -6.580544
      ESP Fit Center  548 is at  -6.730811  1.137497 -6.580544
      ESP Fit Center  549 is at  -7.048372  0.160146 -6.580544
      ESP Fit Center  550 is at  -6.730811 -0.817205 -6.580544
      ESP Fit Center  551 is at  -5.385603  2.080146 -7.540544
      ESP Fit Center  552 is at  -6.345603  1.822915 -7.540544
      ESP Fit Center  553 is at  -7.048372  1.120146 -7.540544
      ESP Fit Center  554 is at  -7.305603  0.160146 -7.540544
      ESP Fit Center  555 is at  -7.048372 -0.799854 -7.540544
      ESP Fit Center  556 is at  -5.899427  1.741533 -8.500544
      ESP Fit Center  557 is at  -6.730811  1.137497 -8.500544
      ESP Fit Center  558 is at  -7.048372  0.160146 -8.500544
      ESP Fit Center  559 is at  -6.730811 -0.817205 -8.500544
      ESP Fit Center  560 is at  -5.865603  0.991530 -9.203313
      ESP Fit Center  561 is at  -6.345603  0.160146 -9.203313
      ESP Fit Center  562 is at  -3.563355 -2.864556 -5.467674
      ESP Fit Center  563 is at  -1.975904  0.431820 -6.535774
      ESP Fit Center  564 is at  -3.563355 -2.864556 -6.535774
      ESP Fit Center  565 is at  -5.273429 -2.142507 -3.948803
      ESP Fit Center  566 is at  -6.138637 -0.333772 -4.651572
      ESP Fit Center  567 is at  -6.456198 -1.311123 -4.651572
      ESP Fit Center  568 is at  -6.138637 -2.288474 -4.651572
      ESP Fit Center  569 is at  -5.307253 -2.892510 -4.651572
      ESP Fit Center  570 is at  -4.279605 -2.892510 -4.651572
      ESP Fit Center  571 is at  -6.456198 -0.351123 -5.611572
      ESP Fit Center  572 is at  -6.713429 -1.311123 -5.611572
      ESP Fit Center  573 is at  -6.456198 -2.271123 -5.611572
      ESP Fit Center  574 is at  -5.753429 -2.973892 -5.611572
      ESP Fit Center  575 is at  -4.793429 -3.231123 -5.611572
      ESP Fit Center  576 is at  -3.833429 -2.973892 -5.611572
      ESP Fit Center  577 is at  -6.456198 -1.311123 -6.571572
      ESP Fit Center  578 is at  -6.138637 -2.288474 -6.571572
      ESP Fit Center  579 is at  -5.307253 -2.892510 -6.571572
      ESP Fit Center  580 is at  -2.611189 -1.851173 -4.252942
      ESP Fit Center  581 is at  -2.577365 -2.601176 -4.955711
      ESP Fit Center  582 is at  -1.745981 -1.997140 -4.955711
      ESP Fit Center  583 is at  -1.171189 -1.019789 -5.915711
      ESP Fit Center  584 is at  -3.091189 -2.939789 -5.915711
      ESP Fit Center  585 is at  -2.131189 -2.682558 -5.915711
      ESP Fit Center  586 is at  -1.428420 -1.979789 -5.915711
      ESP Fit Center  587 is at  -1.428420 -1.019789 -6.875711
      ESP Fit Center  588 is at  -1.745981 -0.042438 -6.875711
      ESP Fit Center  589 is at  -2.577365 -2.601176 -6.875711
      ESP Fit Center  590 is at  -1.745981 -1.997140 -6.875711
      ESP Fit Center  591 is at  -3.908120  2.773023 -4.765543
      ESP Fit Center  592 is at  -4.945753  2.647031 -4.765543
      ESP Fit Center  593 is at  -5.805980  2.053260 -4.765543
      ESP Fit Center  594 is at  -6.291733  1.127734 -4.765543
      ESP Fit Center  595 is at  -6.291733  0.082480 -4.765543
      ESP Fit Center  596 is at  -2.930791  2.402371 -5.762437
      ESP Fit Center  597 is at  -3.908120  2.773023 -5.762437
      ESP Fit Center  598 is at  -4.945753  2.647031 -5.762437
      ESP Fit Center  599 is at  -5.805980  2.053260 -5.762437
      ESP Fit Center  600 is at  -6.291733  1.127734 -5.762437
      ESP Fit Center  601 is at  -3.630171  2.270695 -6.660607
      ESP Fit Center  602 is at  -4.712535  2.270695 -6.660607
      ESP Fit Center  603 is at  -5.689239 -0.025806 -2.402654
      ESP Fit Center  604 is at  -4.174116 -0.470105 -1.586873
      ESP Fit Center  605 is at  -5.134116 -0.470105 -1.844104
      ESP Fit Center  606 is at  -4.654116 -1.301489 -1.844104
      ESP Fit Center  607 is at  -3.694116 -1.301489 -1.844104
      ESP Fit Center  608 is at  -5.836885 -0.470105 -2.546873
      ESP Fit Center  609 is at  -5.519324 -1.447456 -2.546873
      ESP Fit Center  610 is at  -4.687940 -2.051492 -2.546873
      ESP Fit Center  611 is at  -3.660292 -2.051492 -2.546873
      ESP Fit Center  612 is at  -6.094116 -0.470105 -3.506873
      ESP Fit Center  613 is at  -5.836885 -1.430105 -3.506873
      ESP Fit Center  614 is at  -5.134116 -2.132874 -3.506873
      ESP Fit Center  615 is at  -4.174116 -2.390105 -3.506873
      ESP Fit Center  616 is at  -3.214116 -2.132874 -3.506873
      ESP Fit Center  617 is at  -5.450999  1.248466 -1.731199
      ESP Fit Center  618 is at  -4.970999  0.417082 -1.731199
      ESP Fit Center  619 is at  -5.004823  2.829853 -2.433968
      ESP Fit Center  620 is at  -5.836207  2.225817 -2.433968
      ESP Fit Center  621 is at  -6.153768  1.248466 -2.433968
      ESP Fit Center  622 is at  -5.836207  0.271115 -2.433968
      ESP Fit Center  623 is at  -3.530999  2.911235 -3.393968
      ESP Fit Center  624 is at  -4.490999  3.168466 -3.393968
      ESP Fit Center  625 is at  -5.450999  2.911235 -3.393968
      ESP Fit Center  626 is at  -6.153768  2.208466 -3.393968
      ESP Fit Center  627 is at  -6.410999  1.248466 -3.393968
      ESP Fit Center  628 is at  -5.004823  2.829853 -4.353968
      ESP Fit Center  629 is at  -5.836207  2.225817 -4.353968
      ESP Fit Center  630 is at  -6.153768  1.248466 -4.353968
      ESP Fit Center  631 is at  -0.301041  1.765198 -3.091960
      ESP Fit Center  632 is at  -0.144402  0.004470 -3.170133
      ESP Fit Center  633 is at  -1.293347 -1.576917 -3.170133
      ESP Fit Center  634 is at  -0.461963 -0.972881 -3.170133
      ESP Fit Center  635 is at   0.112829  0.004470 -4.130133
      ESP Fit Center  636 is at  -2.767171 -1.658299 -4.130133
      ESP Fit Center  637 is at  -1.807171 -1.915530 -4.130133
      ESP Fit Center  638 is at  -0.847171 -1.658299 -4.130133
      ESP Fit Center  639 is at  -0.144402 -0.955530 -4.130133
      ESP Fit Center  640 is at  -0.144402  0.004470 -5.090133
      ESP Fit Center  641 is at  -0.461963  0.981821 -5.090133
      ESP Fit Center  642 is at  -1.293347 -1.576917 -5.090133
      ESP Fit Center  643 is at  -0.461963 -0.972881 -5.090133
      ESP Fit Center  644 is at  -0.847171  0.004470 -5.792902
      ESP Fit Center  645 is at  -1.327171  0.835854 -5.792902
      ESP Fit Center  646 is at  -0.203959  1.722796 -4.016516
      ESP Fit Center  647 is at  -0.461190  2.682796 -4.016516
      ESP Fit Center  648 is at  -1.163959  3.385565 -4.016516
      ESP Fit Center  649 is at  -2.123959  3.642796 -4.016516
      ESP Fit Center  650 is at  -3.083959  3.385565 -4.016516
      ESP Fit Center  651 is at  -0.461190  1.722796 -4.976516
      ESP Fit Center  652 is at  -0.778751  2.700147 -4.976516
      ESP Fit Center  653 is at  -1.610135  3.304183 -4.976516
      ESP Fit Center  654 is at  -2.637783  3.304183 -4.976516
      ESP Fit Center  655 is at  -1.163959  1.722796 -5.679285
      ESP Fit Center  656 is at  -1.643959  2.554180 -5.679285
      ESP Fit Center  657 is at  -2.603959  2.554180 -5.679285
      ESP Fit Center  658 is at  -2.123959  1.722796 -5.936516
      ESP Fit Center  659 is at  -3.535899 -0.379593 -0.861992
      ESP Fit Center  660 is at  -2.660247 -1.015791 -0.861992
      ESP Fit Center  661 is at  -2.893465 -1.392127 -1.760162
      ESP Fit Center  662 is at  -1.855832 -1.518119 -1.760162
      ESP Fit Center  663 is at   0.064774  0.649797 -2.757056
      ESP Fit Center  664 is at  -1.855832 -1.518119 -2.757056
      ESP Fit Center  665 is at  -0.878503 -1.147467 -2.757056
      ESP Fit Center  666 is at  -2.755559  4.109715 -0.979745
      ESP Fit Center  667 is at  -4.224844  2.182046  0.164620
      ESP Fit Center  668 is at  -3.778668  3.763433 -0.538149
      ESP Fit Center  669 is at  -4.610052  3.159397 -0.538149
      ESP Fit Center  670 is at  -4.927613  2.182046 -0.538149
      ESP Fit Center  671 is at  -4.610052  1.204695 -0.538149
      ESP Fit Center  672 is at  -3.264844  4.102046 -1.498149
      ESP Fit Center  673 is at  -4.224844  3.844815 -1.498149
      ESP Fit Center  674 is at  -4.927613  3.142046 -1.498149
      ESP Fit Center  675 is at  -5.184844  2.182046 -1.498149
      ESP Fit Center  676 is at  -4.927613  1.222046 -1.498149
      ESP Fit Center  677 is at  -3.778668  3.763433 -2.458149
      ESP Fit Center  678 is at  -4.610052  3.159397 -2.458149
      ESP Fit Center  679 is at  -3.744844  3.013430 -3.160918
      ESP Fit Center  680 is at  -0.272281  3.587689 -0.989010
      ESP Fit Center  681 is at  -1.103665  4.191725 -0.989010
      ESP Fit Center  682 is at  -2.131313  4.191725 -0.989010
      ESP Fit Center  683 is at   0.302511  2.610338 -1.949010
      ESP Fit Center  684 is at   0.045280  3.570338 -1.949010
      ESP Fit Center  685 is at  -0.657489  4.273107 -1.949010
      ESP Fit Center  686 is at  -1.617489  4.530338 -1.949010
      ESP Fit Center  687 is at  -2.577489  4.273107 -1.949010
      ESP Fit Center  688 is at   0.045280  2.610338 -2.909010
      ESP Fit Center  689 is at  -0.272281  3.587689 -2.909010
      ESP Fit Center  690 is at  -1.103665  4.191725 -2.909010
      ESP Fit Center  691 is at  -2.131313  4.191725 -2.909010
      ESP Fit Center  692 is at  -1.137489  3.441722 -3.611779
      ESP Fit Center  693 is at  -1.782879  1.572425  2.309306
      ESP Fit Center  694 is at  -2.824200  1.572425  2.071631
      ESP Fit Center  695 is at  -4.122706  1.572425  0.443356
      ESP Fit Center  696 is at  -2.346015  0.743597  2.249630
      ESP Fit Center  697 is at  -3.306015  0.743597  1.992399
      ESP Fit Center  698 is at  -2.826015 -0.087787  1.992399
      ESP Fit Center  699 is at  -4.008784  0.743597  1.289630
      ESP Fit Center  700 is at  -3.691223 -0.233754  1.289630
      ESP Fit Center  701 is at  -2.859839 -0.837790  1.289630
      ESP Fit Center  702 is at  -4.266015  0.743597  0.329630
      ESP Fit Center  703 is at  -4.008784 -0.216403  0.329630
      ESP Fit Center  704 is at  -3.306015 -0.919172  0.329630
      ESP Fit Center  705 is at  -2.346015 -1.176403  0.329630
      ESP Fit Center  706 is at  -3.691223 -0.233754 -0.630370
      ESP Fit Center  707 is at  -2.859839 -0.837790 -0.630370
      ESP Fit Center  708 is at  -1.996669  2.456153  2.420824
      ESP Fit Center  709 is at  -1.036669  2.456153  2.163593
      ESP Fit Center  710 is at  -1.516669  3.287537  2.163593
      ESP Fit Center  711 is at  -2.476669  3.287537  2.163593
      ESP Fit Center  712 is at  -2.956669  2.456153  2.163593
      ESP Fit Center  713 is at  -0.651461  3.433504  1.460824
      ESP Fit Center  714 is at  -1.482845  4.037540  1.460824
      ESP Fit Center  715 is at  -2.510493  4.037540  1.460824
      ESP Fit Center  716 is at  -3.341877  3.433504  1.460824
      ESP Fit Center  717 is at  -3.659438  2.456153  1.460824
      ESP Fit Center  718 is at  -1.036669  4.118922  0.500824
      ESP Fit Center  719 is at  -1.996669  4.376153  0.500824
      ESP Fit Center  720 is at  -2.956669  4.118922  0.500824
      ESP Fit Center  721 is at  -3.659438  3.416153  0.500824
      ESP Fit Center  722 is at  -1.482845  4.037540 -0.459176
      ESP Fit Center  723 is at  -2.510493  4.037540 -0.459176
      ESP Fit Center  724 is at  -0.407196  1.341449  2.240000
      ESP Fit Center  725 is at   0.564704  1.341449  2.018170
      ESP Fit Center  726 is at   0.078754  2.183139  2.018170
      ESP Fit Center  727 is at   1.009638  2.370839  1.396617
      ESP Fit Center  728 is at   0.133986  3.007037  1.396617
      ESP Fit Center  729 is at   1.526497  2.356329  0.498447
      ESP Fit Center  730 is at   0.833366  3.138713  0.498447
      ESP Fit Center  731 is at  -0.143963  3.509365  0.498447
      ESP Fit Center  732 is at   0.833366  3.138713 -0.498447
      ESP Fit Center  733 is at  -0.143963  3.509365 -0.498447
      ESP Fit Center  734 is at   1.009638  2.370839 -1.396617
      ESP Fit Center  735 is at   0.564704  1.341449 -2.018170
      ESP Fit Center  736 is at   0.520660  0.901810 -2.162325
      ESP Fit Center  737 is at  -2.052657 -1.475955 -0.867187
      ESP Fit Center  738 is at  -1.349888 -2.178724 -0.867187
      ESP Fit Center  739 is at  -0.389888 -2.435955 -0.867187
      ESP Fit Center  740 is at  -0.903712 -2.097342 -1.827187
      ESP Fit Center  741 is at   0.090112  0.315429 -2.529956
      ESP Fit Center  742 is at  -0.869888 -1.347339 -2.529956
      ESP Fit Center  743 is at  -0.369615 -0.506171  2.808620
      ESP Fit Center  744 is at   0.590385 -0.506171  2.551389
      ESP Fit Center  745 is at   0.110385  0.325213  2.551389
      ESP Fit Center  746 is at  -0.849615  0.325213  2.551389
      ESP Fit Center  747 is at  -1.329615 -0.506171  2.551389
      ESP Fit Center  748 is at  -0.849615 -1.337555  2.551389
      ESP Fit Center  749 is at   0.110385 -1.337555  2.551389
      ESP Fit Center  750 is at  -2.032384 -0.506171  1.848620
      ESP Fit Center  751 is at  -1.714823 -1.483522  1.848620
      ESP Fit Center  752 is at  -0.883439 -2.087558  1.848620
      ESP Fit Center  753 is at   0.144209 -2.087558  1.848620
      ESP Fit Center  754 is at  -2.032384 -1.466171  0.888620
      ESP Fit Center  755 is at  -1.329615 -2.168940  0.888620
      ESP Fit Center  756 is at  -0.369615 -2.426171  0.888620
      ESP Fit Center  757 is at   1.882454  0.487386  2.815955
      ESP Fit Center  758 is at   2.842454  0.487386  2.558724
      ESP Fit Center  759 is at   2.362454  1.318770  2.558724
      ESP Fit Center  760 is at   1.402454  1.318770  2.558724
      ESP Fit Center  761 is at   0.922454  0.487386  2.558724
      ESP Fit Center  762 is at   1.402454 -0.343998  2.558724
      ESP Fit Center  763 is at   2.362454 -0.343998  2.558724
      ESP Fit Center  764 is at   3.545223  0.487386  1.855955
      ESP Fit Center  765 is at   3.227662  1.464737  1.855955
      ESP Fit Center  766 is at   2.396278  2.068773  1.855955
      ESP Fit Center  767 is at   1.368630  2.068773  1.855955
      ESP Fit Center  768 is at   3.802454  0.487386  0.895955
      ESP Fit Center  769 is at   3.545223  1.447386  0.895955
      ESP Fit Center  770 is at   2.842454  2.150155  0.895955
      ESP Fit Center  771 is at   1.882454  2.407386  0.895955
      ESP Fit Center  772 is at   3.808895  0.568131 -0.843742
      ESP Fit Center  773 is at   3.551664  1.528131 -0.843742
      ESP Fit Center  774 is at   2.848895  2.230900 -0.843742
      ESP Fit Center  775 is at   1.888895  2.488131 -0.843742
      ESP Fit Center  776 is at   3.234103  1.545482 -1.803742
      ESP Fit Center  777 is at   2.402719  2.149518 -1.803742
      ESP Fit Center  778 is at   1.375071  2.149518 -1.803742
      ESP Fit Center  779 is at   2.368895  1.399515 -2.506511
      ESP Fit Center  780 is at   1.408895  1.399515 -2.506511
      ESP Fit Center  781 is at   0.928895  0.568131 -2.506511
      ESP Fit Center  782 is at   2.244642 -1.666596  2.808296
      ESP Fit Center  783 is at   3.316156 -1.666596  2.595159
      ESP Fit Center  784 is at   2.780399 -0.738638  2.595159
      ESP Fit Center  785 is at   1.708885 -0.738638  2.595159
      ESP Fit Center  786 is at   1.173128 -1.666596  2.595159
      ESP Fit Center  787 is at   1.708885 -2.594554  2.595159
      ESP Fit Center  788 is at   2.780399 -2.594554  2.595159
      ESP Fit Center  789 is at   4.224541 -1.666596  1.988195
      ESP Fit Center  790 is at   3.959285 -0.676647  1.988195
      ESP Fit Center  791 is at   0.529999 -2.656545  1.988195
      ESP Fit Center  792 is at   1.254693 -3.381239  1.988195
      ESP Fit Center  793 is at   2.244642 -3.646495  1.988195
      ESP Fit Center  794 is at   3.234591 -3.381239  1.988195
      ESP Fit Center  795 is at   3.959285 -2.656545  1.988195
      ESP Fit Center  796 is at   4.831505 -1.666596  1.079810
      ESP Fit Center  797 is at   4.607859 -0.614424  1.079810
      ESP Fit Center  798 is at   3.975591  0.255818  1.079810
      ESP Fit Center  799 is at   0.151826 -3.187116  1.079810
      ESP Fit Center  800 is at   0.951211 -3.906885  1.079810
      ESP Fit Center  801 is at   1.974241 -4.239288  1.079810
      ESP Fit Center  802 is at   3.044027 -4.126849  1.079810
      ESP Fit Center  803 is at   3.975591 -3.589010  1.079810
      ESP Fit Center  804 is at   4.607859 -2.718768  1.079810
      ESP Fit Center  805 is at   5.044642 -1.666596  0.008296
      ESP Fit Center  806 is at   4.855564 -0.655119  0.008296
      ESP Fit Center  807 is at   4.313867  0.219752  0.008296
      ESP Fit Center  808 is at  -0.135966 -3.140606  0.008296
      ESP Fit Center  809 is at   0.557265 -3.901044  0.008296
      ESP Fit Center  810 is at   1.478386 -4.359708  0.008296
      ESP Fit Center  811 is at   2.502993 -4.454652  0.008296
      ESP Fit Center  812 is at   3.492709 -4.173053  0.008296
      ESP Fit Center  813 is at   4.313867 -3.552944  0.008296
      ESP Fit Center  814 is at   4.855564 -2.678073  0.008296
      ESP Fit Center  815 is at   3.975591  0.255818 -1.063218
      ESP Fit Center  816 is at   3.975591 -3.589010 -1.063218
      ESP Fit Center  817 is at   0.855739 -3.596821 -3.228704
      ESP Fit Center  818 is at   0.836554 -4.234027 -0.755240
      ESP Fit Center  819 is at   1.667938 -4.838063 -0.755240
      ESP Fit Center  820 is at   2.695586 -4.838063 -0.755240
      ESP Fit Center  821 is at   3.526970 -4.234027 -0.755240
      ESP Fit Center  822 is at   0.518993 -4.216676 -1.715240
      ESP Fit Center  823 is at   1.221762 -4.919445 -1.715240
      ESP Fit Center  824 is at   2.181762 -5.176676 -1.715240
      ESP Fit Center  825 is at   3.141762 -4.919445 -1.715240
      ESP Fit Center  826 is at   0.836554 -4.234027 -2.675240
      ESP Fit Center  827 is at   1.667938 -4.838063 -2.675240
      ESP Fit Center  828 is at  -0.255128 -2.933674 -1.134268
      ESP Fit Center  829 is at  -0.829920 -1.956323 -2.094268
      ESP Fit Center  830 is at  -0.572689 -2.916323 -2.094268
      ESP Fit Center  831 is at   0.130080 -3.619092 -2.094268
      ESP Fit Center  832 is at   0.576256 -0.374936 -3.054268
      ESP Fit Center  833 is at  -0.255128 -0.978972 -3.054268
      ESP Fit Center  834 is at  -0.572689 -1.956323 -3.054268
      ESP Fit Center  835 is at  -0.255128 -2.933674 -3.054268
      ESP Fit Center  836 is at   0.576256 -3.537710 -3.054268
      ESP Fit Center  837 is at   0.130080 -1.956323 -3.757037
      ESP Fit Center  838 is at   5.092643 -1.776202 -0.622640
      ESP Fit Center  839 is at   5.795412 -1.776202 -1.325409
      ESP Fit Center  840 is at   5.477851 -0.798851 -1.325409
      ESP Fit Center  841 is at   4.646467 -0.194815 -1.325409
      ESP Fit Center  842 is at   4.646467 -3.357589 -1.325409
      ESP Fit Center  843 is at   5.477851 -2.753553 -1.325409
      ESP Fit Center  844 is at   6.052643 -1.776202 -2.285409
      ESP Fit Center  845 is at   5.795412 -0.816202 -2.285409
      ESP Fit Center  846 is at   5.092643 -0.113433 -2.285409
      ESP Fit Center  847 is at   5.477851 -0.798851 -3.245409
      ESP Fit Center  848 is at   4.380764  0.495385 -1.707279
      ESP Fit Center  849 is at   3.549380  1.099421 -1.707279
      ESP Fit Center  850 is at   4.698325  0.478034 -2.667279
      ESP Fit Center  851 is at   3.995556  1.180803 -2.667279
      ESP Fit Center  852 is at   3.035556  1.438034 -2.667279
      ESP Fit Center  853 is at   2.075556  1.180803 -2.667279
      ESP Fit Center  854 is at   4.380764  0.495385 -3.627279
      ESP Fit Center  855 is at   3.549380  1.099421 -3.627279
      ESP Fit Center  856 is at   2.521732  1.099421 -3.627279
      ESP Fit Center  857 is at   1.690348  0.495385 -3.627279
      ESP Fit Center  858 is at   0.890173 -3.596375 -3.318038
      ESP Fit Center  859 is at   4.231056  0.430602 -4.389552
      ESP Fit Center  860 is at   3.241340  0.712201 -4.389552
      ESP Fit Center  861 is at   2.216733  0.617257 -4.389552
      ESP Fit Center  862 is at   1.295612  0.158593 -4.389552
      ESP Fit Center  863 is at   0.602381 -0.601845 -4.389552
      ESP Fit Center  864 is at   0.230664 -1.561356 -4.389552
      ESP Fit Center  865 is at   0.230664 -2.590354 -4.389552
      ESP Fit Center  866 is at   0.602381 -3.549865 -4.389552
      ESP Fit Center  867 is at   1.295612 -4.310303 -4.389552
      ESP Fit Center  868 is at   3.782374  0.384398 -5.461066
      ESP Fit Center  869 is at   2.712588  0.496837 -5.461066
      ESP Fit Center  870 is at   1.689558  0.164434 -5.461066
      ESP Fit Center  871 is at   0.890173 -0.555335 -5.461066
      ESP Fit Center  872 is at   0.452655 -1.538016 -5.461066
      ESP Fit Center  873 is at   0.452655 -2.613694 -5.461066
      ESP Fit Center  874 is at   0.890173 -3.596375 -5.461066
      ESP Fit Center  875 is at   3.972938 -0.361212 -6.369451
      ESP Fit Center  876 is at   2.982989 -0.095956 -6.369451
      ESP Fit Center  877 is at   1.993040 -0.361212 -6.369451
      ESP Fit Center  878 is at   1.268346 -1.085906 -6.369451
      ESP Fit Center  879 is at   1.003090 -2.075855 -6.369451
      ESP Fit Center  880 is at   1.268346 -3.065804 -6.369451
      ESP Fit Center  881 is at   3.518746 -1.147897 -6.976415
      ESP Fit Center  882 is at   2.447232 -1.147897 -6.976415
      ESP Fit Center  883 is at   1.911475 -2.075855 -6.976415
      ESP Fit Center  884 is at   2.447232 -3.003813 -6.976415
      ESP Fit Center  885 is at   3.518746 -3.003813 -6.976415
      ESP Fit Center  886 is at   2.982989 -2.075855 -7.189552
      ESP Fit Center  887 is at   1.706145 -5.182738 -5.260155
      ESP Fit Center  888 is at   2.408914 -5.885507 -5.260155
      ESP Fit Center  889 is at   3.368914 -6.142738 -5.260155
      ESP Fit Center  890 is at   4.328914 -5.885507 -5.260155
      ESP Fit Center  891 is at   1.706145 -4.222738 -6.220155
      ESP Fit Center  892 is at   2.023706 -5.200089 -6.220155
      ESP Fit Center  893 is at   2.855090 -5.804125 -6.220155
      ESP Fit Center  894 is at   3.882738 -5.804125 -6.220155
      ESP Fit Center  895 is at   2.888914 -3.391354 -6.922924
      ESP Fit Center  896 is at   2.408914 -4.222738 -6.922924
      ESP Fit Center  897 is at   2.888914 -5.054122 -6.922924
      ESP Fit Center  898 is at   3.848914 -5.054122 -6.922924
      ESP Fit Center  899 is at   3.368914 -4.222738 -7.180155
      ESP Fit Center  900 is at   4.311543 -4.282460 -1.857276
      ESP Fit Center  901 is at   2.871543 -5.113844 -1.857276
      ESP Fit Center  902 is at   3.831543 -5.113844 -1.857276
      ESP Fit Center  903 is at   2.006335 -5.259811 -2.560045
      ESP Fit Center  904 is at   2.837719 -5.863847 -2.560045
      ESP Fit Center  905 is at   3.865367 -5.863847 -2.560045
      ESP Fit Center  906 is at   1.431543 -4.282460 -3.520045
      ESP Fit Center  907 is at   1.688774 -5.242460 -3.520045
      ESP Fit Center  908 is at   2.391543 -5.945229 -3.520045
      ESP Fit Center  909 is at   3.351543 -6.202460 -3.520045
      ESP Fit Center  910 is at   4.746467 -4.685833 -2.188084
      ESP Fit Center  911 is at   5.787787 -4.685833 -2.188084
      ESP Fit Center  912 is at   5.674715 -3.201121 -1.613436
      ESP Fit Center  913 is at   6.634715 -3.201121 -1.870667
      ESP Fit Center  914 is at   6.154715 -2.369737 -1.870667
      ESP Fit Center  915 is at   5.194715 -4.032505 -1.870667
      ESP Fit Center  916 is at   6.154715 -4.032505 -1.870667
      ESP Fit Center  917 is at   7.337484 -3.201121 -2.573436
      ESP Fit Center  918 is at   7.019923 -2.223770 -2.573436
      ESP Fit Center  919 is at   6.188539 -1.619734 -2.573436
      ESP Fit Center  920 is at   7.019923 -4.178472 -2.573436
      ESP Fit Center  921 is at   6.520985 -4.812955 -2.511692
      ESP Fit Center  922 is at   5.080985 -5.644339 -2.511692
      ESP Fit Center  923 is at   6.040985 -5.644339 -2.511692
      ESP Fit Center  924 is at   7.223754 -4.812955 -3.214461
      ESP Fit Center  925 is at   5.047161 -6.394342 -3.214461
      ESP Fit Center  926 is at   6.074809 -6.394342 -3.214461
      ESP Fit Center  927 is at   6.906193 -5.790306 -3.214461
      ESP Fit Center  928 is at   4.600985 -6.475724 -4.174461
      ESP Fit Center  929 is at   5.560985 -6.732955 -4.174461
      ESP Fit Center  930 is at   6.520985 -6.475724 -4.174461
      ESP Fit Center  931 is at   7.223754 -5.772955 -4.174461
      ESP Fit Center  932 is at   5.047161 -6.394342 -5.134461
      ESP Fit Center  933 is at   6.074809 -6.394342 -5.134461
      ESP Fit Center  934 is at   8.076413 -3.300432 -3.915737
      ESP Fit Center  935 is at   7.811157 -4.290381 -3.915737
      ESP Fit Center  936 is at   8.683377 -3.300432 -4.824122
      ESP Fit Center  937 is at   7.827463 -5.222846 -4.824122
      ESP Fit Center  938 is at   8.459731 -4.352604 -4.824122
      ESP Fit Center  939 is at   8.896514 -3.300432 -5.895636
      ESP Fit Center  940 is at   5.330258 -5.993544 -5.895636
      ESP Fit Center  941 is at   6.354865 -6.088488 -5.895636
      ESP Fit Center  942 is at   7.344581 -5.806889 -5.895636
      ESP Fit Center  943 is at   8.165739 -5.186780 -5.895636
      ESP Fit Center  944 is at   8.707436 -4.311909 -5.895636
      ESP Fit Center  945 is at   4.803083 -5.540721 -6.967150
      ESP Fit Center  946 is at   5.826113 -5.873124 -6.967150
      ESP Fit Center  947 is at   6.895899 -5.760685 -6.967150
      ESP Fit Center  948 is at   7.827463 -5.222846 -6.967150
      ESP Fit Center  949 is at   8.459731 -4.352604 -6.967150
      ESP Fit Center  950 is at   8.076413 -3.300432 -7.875535
      ESP Fit Center  951 is at   4.381871 -2.310483 -7.875535
      ESP Fit Center  952 is at   4.116615 -3.300432 -7.875535
      ESP Fit Center  953 is at   4.381871 -4.290381 -7.875535
      ESP Fit Center  954 is at   5.106565 -5.015075 -7.875535
      ESP Fit Center  955 is at   6.096514 -5.280331 -7.875535
      ESP Fit Center  956 is at   7.086463 -5.015075 -7.875535
      ESP Fit Center  957 is at   7.811157 -4.290381 -7.875535
      ESP Fit Center  958 is at   7.168028 -3.300432 -8.482499
      ESP Fit Center  959 is at   5.025000 -3.300432 -8.482499
      ESP Fit Center  960 is at   5.560757 -4.228390 -8.482499
      ESP Fit Center  961 is at   6.632271 -4.228390 -8.482499
      ESP Fit Center  962 is at   6.096514 -3.300432 -8.695636
      ESP Fit Center  963 is at   6.249165  0.307252 -4.116346
      ESP Fit Center  964 is at   5.128226 -0.147492 -3.824714
      ESP Fit Center  965 is at   6.122050  0.602511 -4.527483
      ESP Fit Center  966 is at   5.094402  0.602511 -4.527483
      ESP Fit Center  967 is at   5.608226  0.941124 -5.487483
      ESP Fit Center  968 is at   4.648226  0.683893 -5.487483
      ESP Fit Center  969 is at   5.094402  0.602511 -6.447483
      ESP Fit Center  970 is at   4.263018 -0.001525 -6.447483
      ESP Fit Center  971 is at   4.648226 -0.978876 -7.150252
      ESP Fit Center  972 is at   7.096921 -1.476341 -2.780520
      ESP Fit Center  973 is at   8.056921 -1.476341 -3.037751
      ESP Fit Center  974 is at   7.576921 -0.644957 -3.037751
      ESP Fit Center  975 is at   6.616921 -0.644957 -3.037751
      ESP Fit Center  976 is at   7.576921 -2.307725 -3.037751
      ESP Fit Center  977 is at   8.759690 -1.476341 -3.740520
      ESP Fit Center  978 is at   8.442129 -0.498990 -3.740520
      ESP Fit Center  979 is at   7.610745  0.105046 -3.740520
      ESP Fit Center  980 is at   6.583097  0.105046 -3.740520
      ESP Fit Center  981 is at   8.442129 -2.453692 -3.740520
      ESP Fit Center  982 is at   9.016921 -1.476341 -4.700520
      ESP Fit Center  983 is at   8.759690 -0.516341 -4.700520
      ESP Fit Center  984 is at   8.056921  0.186428 -4.700520
      ESP Fit Center  985 is at   8.759690 -2.436341 -4.700520
      ESP Fit Center  986 is at   9.199913 -1.020808 -5.298246
      ESP Fit Center  987 is at   5.864659  0.808542 -6.260572
      ESP Fit Center  988 is at   9.431628 -0.005595 -7.328672
      ESP Fit Center  989 is at   5.864659  0.808542 -7.328672
      ESP Fit Center  990 is at   8.902041 -0.006352 -8.290998
      ESP Fit Center  991 is at   7.056478  0.836489 -8.290998
      ESP Fit Center  992 is at   8.364838 -1.020808 -8.956947
      ESP Fit Center  993 is at   9.204044 -1.578972 -5.262418
      ESP Fit Center  994 is at   9.906813 -1.578972 -5.965187
      ESP Fit Center  995 is at   9.589252 -0.601621 -5.965187
      ESP Fit Center  996 is at   9.589252 -2.556323 -5.965187
      ESP Fit Center  997 is at  10.164044 -1.578972 -6.925187
      ESP Fit Center  998 is at   9.906813 -0.618972 -6.925187
      ESP Fit Center  999 is at   9.204044 -3.241741 -6.925187
      ESP Fit Center 1000 is at   9.906813 -2.538972 -6.925187
      ESP Fit Center 1001 is at   9.906813 -1.578972 -7.885187
      ESP Fit Center 1002 is at   9.589252 -0.601621 -7.885187
      ESP Fit Center 1003 is at   8.757868 -3.160359 -7.885187
      ESP Fit Center 1004 is at   9.589252 -2.556323 -7.885187
      ESP Fit Center 1005 is at   9.204044 -1.578972 -8.587956
      ESP Fit Center 1006 is at   8.724044 -2.410356 -8.587956
      ESP Fit Center 1007 is at   5.092411 -0.123042 -7.716153
      ESP Fit Center 1008 is at   4.835180 -1.083042 -7.716153
      ESP Fit Center 1009 is at   7.269004  0.498345 -8.676153
      ESP Fit Center 1010 is at   6.241356  0.498345 -8.676153
      ESP Fit Center 1011 is at   5.409972 -0.105691 -8.676153
      ESP Fit Center 1012 is at   5.092411 -1.083042 -8.676153
      ESP Fit Center 1013 is at   5.409972 -2.060393 -8.676153
      ESP Fit Center 1014 is at   6.241356 -2.664429 -8.676153
      ESP Fit Center 1015 is at   7.269004 -2.664429 -8.676153
      ESP Fit Center 1016 is at   7.715180 -1.083042 -9.378922
      ESP Fit Center 1017 is at   7.235180 -0.251658 -9.378922
      ESP Fit Center 1018 is at   6.275180 -0.251658 -9.378922
      ESP Fit Center 1019 is at   5.795180 -1.083042 -9.378922
      ESP Fit Center 1020 is at   6.275180 -1.914426 -9.378922
      ESP Fit Center 1021 is at   7.235180 -1.914426 -9.378922
      ESP Fit Center 1022 is at   6.755180 -1.083042 -9.636153
      ESP Fit Center 1023 is at   8.539880  0.020614 -4.965756
      ESP Fit Center 1024 is at   8.059880  0.851998 -4.965756
      ESP Fit Center 1025 is at   7.099880  0.851998 -4.965756
      ESP Fit Center 1026 is at   9.242649  0.020614 -5.668525
      ESP Fit Center 1027 is at   8.925088  0.997965 -5.668525
      ESP Fit Center 1028 is at   8.093704  1.602001 -5.668525
      ESP Fit Center 1029 is at   7.066056  1.602001 -5.668525
      ESP Fit Center 1030 is at   6.234672  0.997965 -5.668525
      ESP Fit Center 1031 is at   9.499880  0.020614 -6.628525
      ESP Fit Center 1032 is at   9.242649  0.980614 -6.628525
      ESP Fit Center 1033 is at   8.539880  1.683383 -6.628525
      ESP Fit Center 1034 is at   7.579880  1.940614 -6.628525
      ESP Fit Center 1035 is at   6.619880  1.683383 -6.628525
      ESP Fit Center 1036 is at   5.917111  0.980614 -6.628525
      ESP Fit Center 1037 is at   8.925088  0.997965 -7.588525
      ESP Fit Center 1038 is at   8.093704  1.602001 -7.588525
      ESP Fit Center 1039 is at   7.066056  1.602001 -7.588525
      ESP Fit Center 1040 is at   6.234672  0.997965 -7.588525
      ESP Fit Center 1041 is at   8.059880  0.851998 -8.291294
      ESP Fit Center 1042 is at   7.099880  0.851998 -8.291294
      ESP Fit Center 1043 is at  -6.302324 -2.175959 -7.451446
      ESP Fit Center 1044 is at  -4.948209  2.165162 -8.484691
      ESP Fit Center 1045 is at  -6.640580 -1.349083 -8.484691
      ESP Fit Center 1046 is at  -2.145692 -1.349083 -8.484691
      ESP Fit Center 1047 is at  -6.224989 -0.804652 -9.360634
      ESP Fit Center 1048 is at  -3.359891 -0.266771 -9.945921
[...]
 1327 Fit      -0.003804
 1328 Fit      -0.000151
 1329 Fit       0.009493
 1330 Fit       0.005626
 1331 Fit       0.001448
 1332 Fit       0.004927
 1333 Fit       0.003090
 1334 Fit       0.007956
 1335 Fit       0.010875
 1336 Fit       0.006992
 1337 Fit       0.011424
 1338 Fit       0.016437
 1339 Fit       0.008755
 1340 Fit       0.003481
 1341 Fit       0.004152
 1342 Fit       0.006966
 1343 Fit       0.002950
 1344 Fit       0.001386
 1345 Fit       0.007662
 1346 Fit       0.008554
 1347 Fit       0.004328
 1348 Fit       0.001072
 1349 Fit       0.013513
 1350 Fit       0.011687
 1351 Fit       0.011048
 1352 Fit       0.007637
 1353 Fit       0.005311
 1354 Fit       0.009334
 1355 Fit       0.007636
 1356 Fit       0.008726
 1357 Fit       0.010498
 1358 Fit       0.006738
 1359 Fit       0.007885
 1360 Fit       0.007507
 1361 Fit       0.004321
 1362 Fit       0.005572
 1363 Fit       0.001284
 1364 Fit      -0.005566
 1365 Fit      -0.002147
 1366 Fit      -0.002669
 1367 Fit      -0.001939
 1368 Fit      -0.002706
 1369 Fit      -0.004318
 1370 Fit      -0.005725
 1371 Fit      -0.009169
 1372 Fit      -0.010096
 1373 Fit      -0.005654
 1374 Fit      -0.008177
 1375 Fit      -0.009576
 1376 Fit      -0.009300
 1377 Fit      -0.009831
 1378 Fit      -0.010820
 1379 Fit      -0.011831
 1380 Fit      -0.010365
 1381 Fit      -0.004075
 1382 Fit      -0.012793
 1383 Fit      -0.013928
 1384 Fit      -0.013468
 1385 Fit      -0.013185
 1386 Fit      -0.012233
 1387 Fit      -0.008536
 1388 Fit      -0.016778
 1389 Fit      -0.014806
 1390 Fit      -0.012365
 1391 Fit      -0.009304
 1392 Fit      -0.015529
 1393 Fit       0.002857
 1394 Fit       0.008328
 1395 Fit       0.010467
 1396 Fit       0.012443
 1397 Fit       0.002023
 1398 Fit       0.006824
 1399 Fit       0.008681
 1400 Fit       0.010043
 1401 Fit       0.002936
 1402 Fit       0.005885
 1403 Fit       0.006164
 1404 Fit       0.004310
 1405 Fit      -0.000564
 1406 Fit       0.001711
 1407 Fit      -0.008414
 1408 Fit       0.018859
 1409 Fit       0.016937
 1410 Fit       0.014581
 1411 Fit       0.014490
 1412 Fit       0.015714
 1413 Fit       0.007277
 1414 Fit       0.010337
 1415 Fit       0.011732
 1416 Fit       0.013643
 1417 Fit       0.017280
 1418 Fit       0.012140
 1419 Fit       0.007986
 1420 Fit       0.013693
 1421 Fit       0.011222
 1422 Fit       0.014458
 1423 Fit       0.015810
 1424 Fit       0.011117
 1425 Fit       0.008926
 1426 Fit       0.012991
 1427 Fit       0.015441
 1428 Fit       0.007262
 1429 Fit       0.014417
 1430 Fit       0.010340
 1431 Fit       0.003496
 1432 Fit       0.015891
 1433 Fit       0.012032
 1434 Fit       0.009098
 1435 Fit       0.005778
 1436 Fit       0.011662
 1437 Fit       0.008836
 1438 Fit       0.004995
 1439 Fit      -0.000981
 1440 Fit       0.011423
 1441 Fit       0.007270
 1442 Fit       0.002116
 1443 Fit       0.000934
 1444 Fit      -0.001761
 1445 Fit      -0.007249
 1446 Fit      -0.008811
 1447 Fit      -0.011657
 1448 Fit      -0.011226
 1449 Fit      -0.001229
 1450 Fit      -0.010707
 1451 Fit      -0.016887
 1452 Fit      -0.017226
 1453 Fit       0.001445
 1454 Fit      -0.002944
 1455 Fit      -0.009046
 1456 Fit      -0.015664
 1457 Fit      -0.019682
 1458 Fit      -0.018445
 1459 Fit      -0.016874
 1460 Fit      -0.015604
 1461 Fit      -0.010320
 1462 Fit      -0.008890
 1463 Fit      -0.009799
 1464 Fit      -0.012609
 1465 Fit      -0.016600
 1466 Fit      -0.019162
 1467 Fit      -0.017425
 1468 Fit      -0.011203
 1469 Fit      -0.018367
 1470 Fit      -0.020133
 1471 Fit      -0.018161
 1472 Fit      -0.016646
 1473 Fit      -0.016955
 1474 Fit      -0.017929
 1475 Fit      -0.016498
 1476 Fit      -0.012545
 1477 Fit      -0.018773
 1478 Fit      -0.018670
 1479 Fit      -0.016995
 1480 Fit      -0.015154
 1481 Fit       0.006078
 1482 Fit       0.006631
 1483 Fit       0.003707
 1484 Fit       0.004289
 1485 Fit       0.000577
 1486 Fit       0.000791
 1487 Fit      -0.005074
 1488 Fit      -0.011709
 1489 Fit       0.012596
 1490 Fit       0.008678
 1491 Fit       0.008742
 1492 Fit       0.009966
 1493 Fit       0.011156
 1494 Fit       0.005732
 1495 Fit       0.006921
 1496 Fit       0.007214
 1497 Fit       0.006758
 1498 Fit       0.003322
 1499 Fit       0.003197
 1500 Fit       0.005146
 1501 Fit      -0.002092
 1502 Fit       0.003762
 1503 Fit       0.004995
 1504 Fit       0.002237
 1505 Fit       0.000823
 1506 Fit       0.000385
 1507 Fit      -0.000025
 1508 Fit      -0.000795
 1509 Fit      -0.000935
 1510 Fit      -0.000254
 1511 Fit      -0.000366
 1512 Fit      -0.002316
 1513 Fit       0.002121
 1514 Fit       0.000805
 1515 Fit       0.001432
 1516 Fit      -0.002617
 1517 Fit       0.000724
 1518 Fit       0.000767
 1519 Fit      -0.007558
 1520 Fit      -0.001370
 1521 Fit      -0.000012
 1522 Fit      -0.000109
 1523 Fit      -0.007247
 1524 Fit      -0.001995
 1525 Fit      -0.001712
 1526 Fit      -0.004554
 1527 Fit      -0.002311
 1528 Fit      -0.006906
 1529 Fit      -0.000452
 1530 Fit      -0.001100
 1531 Fit      -0.003491
 1532 Fit      -0.008281
 1533 Fit      -0.002057
 1534 Fit      -0.000650
 1535 Fit      -0.000423
 1536 Fit      -0.002317
 1537 Fit      -0.004898
 1538 Fit      -0.004187
 1539 Fit      -0.001434
 1540 Fit       0.006474
 1541 Fit       0.004500
 1542 Fit       0.005812
 1543 Fit       0.005916
 1544 Fit       0.005146
 1545 Fit       0.002940
 1546 Fit       0.004545
 1547 Fit       0.004982
 1548 Fit       0.004140
 1549 Fit       0.002416
 1550 Fit       0.001741
 1551 Fit       0.002951
 1552 Fit       0.002608
 1553 Fit       0.000803
 1554 Fit       0.000380
 1555 Fit       0.003841
 1556 Fit      -0.008286
 1557 Fit       0.002645
 1558 Fit       0.004822
 1559 Fit       0.002557
 1560 Fit       0.002257
 1561 Fit       0.001532
 1562 Fit      -0.002013
 1563 Fit      -0.001470
 1564 Fit       0.000772
 1565 Fit       0.000203
 1566 Fit      -0.000533
 1567 Fit      -0.000943
 1568 Fit       0.000021
 1569 Fit       0.000092
 1570 Fit       0.000824
 1571 Fit      -0.001371
 1572 Fit      -0.004655
 1573 Fit      -0.009242
 1574 Fit      -0.013757
 1575 Fit       0.000534
 1576 Fit       0.000014
 1577 Fit      -0.001304
 1578 Fit      -0.003485
 1579 Fit      -0.005727
 1580 Fit       0.000572
 1581 Fit       0.000388
 1582 Fit      -0.000629
 1583 Fit      -0.002168
 1584 Fit       0.000304
 1585 Fit      -0.000134
 1586 Fit      -0.001197
 1587 Fit       0.006183
 1588 Fit       0.007354
 1589 Fit       0.007655
 1590 Fit       0.007221
 1591 Fit       0.003073
 1592 Fit       0.004850
 1593 Fit       0.005925
 1594 Fit       0.006033
 1595 Fit       0.005148
 1596 Fit       0.003516
 1597 Fit       0.002168
 1598 Fit       0.003928
 1599 Fit       0.004866
 1600 Fit       0.004554
 1601 Fit       0.003104
 1602 Fit       0.001479
 1603 Fit       0.001493
 1604 Fit       0.003177
 1605 Fit       0.003152
 1606 Fit       0.001628
 1607 Fit      -0.005549
 1608 Fit      -0.000619
 1609 Fit      -0.012373
 1610 Fit      -0.006431
 1611 Fit      -0.002375
 1612 Fit       0.000159
 1613 Fit       0.001827
 1614 Fit      -0.005849
 1615 Fit      -0.002707
 1616 Fit      -0.000292
 1617 Fit       0.001132
 1618 Fit       0.001804
 1619 Fit      -0.003145
 1620 Fit      -0.001091
 1621 Fit       0.000506
 1622 Fit       0.001164
 1623 Fit      -0.001120
 1624 Fit       0.000114
 1625 Fit       0.007594
 1626 Fit      -0.004164
 1627 Fit       0.007769
 1628 Fit       0.008108
 1629 Fit       0.002249
 1630 Fit       0.005458
 1631 Fit       0.007008
 1632 Fit       0.007641
 1633 Fit       0.008029
 1634 Fit       0.002818
 1635 Fit       0.005365
 1636 Fit       0.006698
 1637 Fit       0.007310
 1638 Fit       0.007557
 1639 Fit       0.002900
 1640 Fit       0.005120
 1641 Fit       0.006564
 1642 Fit       0.007468
 1643 Fit       0.008130
 1644 Fit       0.006762
 1645 Fit       0.006539
 1646 Fit       0.004562
 1647 Fit       0.002442
 1648 Fit       0.001353
 1649 Fit       0.002368
 1650 Fit       0.006635
 1651 Fit       0.004304
 1652 Fit       0.001773
 1653 Fit       0.002157
 1654 Fit       0.006061
 1655 Fit       0.003508
 1656 Fit      -0.009885
 1657 Fit      -0.012853
 1658 Fit      -0.014144
 1659 Fit      -0.013607
 1660 Fit      -0.010764
 1661 Fit      -0.005604
 1662 Fit      -0.009281
 1663 Fit      -0.013902
 1664 Fit      -0.016847
 1665 Fit      -0.017564
 1666 Fit      -0.015391
 1667 Fit       0.006298
 1668 Fit       0.004733
 1669 Fit       0.001719
 1670 Fit      -0.002979
 1671 Fit       0.005281
 1672 Fit       0.003174
 1673 Fit       0.005448
 1674 Fit       0.005518
 1675 Fit       0.004345
 1676 Fit       0.000169
 1677 Fit       0.005599
 1678 Fit       0.006818
 1679 Fit       0.006828
 1680 Fit       0.005592
 1681 Fit       0.002972
 1682 Fit       0.010480
 1683 Fit       0.010650
 1684 Fit       0.007969
 1685 Fit       0.006537
 1686 Fit       0.008304
 1687 Fit       0.005911
 1688 Fit       0.004226
 1689 Fit       0.003248
 1690 Fit       0.003830
 1691 Fit       0.000860
 1692 Fit      -0.001047
 1693 Fit      -0.002488
 1694 Fit      -0.003184
 1695 Fit      -0.001158
 1696 Fit       0.002064
 1697 Fit       0.000986
 1698 Fit       0.001862
 1699 Fit       0.000603
 1700 Fit       0.005500
 1701 Fit       0.002960
 1702 Fit       0.004190
 1703 Fit      -0.001799
 1704 Fit      -0.002624
 1705 Fit       0.001848
 1706 Fit       0.003377
 1707 Fit       0.004756
 1708 Fit       0.005003
 1709 Fit       0.003485
 1710 Fit      -0.000402
 1711 Fit       0.001322
 1712 Fit       0.002149
 1713 Fit       0.001940
 1714 Fit      -0.001104
 1715 Fit      -0.000287
 1716 Fit      -0.001836
 1717 Fit      -0.004508
 1718 Fit      -0.005912
 1719 Fit      -0.002928
 1720 Fit       0.011081
 1721 Fit       0.006840
 1722 Fit       0.009592
 1723 Fit       0.008772
 1724 Fit       0.012767
 1725 Fit       0.012195
 1726 Fit       0.011791
 1727 Fit       0.011471
 1728 Fit       0.011152
 1729 Fit       0.011234
 1730 Fit       0.011282
 1731 Fit       0.010469
 1732 Fit       0.009881
 1733 Fit       0.009965
 1734 Fit       0.010846
 1735 Fit      -0.007681
 1736 Fit       0.000568
 1737 Fit       0.005513
 1738 Fit       0.008880
 1739 Fit      -0.003426
 1740 Fit      -0.000055
 1741 Fit       0.003422
 1742 Fit       0.006005
 1743 Fit       0.007791
 1744 Fit       0.002250
 1745 Fit       0.004156
 1746 Fit       0.005985
 1747 Fit       0.007235
 1748 Fit       0.001686
 1749 Fit       0.005597
 1750 Fit       0.004643
 1751 Fit       0.010924
 1752 Fit       0.006952
 1753 Fit       0.006146
 1754 Fit       0.009235
 1755 Fit       0.007987
 1756 Fit       0.006750
 1757 Fit       0.005870
 1758 Fit       0.009849
 1759 Fit       0.007606
 1760 Fit       0.005679
 1761 Fit       0.004216
 1762 Fit       0.005886
 1763 Fit       0.002034
 1764 Fit      -0.000616
 1765 Fit       0.002947
 1766 Fit      -0.003587
 1767 Fit       0.001558
 1768 Fit       0.005670
 1769 Fit       0.006604
 1770 Fit      -0.006461
 1771 Fit       0.001609
 1772 Fit       0.006141
 1773 Fit       0.008445
 1774 Fit       0.009316
 1775 Fit      -0.002710
 1776 Fit       0.004267
 1777 Fit       0.008116
 1778 Fit       0.010369
 1779 Fit       0.011727
 1780 Fit       0.005869
 1781 Fit       0.010038
 1782 Fit       0.012856
 1783 Fit      -0.004978
 1784 Fit      -0.009513
 1785 Fit      -0.012615
 1786 Fit      -0.014162
 1787 Fit      -0.012203
 1788 Fit      -0.013455
 1789 Fit      -0.013166
 1790 Fit      -0.006717
 1791 Fit      -0.011517
 1792 Fit      -0.008470
 1793 Fit      -0.000884
 1794 Fit      -0.002030
 1795 Fit       0.000774
 1796 Fit       0.000150
 1797 Fit      -0.000366
 1798 Fit       0.000697
 1799 Fit       0.002795
 1800 Fit       0.000718
 1801 Fit      -0.002179
 1802 Fit       0.004658
 1803 Fit       0.001435
 1804 Fit      -0.003654
 1805 Fit       0.004624
 1806 Fit       0.000691
 1807 Fit      -0.005229
 1808 Fit       0.001154
 1809 Fit       0.000684
 1810 Fit       0.001072
 1811 Fit      -0.000688
 1812 Fit       0.000434
 1813 Fit      -0.001379
 1814 Fit       0.000819
 1815 Fit      -0.000182
 1816 Fit      -0.004337
 1817 Fit      -0.000352
 1818 Fit      -0.000327
 1819 Fit      -0.004142
 1820 Fit       0.000178
 1821 Fit      -0.005525
 1822 Fit       0.005777
 1823 Fit       0.003514
 1824 Fit      -0.001202
 1825 Fit       0.005621
 1826 Fit       0.000103
 1827 Fit       0.004930
 1828 Fit       0.004523
 1829 Fit      -0.006791
 1830 Fit      -0.008186
 1831 Fit      -0.003661
 1832 Fit      -0.001983
 1833 Fit      -0.005768
 1834 Fit      -0.009850
 1835 Fit      -0.010204
 1836 Fit      -0.009973
 1837 Fit      -0.006584
 1838 Fit      -0.000966
 1839 Fit      -0.009452
 1840 Fit      -0.011901
 1841 Fit      -0.011765
 1842 Fit      -0.011214
 1843 Fit      -0.011020
 1844 Fit      -0.011149
 1845 Fit      -0.009071
 1846 Fit      -0.004263
 1847 Fit      -0.007820
 1848 Fit      -0.011527
 1849 Fit      -0.011579
 1850 Fit      -0.010143
 1851 Fit      -0.009260
 1852 Fit      -0.009752
 1853 Fit      -0.010909
 1854 Fit      -0.010138
 1855 Fit      -0.009574
 1856 Fit      -0.006465
 1857 Fit      -0.007852
 1858 Fit      -0.009585
 1859 Fit      -0.008287
 1860 Fit      -0.005850
 1861 Fit      -0.004245
 1862 Fit      -0.004494
 1863 Fit      -0.006330
 1864 Fit      -0.008659
 1865 Fit      -0.005095
 1866 Fit      -0.006289
 1867 Fit      -0.005069
 1868 Fit      -0.001803
 1869 Fit      -0.004247
 1870 Fit      -0.005147
 1871 Fit      -0.003251
 1872 Fit       0.000300
 1873 Fit       0.003265
 1874 Fit       0.004024
 1875 Fit       0.002668
 1876 Fit       0.000169
 1877 Fit      -0.002602
 1878 Fit       0.000928
 1879 Fit       0.000674
 1880 Fit       0.001256
 1881 Fit       0.005476
 1882 Fit       0.008999
 1883 Fit       0.012255
 1884 Fit       0.014409
 1885 Fit       0.014785
 1886 Fit       0.007841
 1887 Fit       0.012481
 1888 Fit       0.006598
 1889 Fit       0.002285
 1890 Fit       0.003043
 1891 Fit       0.003357
 1892 Fit       0.001191
 1893 Fit       0.001477
 1894 Fit       0.006062
 1895 Fit       0.006330
 1896 Fit       0.003883
 1897 Fit       0.000368
 1898 Fit       0.006287
 1899 Fit       0.012012
 1900 Fit       0.008019
 1901 Fit       0.005328
 1902 Fit       0.006853
 1903 Fit       0.008540
 1904 Fit       0.006573
 1905 Fit       0.007357
 1906 Fit       0.007674
 1907 Fit       0.006767
 1908 Fit       0.005139
 1909 Fit       0.003431
 1910 Fit       0.004380
 1911 Fit       0.001985
 1912 Fit       0.002555
 1913 Fit       0.002555
 1914 Fit       0.001225
 1915 Fit      -0.003622
 1916 Fit      -0.004133
 1917 Fit      -0.001059
 1918 Fit      -0.003441
 1919 Fit      -0.003768
 1920 Fit      -0.003843
 1921 Fit      -0.004045
 1922 Fit      -0.003982
 1923 Fit      -0.006199
 1924 Fit      -0.005612
 1925 Fit      -0.001292
 1926 Fit      -0.008319
 1927 Fit      -0.008312
 1928 Fit      -0.008203
 1929 Fit      -0.007973
 1930 Fit      -0.007979
 1931 Fit      -0.006924
 1932 Fit      -0.002836
 1933 Fit      -0.010500
 1934 Fit      -0.011242
 1935 Fit      -0.010939
 1936 Fit      -0.010341
 1937 Fit      -0.009288
 1938 Fit      -0.006918
 1939 Fit      -0.003219
 1940 Fit      -0.013983
 1941 Fit      -0.012212
 1942 Fit      -0.010491
 1943 Fit      -0.009447
 1944 Fit      -0.013762
 1945 Fit       0.012354
 1946 Fit       0.004239
 1947 Fit       0.008752
 1948 Fit       0.009955
 1949 Fit       0.003398
 1950 Fit       0.005798
 1951 Fit       0.006626
 1952 Fit       0.006823
 1953 Fit       0.001358
 1954 Fit       0.003606
 1955 Fit       0.003371
 1956 Fit      -0.002561
 1957 Fit      -0.000815
 1958 Fit       0.016101
 1959 Fit       0.014735
 1960 Fit       0.013612
 1961 Fit       0.013044
 1962 Fit       0.013726
 1963 Fit       0.009682
 1964 Fit       0.010600
 1965 Fit       0.011361
 1966 Fit       0.012857
 1967 Fit       0.008604
 1968 Fit       0.014760
 1969 Fit       0.010644
 1970 Fit       0.007452
 1971 Fit       0.003137
 1972 Fit       0.009342
 1973 Fit       0.009665
 1974 Fit       0.008031
 1975 Fit       0.010669
 1976 Fit       0.007062
 1977 Fit       0.012878
 1978 Fit       0.009296
 1979 Fit       0.010644
 1980 Fit       0.008031
 1981 Fit       0.005626
 1982 Fit       0.012849
 1983 Fit       0.009983
 1984 Fit       0.007502
 1985 Fit       0.004501
 1986 Fit       0.000670
 1987 Fit       0.008044
 1988 Fit       0.005046
 1989 Fit       0.000634
 1990 Fit       0.003357
 1991 Fit      -0.003064
 1992 Fit      -0.003930
 1993 Fit      -0.006115
 1994 Fit      -0.007185
 1995 Fit      -0.006678
 1996 Fit      -0.011026
 1997 Fit      -0.011191
 1998 Fit      -0.008220
 1999 Fit       0.006208
 2000 Fit       0.002349
 2001 Fit      -0.002423
 2002 Fit      -0.007904
 2003 Fit      -0.012505
 2004 Fit      -0.014637
 2005 Fit      -0.013298
 2006 Fit      -0.002990
 2007 Fit      -0.006116
 2008 Fit      -0.010085
 2009 Fit      -0.013789
 2010 Fit      -0.015474
 2011 Fit      -0.013684
 2012 Fit      -0.013186
 2013 Fit      -0.016293
 2014 Fit      -0.013797
 2015 Fit      -0.010406
 2016 Fit      -0.009161
 2017 Fit      -0.009694
 2018 Fit      -0.011485
 2019 Fit      -0.013822
 2020 Fit      -0.015042
 2021 Fit      -0.013386
 2022 Fit      -0.009557
 2023 Fit      -0.014186
 2024 Fit      -0.015734
 2025 Fit      -0.014698
 2026 Fit      -0.013886
 2027 Fit      -0.014102
 2028 Fit      -0.014493
 2029 Fit      -0.013209
 2030 Fit      -0.010600
 2031 Fit      -0.014619
 2032 Fit      -0.014877
 2033 Fit      -0.013785
 2034 Fit      -0.012321
 2035 Fit       0.006344
 2036 Fit       0.006020
 2037 Fit       0.004995
 2038 Fit       0.004245
 2039 Fit       0.002238
 2040 Fit       0.000803
 2041 Fit      -0.004527
 2042 Fit      -0.005096
 2043 Fit       0.011297
 2044 Fit       0.007785
 2045 Fit       0.007838
 2046 Fit       0.009513
 2047 Fit       0.005353
 2048 Fit       0.006204
 2049 Fit       0.006519
 2050 Fit       0.006561
 2051 Fit       0.004103
 2052 Fit       0.003222
 2053 Fit       0.004836
 2054 Fit       0.005894
 2055 Fit      -0.000184
 2056 Fit       0.001613
 2057 Fit       0.002619
 2058 Fit       0.001269
 2059 Fit       0.001881
 2060 Fit       0.000478
 2061 Fit      -0.000092
 2062 Fit      -0.002977
 2063 Fit      -0.000305
 2064 Fit       0.000567
 2065 Fit      -0.000516
 2066 Fit      -0.001697
 2067 Fit      -0.001016
 2068 Fit      -0.000478
 2069 Fit      -0.000446
 2070 Fit      -0.006856
 2071 Fit      -0.002252
 2072 Fit       0.000606
 2073 Fit      -0.002910
 2074 Fit       0.000270
 2075 Fit       0.000870
 2076 Fit      -0.007696
 2077 Fit      -0.001921
 2078 Fit      -0.000043
 2079 Fit       0.000302
 2080 Fit      -0.006072
 2081 Fit      -0.001777
 2082 Fit      -0.000866
 2083 Fit      -0.000565
 2084 Fit      -0.006832
 2085 Fit      -0.002706
 2086 Fit      -0.002176
 2087 Fit      -0.004590
 2088 Fit      -0.001674
 2089 Fit      -0.004425
 2090 Fit      -0.009415
 2091 Fit      -0.000575
 2092 Fit      -0.001362
 2093 Fit      -0.003485
 2094 Fit      -0.007119
 2095 Fit      -0.007811
 2096 Fit      -0.002171
 2097 Fit      -0.001012
 2098 Fit      -0.001058
 2099 Fit      -0.002796
 2100 Fit      -0.004793
 2101 Fit      -0.004077
 2102 Fit      -0.002011
 2103 Fit       0.006030
 2104 Fit       0.004241
 2105 Fit       0.005099
 2106 Fit       0.005266
 2107 Fit       0.004938
 2108 Fit       0.002834
 2109 Fit       0.004031
 2110 Fit       0.004545
 2111 Fit       0.004249
 2112 Fit       0.003285
 2113 Fit       0.001800
 2114 Fit       0.002980
 2115 Fit       0.003415
 2116 Fit       0.002930
 2117 Fit       0.001592
 2118 Fit       0.000912
 2119 Fit       0.001728
 2120 Fit       0.001444
 Job cpu time:       0 days  0 hours  4 minutes 54.8 seconds.
 Normal termination of Gaussian 16 at Sat Jul  8 20:50:23 2023.
