 Copyright (c) 1988-2019, Gaussian, Inc.  All Rights Reserved.
  
 This is part of the Gaussian(R) 16 program.  It is based on
 the Gaussian(R) 09 system (copyright 2009, Gaussian, Inc.),
 the Gaussian(R) 03 system (copyright 2003, Gaussian, Inc.),
 the Gaussian(R) 98 system (copyright 1998, Gaussian, Inc.),
 the Gaussian(R) 94 system (copyright 1995, Gaussian, Inc.),
 the Gaussian 92(TM) system (copyright 1992, Gaussian, Inc.),
 the Gaussian 90(TM) system (copyright 1990, Gaussian, Inc.),
 the Gaussian 88(TM) system (copyright 1988, Gaussian, Inc.),
 the Gaussian 86(TM) system (copyright 1986, Carnegie Mellon
 University), and the Gaussian 82(TM) system (copyright 1983,
 Carnegie Mellon University). Gaussian is a federally registered
 trademark of Gaussian, Inc.
 Cite this work as:
 Gaussian 16, Revision C.01,
 M. J. Frisch, G. W. Trucks, H. B. Schlegel, G. E. Scuseria, 
 M. A. Robb, J. R. Cheeseman, G. Scalmani, V. Barone, 
 G. A. Petersson, H. Nakatsuji, X. Li, M. Caricato, A. V. Marenich, 
 J. Bloino, B. G. Janesko, R. Gomperts, B. Mennucci, H. P. Hratchian, 
 J. V. Ortiz, A. F. Izmaylov, J. L. Sonnenberg, D. Williams-Young, 
 F. Ding, F. Lipparini, F. Egidi, J. Goings, B. Peng, A. Petrone, 
 T. Henderson, D. Ranasinghe, V. G. Zakrzewski, J. Gao, N. Rega, 
 G. Zheng, W. Liang, M. Hada, M. Ehara, K. Toyota, R. Fukuda, 
 J. Hasegawa, M. Ishida, T. Nakajima, Y. Honda, O. Kitao, H. Nakai, 
 T. Vreven, K. Throssell, J. A. Montgomery, Jr., J. E. Peralta, 
 F. Ogliaro, M. J. Bearpark, J. J. Heyd, E. N. Brothers, K. N. Kudin, 
 V. N. Staroverov, T. A. Keith, R. Kobayashi, J. Normand, 
 K. Raghavachari, A. P. Rendell, J. C. Burant, S. S. Iyengar, 
 J. Tomasi, M. Cossi, J. M. Millam, M. Klene, C. Adamo, R. Cammi, 
 J. W. Ochterski, R. L. Martin, K. Morokuma, O. Farkas, 
 J. B. Foresman, and D. J. Fox, Gaussian, Inc., Wallingford CT, 2019.
 
 ******************************************
 Gaussian 16:  EM64L-G16RevC.01  3-Jul-2019
                 8-Jul-2023 
 ******************************************
 ----------------------------------------------------------------------
 #P HF/6-31G(d) SCF(Conver=8,XQC,MaxConventionalCycles=64,MaxCycle=128)
  NoSymm Test Pop=mk IOp(6/33=2) GFInput GFPrint
 ----------------------------------------------------------------------
 1/38=1,172=1/1;
 2/12=2,15=1,17=6,18=5,40=1/2;
 3/5=1,6=6,7=1,11=9,24=110,25=1,30=1/1,2,3;
 4//1;
 5/5=2,6=8,7=128,8=3,13=1,38=5,85=64/2,8;
 6/7=2,8=2,9=2,10=2,15=8,20=1,28=1,33=2/1,2;
 99/5=1,9=1/99;
 -------------------------------------------------
 MEP step - Input generated by PyRED DVE-DMDS-OPLS
 -------------------------------------------------
 Symbolic Z-matrix:
 Charge =  0 Multiplicity = 1
 C                    -0.19199  -1.19441  -8.13663 
 H                     0.0613   -1.63966  -9.09412 
 H                    -0.31673  -2.00047  -7.42145 
 H                    -1.14116  -0.67957  -8.23902 
 C                     0.89548  -0.21623  -7.71277 
 H                     1.84492  -0.73416  -7.58822 
 H                     1.03139   0.53421  -8.48107 
 O                     0.58085   0.49105  -6.54476 
 C                     0.71054  -0.20357  -5.34232 
 H                     1.69063  -0.6703   -5.26575 
 H                    -0.0359   -0.98917  -5.25507 
 C                     0.5457    0.8108   -4.2223 
 H                     1.32746   1.55467  -4.3007 
 H                    -0.40861   1.31907  -4.32343 
 O                     0.66494   0.20399  -2.96469 
 C                    -0.52652  -0.25207  -2.38452 
 H                    -1.00551  -0.98969  -3.02592 
 H                    -1.2209    0.5731   -2.24564 
 C                    -0.22854  -0.90093  -1.04576 
 H                     0.59534  -1.59661  -1.15915 
 H                    -1.09841  -1.46888  -0.74034 
 O                     0.        0.        0. 
 C                     1.16501   0.77333   0. 
 H                     1.09596   1.37927   0.89413 
 H                     1.18287   1.44648  -0.84943 
 C                     2.48225   0.        0. 
 H                     3.28542   0.7176    0.12888 
 H                     2.64197  -0.47753  -0.95796 
 S                     2.67605  -1.33614   1.21876 
 C                     2.38509  -0.49345   2.80868 
 H                     3.07322  -0.94251   3.51277 
 H                     2.66419   0.54818   2.71582 
 C                     0.94613  -0.6281    3.30549 
 H                     0.68841  -1.67169   3.42924 
 H                     0.25477  -0.22338   2.58077 
 S                     0.62155   0.27898   4.85132 
 C                     1.38405  -0.78267   6.1194 
 H                     1.4927   -0.14191   6.98501 
 H                     2.38072  -1.07253   5.81502 
 C                     0.55116  -2.01481   6.46702 
 H                    -0.44566  -1.72536   6.77044 
 H                     0.44322  -2.65575   5.60145 
 S                     1.30898  -3.07818   7.73481 
 C                     1.02316  -2.1499    9.27477 
 H                     1.65821  -2.63999   10.00321 
 H                     1.3988   -1.13983   9.16533 
 C                    -0.42249  -2.14329   9.76278 
 H                    -0.78517  -3.15374   9.91048 
 H                    -0.49208  -1.6126    10.70823 
 H                    -1.0835   -1.64835   9.0601 
 
 ITRead=  0  0  0  0  0  0  0  0  0  0  0  0  0  0  0  0  0  0  0  0
 ITRead=  0  0  0  0  0  0  0  0  0  0  0  0  0  0  0  0  0  0  0  0
 ITRead=  0  0  0  0  0  0  0  0  0  0
 MicOpt= -1 -1 -1 -1 -1 -1 -1 -1 -1 -1 -1 -1 -1 -1 -1 -1 -1 -1 -1 -1
 MicOpt= -1 -1 -1 -1 -1 -1 -1 -1 -1 -1 -1 -1 -1 -1 -1 -1 -1 -1 -1 -1
 MicOpt= -1 -1 -1 -1 -1 -1 -1 -1 -1 -1
 NAtoms=     50 NQM=       50 NQMF=       0 NMMI=      0 NMMIF=      0
                NMic=       0 NMicF=      0.
                          Input orientation:                          
 ---------------------------------------------------------------------
 Center     Atomic      Atomic             Coordinates (Angstroms)
 Number     Number       Type             X           Y           Z
 ---------------------------------------------------------------------
      1          6           0       -0.191989   -1.194414   -8.136634
      2          1           0        0.061303   -1.639660   -9.094115
      3          1           0       -0.316733   -2.000471   -7.421451
      4          1           0       -1.141163   -0.679571   -8.239015
      5          6           0        0.895480   -0.216228   -7.712767
      6          1           0        1.844919   -0.734161   -7.588222
      7          1           0        1.031388    0.534209   -8.481065
      8          8           0        0.580853    0.491048   -6.544756
      9          6           0        0.710537   -0.203574   -5.342319
     10          1           0        1.690631   -0.670300   -5.265748
     11          1           0       -0.035897   -0.989170   -5.255069
     12          6           0        0.545695    0.810799   -4.222301
     13          1           0        1.327458    1.554671   -4.300696
     14          1           0       -0.408614    1.319070   -4.323426
     15          8           0        0.664937    0.203986   -2.964687
     16          6           0       -0.526520   -0.252073   -2.384517
     17          1           0       -1.005511   -0.989690   -3.025918
     18          1           0       -1.220903    0.573100   -2.245636
     19          6           0       -0.228538   -0.900925   -1.045762
     20          1           0        0.595340   -1.596612   -1.159147
     21          1           0       -1.098414   -1.468883   -0.740335
     22          8           0        0.000000    0.000000    0.000000
     23          6           0        1.165013    0.773331    0.000000
     24          1           0        1.095964    1.379265    0.894133
     25          1           0        1.182866    1.446478   -0.849425
     26          6           0        2.482250    0.000000    0.000000
     27          1           0        3.285419    0.717598    0.128877
     28          1           0        2.641966   -0.477531   -0.957962
     29         16           0        2.676050   -1.336136    1.218759
     30          6           0        2.385088   -0.493450    2.808676
     31          1           0        3.073222   -0.942512    3.512771
     32          1           0        2.664193    0.548184    2.715817
     33          6           0        0.946125   -0.628099    3.305485
     34          1           0        0.688414   -1.671694    3.429239
     35          1           0        0.254768   -0.223383    2.580769
     36         16           0        0.621552    0.278976    4.851319
     37          6           0        1.384052   -0.782673    6.119400
     38          1           0        1.492695   -0.141910    6.985005
     39          1           0        2.380716   -1.072532    5.815020
     40          6           0        0.551164   -2.014808    6.467019
     41          1           0       -0.445656   -1.725364    6.770443
     42          1           0        0.443215   -2.655752    5.601447
     43         16           0        1.308977   -3.078182    7.734812
     44          6           0        1.023156   -2.149900    9.274767
     45          1           0        1.658208   -2.639988   10.003207
     46          1           0        1.398800   -1.139829    9.165333
     47          6           0       -0.422492   -2.143292    9.762780
     48          1           0       -0.785172   -3.153741    9.910483
     49          1           0       -0.492084   -1.612603   10.708230
     50          1           0       -1.083499   -1.648354    9.060096
 ---------------------------------------------------------------------
 Stoichiometry    C14H30O3S3
 Framework group  C1[X(C14H30O3S3)]
 Standard basis: 6-31G(d) (6D, 7F)
   372 basis functions,   752 primitive gaussians,   372 cartesian basis functions
    93 alpha electrons       93 beta electrons
 Requested convergence on RMS density matrix=1.00D-08 within  64 cycles.
 Requested convergence on MAX density matrix=1.00D-06.
 Requested convergence on             energy=1.00D-06.
 SCF Done:  E(RHF) =  -1964.69035215     A.U. after   13 cycles
            NFock= 13  Conv=0.59D-08     -V/T= 2.0006
 Mulliken charges:
     1  C   -0.505940
     2  H    0.162148
     3  H    0.162553
     4  H    0.175175
     5  C    0.015438
     6  H    0.142118
     7  H    0.173878
     8  O   -0.634295
     9  C    0.010026
    10  H    0.149980
    11  H    0.141514
    12  C    0.000497
    13  H    0.182300
    14  H    0.160025
    15  O   -0.647053
    16  C   -0.012700
    17  H    0.142998
    18  H    0.161496
    19  C    0.002191
    20  H    0.167943
    21  H    0.176521
    22  O   -0.630933
    23  C    0.019763
    24  H    0.167687
    25  H    0.181660
    26  C   -0.519347
    27  H    0.193307
    28  H    0.215759
    29  S    0.117372
    30  C   -0.479987
    31  H    0.202162
    32  H    0.203498
    33  C   -0.483691
    34  H    0.201126
    35  H    0.242432
    36  S    0.106376
    37  C   -0.474569
    38  H    0.200572
    39  H    0.207440
    40  C   -0.475128
    41  H    0.209767
    42  H    0.203476
    43  S    0.111602
    44  C   -0.475644
    45  H    0.200260
    46  H    0.189057
    47  C   -0.475416
    48  H    0.180743
    49  H    0.167230
    50  H    0.166610
 Sum of Mulliken charges =  -0.00000
 Dipole moment (field-independent basis, Debye):
    X=             -0.6108    Y=              0.4798    Z=             -2.1975  Tot=              2.3307
 Quadrupole moment (field-independent basis, Debye-Ang):
   XX=           -152.3595   YY=           -158.3212   ZZ=           -121.8280
   XY=              7.6798   XZ=             -2.2259   YZ=             12.9313
 Traceless Quadrupole moment (field-independent basis, Debye-Ang):
   XX=             -8.1900   YY=            -14.1516   ZZ=             22.3415
   XY=              7.6798   XZ=             -2.2259   YZ=             12.9313
 Octapole moment (field-independent basis, Debye-Ang**2):
  XXX=           -432.3721  YYY=            386.9715  ZZZ=           -480.7811  XYY=           -157.2741
  XXY=            138.0673  XXZ=           -213.2066  XZZ=           -114.4162  YZZ=             92.5209
  YYZ=           -254.9582  XYZ=             25.9412
 Hexadecapole moment (field-independent basis, Debye-Ang**3):
 XXXX=          -1909.5734 YYYY=          -2071.1409 ZZZZ=         -23686.0050 XXXY=            421.6754
 XXXZ=           -950.3046 YYYX=            407.7207 YYYZ=           2300.6238 ZZZX=          -1023.1134
 ZZZY=           2440.0447 XXYY=           -666.8249 XXZZ=          -4938.3967 YYZZ=          -5352.4594
 XXYZ=            739.7447 YYXZ=           -398.7914 ZZXY=            196.3188
 Merz-Kollman atomic radii used.
 Atom Element Radius
    1     6    1.50
    2     1    1.20
    3     1    1.20
    4     1    1.20
    5     6    1.50
    6     1    1.20
    7     1    1.20
    8     8    1.40
    9     6    1.50
   10     1    1.20
   11     1    1.20
   12     6    1.50
   13     1    1.20
   14     1    1.20
   15     8    1.40
   16     6    1.50
   17     1    1.20
   18     1    1.20
   19     6    1.50
   20     1    1.20
   21     1    1.20
   22     8    1.40
   23     6    1.50
   24     1    1.20
   25     1    1.20
   26     6    1.50
   27     1    1.20
   28     1    1.20
   29    16    1.75
   30     6    1.50
   31     1    1.20
   32     1    1.20
   33     6    1.50
   34     1    1.20
   35     1    1.20
   36    16    1.75
   37     6    1.50
   38     1    1.20
   39     1    1.20
   40     6    1.50
   41     1    1.20
   42     1    1.20
   43    16    1.75
   44     6    1.50
   45     1    1.20
   46     1    1.20
   47     6    1.50
   48     1    1.20
   49     1    1.20
   50     1    1.20
 Generate VDW surfaces: Layer= 4 Dens= 1 Start= 1.400 Inc= 0.200
            Electrostatic Properties Using The SCF Density.


       Atomic Center    1 is at  -0.191989 -1.194414 -8.136634
       Atomic Center    2 is at   0.061303 -1.639660 -9.094115
       Atomic Center    3 is at  -0.316733 -2.000471 -7.421451
       Atomic Center    4 is at  -1.141163 -0.679571 -8.239015
       Atomic Center    5 is at   0.895480 -0.216228 -7.712767
       Atomic Center    6 is at   1.844919 -0.734161 -7.588222
       Atomic Center    7 is at   1.031388  0.534209 -8.481065
       Atomic Center    8 is at   0.580853  0.491048 -6.544756
       Atomic Center    9 is at   0.710537 -0.203574 -5.342319
       Atomic Center   10 is at   1.690631 -0.670300 -5.265748
       Atomic Center   11 is at  -0.035897 -0.989170 -5.255069
       Atomic Center   12 is at   0.545695  0.810799 -4.222301
       Atomic Center   13 is at   1.327458  1.554671 -4.300696
       Atomic Center   14 is at  -0.408614  1.319070 -4.323426
       Atomic Center   15 is at   0.664937  0.203986 -2.964687
       Atomic Center   16 is at  -0.526520 -0.252073 -2.384517
       Atomic Center   17 is at  -1.005511 -0.989690 -3.025918
       Atomic Center   18 is at  -1.220903  0.573100 -2.245636
       Atomic Center   19 is at  -0.228538 -0.900925 -1.045762
       Atomic Center   20 is at   0.595340 -1.596612 -1.159147
       Atomic Center   21 is at  -1.098414 -1.468883 -0.740335
       Atomic Center   22 is at   0.000000  0.000000  0.000000
       Atomic Center   23 is at   1.165013  0.773331  0.000000
       Atomic Center   24 is at   1.095964  1.379265  0.894133
       Atomic Center   25 is at   1.182866  1.446478 -0.849425
       Atomic Center   26 is at   2.482250  0.000000  0.000000
       Atomic Center   27 is at   3.285419  0.717598  0.128877
       Atomic Center   28 is at   2.641966 -0.477531 -0.957962
       Atomic Center   29 is at   2.676050 -1.336136  1.218759
       Atomic Center   30 is at   2.385088 -0.493450  2.808676
       Atomic Center   31 is at   3.073222 -0.942512  3.512771
       Atomic Center   32 is at   2.664193  0.548184  2.715817
       Atomic Center   33 is at   0.946125 -0.628099  3.305485
       Atomic Center   34 is at   0.688414 -1.671694  3.429239
       Atomic Center   35 is at   0.254768 -0.223383  2.580769
       Atomic Center   36 is at   0.621552  0.278976  4.851319
       Atomic Center   37 is at   1.384052 -0.782673  6.119400
       Atomic Center   38 is at   1.492695 -0.141910  6.985005
       Atomic Center   39 is at   2.380716 -1.072532  5.815020
       Atomic Center   40 is at   0.551164 -2.014808  6.467019
       Atomic Center   41 is at  -0.445656 -1.725364  6.770443
       Atomic Center   42 is at   0.443215 -2.655752  5.601447
       Atomic Center   43 is at   1.308977 -3.078182  7.734812
       Atomic Center   44 is at   1.023156 -2.149900  9.274767
       Atomic Center   45 is at   1.658208 -2.639988 10.003207
       Atomic Center   46 is at   1.398800 -1.139829  9.165333
       Atomic Center   47 is at  -0.422492 -2.143292  9.762780
       Atomic Center   48 is at  -0.785172 -3.153741  9.910483
       Atomic Center   49 is at  -0.492084 -1.612603 10.708230
       Atomic Center   50 is at  -1.083499 -1.648354  9.060096
      ESP Fit Center   51 is at  -1.936974 -1.706788 -7.086634
      ESP Fit Center   52 is at  -1.763862 -2.586972 -8.136634
      ESP Fit Center   53 is at   1.000947 -2.922680 -8.136634
      ESP Fit Center   54 is at  -1.382954 -2.568860 -9.186634
      ESP Fit Center   55 is at  -0.716989 -0.285087 -9.955287
      ESP Fit Center   56 is at   0.338754 -3.213161 -8.574966
      ESP Fit Center   57 is at   1.285270 -2.666690 -8.574966
      ESP Fit Center   58 is at   1.659078 -1.639660 -9.613264
      ESP Fit Center   59 is at  -1.440114 -2.186131 -9.613264
      ESP Fit Center   60 is at  -0.737584 -3.023374 -9.613264
      ESP Fit Center   61 is at   0.338754 -3.213161 -9.613264
      ESP Fit Center   62 is at   1.285270 -2.666690 -9.613264
      ESP Fit Center   63 is at   1.048782 -1.639660-10.453264
      ESP Fit Center   64 is at   0.366451 -0.700511-10.453264
      ESP Fit Center   65 is at  -0.737584 -1.059234-10.453264
      ESP Fit Center   66 is at  -0.737584 -2.220086-10.453264
      ESP Fit Center   67 is at   0.366451 -2.578809-10.453264
      ESP Fit Center   68 is at   0.061303 -1.639660-10.774115
      ESP Fit Center   69 is at  -1.115620 -2.580897 -6.062302
      ESP Fit Center   70 is at  -0.011585 -2.939620 -6.062302
      ESP Fit Center   71 is at  -1.818150 -2.546942 -6.902302
      ESP Fit Center   72 is at  -1.115620 -3.384185 -6.902302
      ESP Fit Center   73 is at  -0.039282 -3.573972 -6.902302
      ESP Fit Center   74 is at   0.907234 -3.027501 -6.902302
      ESP Fit Center   75 is at  -1.818150 -2.546942 -7.940600
      ESP Fit Center   76 is at  -1.115620 -3.384185 -7.940600
      ESP Fit Center   77 is at  -0.039282 -3.573972 -7.940600
      ESP Fit Center   78 is at   0.907234 -3.027501 -7.940600
      ESP Fit Center   79 is at  -1.940050 -0.099145 -6.879866
      ESP Fit Center   80 is at  -1.940050 -1.259997 -6.879866
      ESP Fit Center   81 is at  -1.940050  0.704143 -7.719866
      ESP Fit Center   82 is at  -2.642580 -0.133100 -7.719866
      ESP Fit Center   83 is at  -2.642580 -1.226042 -7.719866
      ESP Fit Center   84 is at  -0.863712  0.893930 -8.758164
      ESP Fit Center   85 is at  -1.940050  0.704143 -8.758164
      ESP Fit Center   86 is at  -2.642580 -0.133100 -8.758164
      ESP Fit Center   87 is at  -2.642580 -1.226042 -8.758164
      ESP Fit Center   88 is at  -0.836015  0.259578 -9.598164
      ESP Fit Center   89 is at  -1.940050 -0.099145 -9.598164
      ESP Fit Center   90 is at  -1.940050 -1.259997 -9.598164
      ESP Fit Center   91 is at   2.754938  0.759691 -7.712767
      ESP Fit Center   92 is at   3.442694 -0.734161 -7.069073
      ESP Fit Center   93 is at   3.068886  0.292869 -7.069073
      ESP Fit Center   94 is at   2.122370 -2.307662 -7.069073
      ESP Fit Center   95 is at   3.068886 -1.761191 -7.069073
      ESP Fit Center   96 is at   3.442694 -0.734161 -8.107371
      ESP Fit Center   97 is at   3.068886  0.292869 -8.107371
      ESP Fit Center   98 is at   2.122370 -2.307662 -8.107371
      ESP Fit Center   99 is at   3.068886 -1.761191 -8.107371
      ESP Fit Center  100 is at   2.832398 -0.734161 -8.947371
      ESP Fit Center  101 is at   2.150067 -1.673310 -8.947371
      ESP Fit Center  102 is at   2.255355  1.561239 -7.961916
      ESP Fit Center  103 is at   1.308839  2.107710 -7.961916
      ESP Fit Center  104 is at   0.232501  1.917923 -7.961916
      ESP Fit Center  105 is at   2.629163  0.534209 -9.000214
      ESP Fit Center  106 is at   2.255355  1.561239 -9.000214
      ESP Fit Center  107 is at   1.308839  2.107710 -9.000214
      ESP Fit Center  108 is at   0.232501  1.917923 -9.000214
      ESP Fit Center  109 is at  -0.470029  1.080680 -9.000214
      ESP Fit Center  110 is at   2.018867  0.534209 -9.840214
      ESP Fit Center  111 is at   1.336536  1.473358 -9.840214
      ESP Fit Center  112 is at   0.232501  1.114635 -9.840214
      ESP Fit Center  113 is at   1.336536 -0.404940 -9.840214
      ESP Fit Center  114 is at   1.031388  0.534209-10.161065
      ESP Fit Center  115 is at   2.540853  0.491048 -6.544756
      ESP Fit Center  116 is at   2.278263  1.471048 -6.544756
      ESP Fit Center  117 is at   1.560853  2.188458 -6.544756
      ESP Fit Center  118 is at   0.580853  2.451048 -6.544756
      ESP Fit Center  119 is at  -0.399147  2.188458 -6.544756
      ESP Fit Center  120 is at  -1.116557  1.471048 -6.544756
      ESP Fit Center  121 is at  -1.379147  0.491048 -6.544756
      ESP Fit Center  122 is at   1.105381  2.105381 -7.524756
      ESP Fit Center  123 is at   0.056325  2.105381 -7.524756
      ESP Fit Center  124 is at  -0.792380  1.488760 -7.524756
      ESP Fit Center  125 is at   2.569995  0.772345 -5.342319
      ESP Fit Center  126 is at  -1.328441  0.298989 -5.342319
      ESP Fit Center  127 is at   2.678110 -0.670300 -3.906599
      ESP Fit Center  128 is at   1.995779 -1.609449 -3.906599
      ESP Fit Center  129 is at   3.288406 -0.670300 -4.746599
      ESP Fit Center  130 is at   2.914598  0.356730 -4.746599
      ESP Fit Center  131 is at   1.968082 -2.243801 -4.746599
      ESP Fit Center  132 is at   2.914598 -1.697330 -4.746599
      ESP Fit Center  133 is at   3.288406 -0.670300 -5.784897
      ESP Fit Center  134 is at   2.914598  0.356730 -5.784897
      ESP Fit Center  135 is at   1.968082 -2.243801 -5.784897
      ESP Fit Center  136 is at   2.914598 -1.697330 -5.784897
      ESP Fit Center  137 is at   0.269251 -1.928319 -3.895920
      ESP Fit Center  138 is at  -1.537314 -0.442699 -4.735920
      ESP Fit Center  139 is at  -1.537314 -1.535641 -4.735920
      ESP Fit Center  140 is at  -0.834784 -2.372884 -4.735920
      ESP Fit Center  141 is at   0.241554 -2.562671 -4.735920
      ESP Fit Center  142 is at  -1.537314 -0.442699 -5.774218
      ESP Fit Center  143 is at  -1.537314 -1.535641 -5.774218
      ESP Fit Center  144 is at  -0.834784 -2.372884 -5.774218
      ESP Fit Center  145 is at   0.241554 -2.562671 -5.774218
      ESP Fit Center  146 is at   0.286874  2.610941 -3.172301
      ESP Fit Center  147 is at   0.286874  2.610941 -5.272301
      ESP Fit Center  148 is at   2.314937  1.554671 -2.941547
      ESP Fit Center  149 is at   1.632606  2.493820 -2.941547
      ESP Fit Center  150 is at   2.925233  1.554671 -3.781547
      ESP Fit Center  151 is at   2.551425  2.581701 -3.781547
      ESP Fit Center  152 is at   1.604909  3.128172 -3.781547
      ESP Fit Center  153 is at   0.528571  2.938385 -3.781547
      ESP Fit Center  154 is at   2.925233  1.554671 -4.819845
      ESP Fit Center  155 is at   2.551425  2.581701 -4.819845
      ESP Fit Center  156 is at   1.604909  3.128172 -4.819845
      ESP Fit Center  157 is at   0.528571  2.938385 -4.819845
      ESP Fit Center  158 is at   2.314937  1.554671 -5.659845
      ESP Fit Center  159 is at   1.632606  2.493820 -5.659845
      ESP Fit Center  160 is at  -0.131163  2.892571 -3.804277
      ESP Fit Center  161 is at  -1.207501  2.702784 -3.804277
      ESP Fit Center  162 is at  -1.910031  1.865541 -3.804277
      ESP Fit Center  163 is at  -1.910031  0.772599 -3.804277
      ESP Fit Center  164 is at  -0.131163  2.892571 -4.842575
      ESP Fit Center  165 is at  -1.207501  2.702784 -4.842575
      ESP Fit Center  166 is at  -1.910031  1.865541 -4.842575
      ESP Fit Center  167 is at  -1.910031  0.772599 -4.842575
      ESP Fit Center  168 is at  -0.103466  2.258219 -5.682575
      ESP Fit Center  169 is at  -1.207501  1.899496 -5.682575
      ESP Fit Center  170 is at  -1.207501  0.738644 -5.682575
      ESP Fit Center  171 is at   2.624937  0.203986 -2.964687
      ESP Fit Center  172 is at   2.362347  1.183986 -2.964687
      ESP Fit Center  173 is at   1.644937 -1.493424 -2.964687
      ESP Fit Center  174 is at   2.362347 -0.776014 -2.964687
      ESP Fit Center  175 is at  -2.565498 -0.754636 -2.384517
      ESP Fit Center  176 is at  -2.506928 -1.536161 -2.506769
      ESP Fit Center  177 is at  -1.804398 -2.373404 -2.506769
      ESP Fit Center  178 is at  -0.728060 -2.563191 -2.506769
      ESP Fit Center  179 is at  -2.506928 -0.443219 -3.545067
      ESP Fit Center  180 is at  -2.506928 -1.536161 -3.545067
      ESP Fit Center  181 is at  -1.804398 -2.373404 -3.545067
      ESP Fit Center  182 is at  -0.728060 -2.563191 -3.545067
      ESP Fit Center  183 is at   0.218456 -2.016720 -3.545067
      ESP Fit Center  184 is at  -1.804398 -0.409264 -4.385067
      ESP Fit Center  185 is at  -1.804398 -1.570116 -4.385067
      ESP Fit Center  186 is at  -0.915755  1.512249 -0.886487
      ESP Fit Center  187 is at  -2.019790  1.153526 -0.886487
      ESP Fit Center  188 is at  -0.943452  2.146601 -1.726487
      ESP Fit Center  189 is at  -2.019790  1.956814 -1.726487
      ESP Fit Center  190 is at  -2.722320  1.119571 -1.726487
      ESP Fit Center  191 is at  -2.722320  0.026629 -1.726487
      ESP Fit Center  192 is at  -0.943452  2.146601 -2.764785
      ESP Fit Center  193 is at  -2.019790  1.956814 -2.764785
      ESP Fit Center  194 is at  -2.722320  1.119571 -2.764785
      ESP Fit Center  195 is at  -2.722320  0.026629 -2.764785
      ESP Fit Center  196 is at  -2.019790  1.153526 -3.604785
      ESP Fit Center  197 is at   0.296462 -1.810252  0.772891
      ESP Fit Center  198 is at  -0.487359 -2.701067 -2.095762
      ESP Fit Center  199 is at  -0.203547 -2.980326 -0.639998
      ESP Fit Center  200 is at   0.872791 -3.170113 -0.639998
      ESP Fit Center  201 is at  -0.203547 -2.980326 -1.678296
      ESP Fit Center  202 is at   0.872791 -3.170113 -1.678296
      ESP Fit Center  203 is at   1.819307 -2.623642 -1.678296
      ESP Fit Center  204 is at   1.582819 -1.596612 -2.518296
      ESP Fit Center  205 is at   0.900488 -2.535761 -2.518296
      ESP Fit Center  206 is at  -1.098414 -1.468883  0.939665
      ESP Fit Center  207 is at  -1.897301 -0.888457  0.618814
      ESP Fit Center  208 is at  -1.897301 -2.049309  0.618814
      ESP Fit Center  209 is at  -0.793266 -2.408032  0.618814
      ESP Fit Center  210 is at  -2.599831 -0.922412 -0.221186
      ESP Fit Center  211 is at  -2.599831 -2.015354 -0.221186
      ESP Fit Center  212 is at  -1.897301 -2.852597 -0.221186
      ESP Fit Center  213 is at  -0.820963 -3.042384 -0.221186
      ESP Fit Center  214 is at  -2.599831 -0.922412 -1.259484
      ESP Fit Center  215 is at  -2.599831 -2.015354 -1.259484
      ESP Fit Center  216 is at  -1.897301 -2.852597 -1.259484
      ESP Fit Center  217 is at  -0.820963 -3.042384 -1.259484
      ESP Fit Center  218 is at  -1.373233  0.997712  0.980000
      ESP Fit Center  219 is at  -1.697410  0.000000  0.980000
      ESP Fit Center  220 is at  -1.373233 -0.997712  0.980000
      ESP Fit Center  221 is at  -0.524528 -1.614333  0.980000
      ESP Fit Center  222 is at  -0.980000  1.697410  0.000000
      ESP Fit Center  223 is at  -1.697410  0.980000  0.000000
      ESP Fit Center  224 is at  -1.960000  0.000000  0.000000
      ESP Fit Center  225 is at  -0.524528  1.614333 -0.980000
      ESP Fit Center  226 is at   2.357949  2.501597  0.000000
      ESP Fit Center  227 is at   0.420343  2.736865  0.000000
      ESP Fit Center  228 is at  -0.406860  2.165889  0.000000
      ESP Fit Center  229 is at   1.095964  1.379265  2.574133
      ESP Fit Center  230 is at   1.401112  2.318414  2.253282
      ESP Fit Center  231 is at   0.297077  1.959691  2.253282
      ESP Fit Center  232 is at   2.319931  2.406295  1.413282
      ESP Fit Center  233 is at   1.373415  2.952766  1.413282
      ESP Fit Center  234 is at   0.297077  2.762979  1.413282
      ESP Fit Center  235 is at  -0.405453  1.925736  1.413282
      ESP Fit Center  236 is at   1.373415  2.952766  0.374984
      ESP Fit Center  237 is at   0.297077  2.762979  0.374984
      ESP Fit Center  238 is at   2.406833  2.473508 -0.330276
      ESP Fit Center  239 is at   1.460317  3.019979 -0.330276
      ESP Fit Center  240 is at   0.383979  2.830192 -0.330276
      ESP Fit Center  241 is at   2.406833  2.473508 -1.368574
      ESP Fit Center  242 is at   1.460317  3.019979 -1.368574
      ESP Fit Center  243 is at   0.383979  2.830192 -1.368574
      ESP Fit Center  244 is at  -0.318551  1.992949 -1.368574
      ESP Fit Center  245 is at   2.170345  1.446478 -2.208574
      ESP Fit Center  246 is at   1.488014  2.385627 -2.208574
      ESP Fit Center  247 is at   0.383979  2.026904 -2.208574
      ESP Fit Center  248 is at   4.300903  0.000000 -1.050000
      ESP Fit Center  249 is at   4.272898  0.717598  1.488026
      ESP Fit Center  250 is at   3.590567  1.656747  1.488026
      ESP Fit Center  251 is at   4.883194  0.717598  0.648026
      ESP Fit Center  252 is at   4.509386  1.744628  0.648026
      ESP Fit Center  253 is at   3.562870  2.291099  0.648026
      ESP Fit Center  254 is at   4.883194  0.717598 -0.390272
      ESP Fit Center  255 is at   4.509386  1.744628 -0.390272
      ESP Fit Center  256 is at   3.562870  2.291099 -0.390272
      ESP Fit Center  257 is at   4.272898  0.717598 -1.230272
      ESP Fit Center  258 is at   3.590567  1.656747 -1.230272
      ESP Fit Center  259 is at   4.239741 -0.477531 -1.477111
      ESP Fit Center  260 is at   2.919417 -2.051032 -1.477111
      ESP Fit Center  261 is at   3.865933 -1.504561 -1.477111
      ESP Fit Center  262 is at   3.629445 -0.477531 -2.317111
      ESP Fit Center  263 is at   2.947114  0.461618 -2.317111
      ESP Fit Center  264 is at   2.947114 -1.416680 -2.317111
      ESP Fit Center  265 is at   2.641966 -0.477531 -2.637962
      ESP Fit Center  266 is at   4.591537 -1.336136  2.746309
      ESP Fit Center  267 is at   2.403448 -3.232126  2.746309
      ESP Fit Center  268 is at   3.471772 -3.078524  2.746309
      ESP Fit Center  269 is at   4.287460 -2.371727  2.746309
      ESP Fit Center  270 is at   5.064623 -1.336136  1.763935
      ESP Fit Center  271 is at   4.828080 -0.299773  1.763935
      ESP Fit Center  272 is at   4.165301  0.531326  1.763935
      ESP Fit Center  273 is at   0.524020 -2.372499  1.763935
      ESP Fit Center  274 is at   1.186799 -3.203598  1.763935
      ESP Fit Center  275 is at   2.144542 -3.664823  1.763935
      ESP Fit Center  276 is at   3.207558 -3.664823  1.763935
      ESP Fit Center  277 is at   4.165301 -3.203598  1.763935
      ESP Fit Center  278 is at   4.828080 -2.372499  1.763935
      ESP Fit Center  279 is at   5.064623 -1.336136  0.673583
      ESP Fit Center  280 is at   4.828080 -0.299773  0.673583
      ESP Fit Center  281 is at   0.524020 -2.372499  0.673583
      ESP Fit Center  282 is at   1.186799 -3.203598  0.673583
      ESP Fit Center  283 is at   2.144542 -3.664823  0.673583
      ESP Fit Center  284 is at   3.207558 -3.664823  0.673583
      ESP Fit Center  285 is at   4.165301 -3.203598  0.673583
      ESP Fit Center  286 is at   4.828080 -2.372499  0.673583
      ESP Fit Center  287 is at   4.591537 -1.336136 -0.308791
      ESP Fit Center  288 is at   2.403448 -3.232126 -0.308791
      ESP Fit Center  289 is at   3.471772 -3.078524 -0.308791
      ESP Fit Center  290 is at   4.287460 -2.371727 -0.308791
      ESP Fit Center  291 is at   2.144542 -2.256734 -0.988615
      ESP Fit Center  292 is at   3.207558 -2.256734 -0.988615
      ESP Fit Center  293 is at   3.915037  0.489788  3.858676
      ESP Fit Center  294 is at   4.060701 -0.942512  4.871920
      ESP Fit Center  295 is at   3.378370 -0.003363  4.871920
      ESP Fit Center  296 is at   4.670997 -0.942512  4.031920
      ESP Fit Center  297 is at   4.297189  0.084518  4.031920
      ESP Fit Center  298 is at   2.274335 -2.326226  4.031920
      ESP Fit Center  299 is at   3.350673 -2.516013  4.031920
      ESP Fit Center  300 is at   4.297189 -1.969542  4.031920
      ESP Fit Center  301 is at   4.670997 -0.942512  2.993622
      ESP Fit Center  302 is at   4.297189 -1.969542  2.993622
      ESP Fit Center  303 is at   2.969341  1.487333  4.074966
      ESP Fit Center  304 is at   4.261968  0.548184  3.234966
      ESP Fit Center  305 is at   3.888160  1.575214  3.234966
      ESP Fit Center  306 is at   2.941644  2.121685  3.234966
      ESP Fit Center  307 is at   1.865306  1.931898  3.234966
      ESP Fit Center  308 is at   4.261968  0.548184  2.196668
      ESP Fit Center  309 is at   3.888160  1.575214  2.196668
      ESP Fit Center  310 is at   2.941644  2.121685  2.196668
      ESP Fit Center  311 is at  -1.092853 -1.130662  3.305485
      ESP Fit Center  312 is at  -0.813003 -2.218165  3.948388
      ESP Fit Center  313 is at  -0.110473 -3.055408  3.948388
      ESP Fit Center  314 is at   0.965865 -3.245195  3.948388
      ESP Fit Center  315 is at   1.912381 -2.698724  3.948388
      ESP Fit Center  316 is at  -0.813003 -2.218165  2.910090
      ESP Fit Center  317 is at  -0.110473 -3.055408  2.910090
      ESP Fit Center  318 is at   0.965865 -3.245195  2.910090
      ESP Fit Center  319 is at  -0.110473 -2.252120  2.070090
      ESP Fit Center  320 is at  -1.246649  0.323088  3.099918
      ESP Fit Center  321 is at  -1.246649 -0.769854  3.099918
      ESP Fit Center  322 is at  -0.544119  1.160331  2.061620
      ESP Fit Center  323 is at  -1.246649  0.323088  2.061620
      ESP Fit Center  324 is at  -1.246649 -0.769854  2.061620
      ESP Fit Center  325 is at  -0.544119 -1.607097  2.061620
      ESP Fit Center  326 is at   0.090044  1.199574  7.058693
      ESP Fit Center  327 is at  -0.441463  0.278976  7.058693
      ESP Fit Center  328 is at   2.232962  1.314567  6.378869
      ESP Fit Center  329 is at   1.417274  2.021364  6.378869
      ESP Fit Center  330 is at   0.348950  2.174966  6.378869
      ESP Fit Center  331 is at  -0.632825  1.726605  6.378869
      ESP Fit Center  332 is at  -1.216344  0.818631  6.378869
      ESP Fit Center  333 is at  -1.216344 -0.260679  6.378869
      ESP Fit Center  334 is at   2.773582  1.315339  5.396495
      ESP Fit Center  335 is at   2.110803  2.146438  5.396495
      ESP Fit Center  336 is at   1.153060  2.607663  5.396495
      ESP Fit Center  337 is at   0.090044  2.607663  5.396495
      ESP Fit Center  338 is at  -0.867699  2.146438  5.396495
      ESP Fit Center  339 is at  -1.530478  1.315339  5.396495
      ESP Fit Center  340 is at  -1.767021  0.278976  5.396495
      ESP Fit Center  341 is at  -1.530478 -0.757387  5.396495
      ESP Fit Center  342 is at   2.773582  1.315339  4.306143
      ESP Fit Center  343 is at   2.110803  2.146438  4.306143
      ESP Fit Center  344 is at   1.153060  2.607663  4.306143
      ESP Fit Center  345 is at   0.090044  2.607663  4.306143
      ESP Fit Center  346 is at  -0.867699  2.146438  4.306143
      ESP Fit Center  347 is at  -1.530478  1.315339  4.306143
      ESP Fit Center  348 is at  -1.767021  0.278976  4.306143
      ESP Fit Center  349 is at  -1.530478 -0.757387  4.306143
      ESP Fit Center  350 is at  -0.867699 -1.588486  4.306143
      ESP Fit Center  351 is at   1.417274  2.021364  3.323769
      ESP Fit Center  352 is at   0.348950  2.174966  3.323769
      ESP Fit Center  353 is at  -0.632825  1.726605  3.323769
      ESP Fit Center  354 is at  -1.216344  0.818631  3.323769
      ESP Fit Center  355 is at   2.480174 -0.141910  8.344154
      ESP Fit Center  356 is at   1.797843  0.797239  8.344154
      ESP Fit Center  357 is at   0.693808  0.438516  8.344154
      ESP Fit Center  358 is at   3.090470 -0.141910  7.504154
      ESP Fit Center  359 is at   2.716662  0.885120  7.504154
      ESP Fit Center  360 is at   1.770146  1.431591  7.504154
      ESP Fit Center  361 is at   0.693808  1.241804  7.504154
      ESP Fit Center  362 is at  -0.008722  0.404561  7.504154
      ESP Fit Center  363 is at   2.716662  0.885120  6.465856
      ESP Fit Center  364 is at   3.368195 -1.072532  7.174169
      ESP Fit Center  365 is at   3.978491 -1.072532  6.334169
      ESP Fit Center  366 is at   3.604683 -0.045502  6.334169
      ESP Fit Center  367 is at   3.604683 -2.099562  6.334169
      ESP Fit Center  368 is at   3.978491 -1.072532  5.295871
      ESP Fit Center  369 is at   3.604683 -0.045502  5.295871
      ESP Fit Center  370 is at   2.658167 -2.646033  5.295871
      ESP Fit Center  371 is at   3.604683 -2.099562  5.295871
      ESP Fit Center  372 is at  -1.020709 -3.407366  6.467019
      ESP Fit Center  373 is at  -1.244543 -0.341650  7.289592
      ESP Fit Center  374 is at  -1.947073 -1.178893  7.289592
      ESP Fit Center  375 is at  -1.947073 -2.271835  7.289592
      ESP Fit Center  376 is at  -1.244543 -3.109078  7.289592
      ESP Fit Center  377 is at  -1.947073 -1.178893  6.251294
      ESP Fit Center  378 is at  -1.947073 -2.271835  6.251294
      ESP Fit Center  379 is at  -1.244543 -3.109078  6.251294
      ESP Fit Center  380 is at  -1.244543 -2.305790  5.411294
      ESP Fit Center  381 is at  -0.355672 -4.039466  6.120596
      ESP Fit Center  382 is at   2.040990 -2.655752  5.082298
      ESP Fit Center  383 is at  -1.058202 -2.109281  5.082298
      ESP Fit Center  384 is at  -1.058202 -3.202223  5.082298
      ESP Fit Center  385 is at  -0.355672 -4.039466  5.082298
      ESP Fit Center  386 is at   0.720666 -4.229253  5.082298
      ESP Fit Center  387 is at   1.667182 -3.682782  5.082298
      ESP Fit Center  388 is at  -0.355672 -3.236178  4.242298
      ESP Fit Center  389 is at   0.748363 -3.594901  4.242298
      ESP Fit Center  390 is at   3.224464 -3.078182  9.262362
      ESP Fit Center  391 is at   0.054600 -4.525811  9.262362
      ESP Fit Center  392 is at   1.036375 -4.974172  9.262362
      ESP Fit Center  393 is at   2.104699 -4.820570  9.262362
      ESP Fit Center  394 is at   2.920387 -4.113773  9.262362
      ESP Fit Center  395 is at   3.697550 -3.078182  8.279988
      ESP Fit Center  396 is at   3.461007 -2.041819  8.279988
      ESP Fit Center  397 is at  -0.843053 -4.114545  8.279988
      ESP Fit Center  398 is at  -0.180274 -4.945644  8.279988
      ESP Fit Center  399 is at   0.777469 -5.406869  8.279988
      ESP Fit Center  400 is at   1.840485 -5.406869  8.279988
      ESP Fit Center  401 is at   2.798228 -4.945644  8.279988
      ESP Fit Center  402 is at   3.461007 -4.114545  8.279988
      ESP Fit Center  403 is at   3.697550 -3.078182  7.189636
      ESP Fit Center  404 is at   3.461007 -2.041819  7.189636
      ESP Fit Center  405 is at  -0.843053 -4.114545  7.189636
      ESP Fit Center  406 is at  -0.180274 -4.945644  7.189636
      ESP Fit Center  407 is at   0.777469 -5.406869  7.189636
      ESP Fit Center  408 is at   1.840485 -5.406869  7.189636
      ESP Fit Center  409 is at   2.798228 -4.945644  7.189636
      ESP Fit Center  410 is at   3.461007 -4.114545  7.189636
      ESP Fit Center  411 is at   3.224464 -3.078182  6.207262
      ESP Fit Center  412 is at   0.054600 -4.525811  6.207262
      ESP Fit Center  413 is at   1.036375 -4.974172  6.207262
      ESP Fit Center  414 is at   2.104699 -4.820570  6.207262
      ESP Fit Center  415 is at   2.920387 -4.113773  6.207262
      ESP Fit Center  416 is at   2.371992 -3.078182  5.527438
      ESP Fit Center  417 is at   1.840485 -3.998780  5.527438
      ESP Fit Center  418 is at   1.548156 -1.240573 11.093420
      ESP Fit Center  419 is at   3.123156 -2.149900  9.274767
      ESP Fit Center  420 is at   1.658208 -2.639988 11.683207
      ESP Fit Center  421 is at   2.645687 -2.639988 11.362356
      ESP Fit Center  422 is at   1.963356 -1.700839 11.362356
      ESP Fit Center  423 is at   0.859321 -3.220414 11.362356
      ESP Fit Center  424 is at   1.963356 -3.579137 11.362356
      ESP Fit Center  425 is at   3.255983 -2.639988 10.522356
      ESP Fit Center  426 is at   2.882175 -1.612958 10.522356
      ESP Fit Center  427 is at   0.859321 -4.023702 10.522356
      ESP Fit Center  428 is at   1.935659 -4.213489 10.522356
      ESP Fit Center  429 is at   2.882175 -3.667018 10.522356
      ESP Fit Center  430 is at   3.255983 -2.639988  9.484058
      ESP Fit Center  431 is at   2.386279 -1.139829 10.524482
      ESP Fit Center  432 is at   1.703948 -0.200680 10.524482
      ESP Fit Center  433 is at   2.996575 -1.139829  9.684482
      ESP Fit Center  434 is at   2.622767 -0.112799  9.684482
      ESP Fit Center  435 is at   1.676251  0.433672  9.684482
      ESP Fit Center  436 is at   0.599913  0.243885  9.684482
      ESP Fit Center  437 is at   2.996575 -1.139829  8.646184
      ESP Fit Center  438 is at   2.622767 -0.112799  8.646184
      ESP Fit Center  439 is at   1.676251  0.433672  8.646184
      ESP Fit Center  440 is at   0.599913  0.243885  8.646184
      ESP Fit Center  441 is at  -0.947492 -3.052619 11.581433
      ESP Fit Center  442 is at   0.102508 -3.052619 11.581433
      ESP Fit Center  443 is at  -2.167477 -2.655666 10.812780
      ESP Fit Center  444 is at  -0.169365 -0.058603  9.762780
      ESP Fit Center  445 is at  -2.461470 -2.645855  9.762780
      ESP Fit Center  446 is at  -0.785172 -3.153741 11.590483
      ESP Fit Center  447 is at  -1.584059 -3.734167 11.269632
      ESP Fit Center  448 is at  -0.480024 -4.092890 11.269632
      ESP Fit Center  449 is at  -2.286589 -3.700212 10.429632
      ESP Fit Center  450 is at  -1.584059 -4.537455 10.429632
      ESP Fit Center  451 is at  -0.507721 -4.727242 10.429632
      ESP Fit Center  452 is at   0.438795 -4.180771 10.429632
      ESP Fit Center  453 is at  -2.286589 -3.700212  9.391334
      ESP Fit Center  454 is at  -1.584059 -4.537455  9.391334
      ESP Fit Center  455 is at  -0.507721 -4.727242  9.391334
      ESP Fit Center  456 is at  -1.584059 -3.734167  8.551334
      ESP Fit Center  457 is at  -0.492084 -1.612603 12.388230
      ESP Fit Center  458 is at   0.495395 -1.612603 12.067379
      ESP Fit Center  459 is at  -0.186936 -0.673454 12.067379
      ESP Fit Center  460 is at  -1.290971 -1.032177 12.067379
      ESP Fit Center  461 is at  -1.290971 -2.193029 12.067379
      ESP Fit Center  462 is at  -0.186936 -2.551752 12.067379
      ESP Fit Center  463 is at   0.731883 -0.585573 11.227379
      ESP Fit Center  464 is at  -0.214633 -0.039102 11.227379
      ESP Fit Center  465 is at  -1.290971 -0.228889 11.227379
      ESP Fit Center  466 is at  -1.993501 -1.066132 11.227379
      ESP Fit Center  467 is at  -1.993501 -2.159074 11.227379
      ESP Fit Center  468 is at  -0.214633 -0.039102 10.189081
      ESP Fit Center  469 is at  -1.290971 -0.228889 10.189081
      ESP Fit Center  470 is at  -0.806048 -0.074853  9.579245
      ESP Fit Center  471 is at  -1.882386 -0.264640  9.579245
      ESP Fit Center  472 is at  -2.584916 -1.101883  9.579245
      ESP Fit Center  473 is at  -2.584916 -2.194825  9.579245
      ESP Fit Center  474 is at  -0.806048 -0.074853  8.540947
      ESP Fit Center  475 is at  -1.882386 -0.264640  8.540947
      ESP Fit Center  476 is at  -2.584916 -1.101883  8.540947
      ESP Fit Center  477 is at  -2.584916 -2.194825  8.540947
      ESP Fit Center  478 is at  -1.882386 -3.032068  8.540947
      ESP Fit Center  479 is at  -1.882386 -1.067928  7.700947
      ESP Fit Center  480 is at  -1.882386 -2.228780  7.700947
      ESP Fit Center  481 is at  -2.300100 -2.209627 -7.602584
      ESP Fit Center  482 is at  -2.300100 -2.209627 -8.670684
      ESP Fit Center  483 is at  -1.650847 -3.023764 -8.670684
      ESP Fit Center  484 is at  -0.712649 -3.475577 -8.670684
      ESP Fit Center  485 is at  -1.992377 -1.723056 -9.633010
      ESP Fit Center  486 is at  -0.712649 -0.292604-10.298959
      ESP Fit Center  487 is at  -0.898697 -3.302429 -9.094115
      ESP Fit Center  488 is at   0.061303 -3.559660 -9.094115
      ESP Fit Center  489 is at   1.021303 -3.302429 -9.094115
      ESP Fit Center  490 is at   1.724072 -2.599660 -9.094115
      ESP Fit Center  491 is at   1.724072 -1.639660-10.054115
      ESP Fit Center  492 is at   1.406511 -0.662309-10.054115
      ESP Fit Center  493 is at  -1.601466 -1.639660-10.054115
      ESP Fit Center  494 is at  -1.283905 -2.617011-10.054115
      ESP Fit Center  495 is at  -0.452521 -3.221047-10.054115
      ESP Fit Center  496 is at   0.575127 -3.221047-10.054115
      ESP Fit Center  497 is at   1.406511 -2.617011-10.054115
      ESP Fit Center  498 is at   1.021303 -1.639660-10.756884
      ESP Fit Center  499 is at   0.541303 -0.808276-10.756884
      ESP Fit Center  500 is at  -0.418697 -0.808276-10.756884
      ESP Fit Center  501 is at  -0.898697 -1.639660-10.756884
      ESP Fit Center  502 is at  -0.418697 -2.471044-10.756884
      ESP Fit Center  503 is at   0.541303 -2.471044-10.756884
      ESP Fit Center  504 is at   0.061303 -1.639660-11.014115
      ESP Fit Center  505 is at  -0.796733 -2.831855 -5.758682
      ESP Fit Center  506 is at   0.163267 -2.831855 -5.758682
      ESP Fit Center  507 is at  -1.979502 -2.000471 -6.461451
      ESP Fit Center  508 is at  -1.661941 -2.977822 -6.461451
      ESP Fit Center  509 is at  -0.830557 -3.581858 -6.461451
      ESP Fit Center  510 is at   0.197091 -3.581858 -6.461451
      ESP Fit Center  511 is at   1.028475 -2.977822 -6.461451
      ESP Fit Center  512 is at  -1.979502 -2.960471 -7.421451
      ESP Fit Center  513 is at  -1.276733 -3.663240 -7.421451
      ESP Fit Center  514 is at  -0.316733 -3.920471 -7.421451
      ESP Fit Center  515 is at   0.643267 -3.663240 -7.421451
      ESP Fit Center  516 is at   1.346036 -2.960471 -7.421451
      ESP Fit Center  517 is at  -0.830557 -3.581858 -8.381451
      ESP Fit Center  518 is at   0.197091 -3.581858 -8.381451
      ESP Fit Center  519 is at  -2.101163 -0.679571 -6.576246
      ESP Fit Center  520 is at  -1.654987  0.901816 -7.279015
      ESP Fit Center  521 is at  -2.486371  0.297780 -7.279015
      ESP Fit Center  522 is at  -2.803932 -0.679571 -7.279015
      ESP Fit Center  523 is at  -2.486371 -1.656922 -7.279015
      ESP Fit Center  524 is at  -1.141163  1.240429 -8.239015
      ESP Fit Center  525 is at  -2.101163  0.983198 -8.239015
      ESP Fit Center  526 is at  -2.803932  0.280429 -8.239015
      ESP Fit Center  527 is at  -3.061163 -0.679571 -8.239015
      ESP Fit Center  528 is at  -2.803932 -1.639571 -8.239015
      ESP Fit Center  529 is at  -1.654987  0.901816 -9.199015
      ESP Fit Center  530 is at  -2.486371  0.297780 -9.199015
      ESP Fit Center  531 is at  -2.803932 -0.679571 -9.199015
      ESP Fit Center  532 is at  -2.486371 -1.656922 -9.199015
      ESP Fit Center  533 is at  -1.621163  0.151813 -9.901784
      ESP Fit Center  534 is at  -2.101163 -0.679571 -9.901784
      ESP Fit Center  535 is at   3.003591  0.798985 -7.178717
      ESP Fit Center  536 is at   3.003591  0.798985 -8.246817
      ESP Fit Center  537 is at  -0.563378  1.613122 -8.246817
      ESP Fit Center  538 is at   2.771876 -0.216228 -9.209143
      ESP Fit Center  539 is at   3.507688 -0.734161 -6.628222
      ESP Fit Center  540 is at   3.190127  0.243190 -6.628222
      ESP Fit Center  541 is at   2.358743 -2.315548 -6.628222
      ESP Fit Center  542 is at   3.190127 -1.711512 -6.628222
      ESP Fit Center  543 is at   3.764919 -0.734161 -7.588222
      ESP Fit Center  544 is at   3.507688  0.225839 -7.588222
      ESP Fit Center  545 is at   1.844919 -2.654161 -7.588222
      ESP Fit Center  546 is at   2.804919 -2.396930 -7.588222
      ESP Fit Center  547 is at   3.507688 -1.694161 -7.588222
      ESP Fit Center  548 is at   3.507688 -0.734161 -8.548222
      ESP Fit Center  549 is at   3.190127  0.243190 -8.548222
      ESP Fit Center  550 is at   2.358743 -2.315548 -8.548222
      ESP Fit Center  551 is at   3.190127 -1.711512 -8.548222
      ESP Fit Center  552 is at   2.804919 -0.734161 -9.250991
      ESP Fit Center  553 is at   2.324919 -1.565545 -9.250991
      ESP Fit Center  554 is at   2.694157  1.494209 -8.481065
      ESP Fit Center  555 is at   1.991388  2.196978 -8.481065
      ESP Fit Center  556 is at   1.031388  2.454209 -8.481065
      ESP Fit Center  557 is at   0.071388  2.196978 -8.481065
      ESP Fit Center  558 is at  -0.631381  1.494209 -8.481065
      ESP Fit Center  559 is at   2.694157  0.534209 -9.441065
      ESP Fit Center  560 is at   2.376596  1.511560 -9.441065
      ESP Fit Center  561 is at   1.545212  2.115596 -9.441065
      ESP Fit Center  562 is at   0.517564  2.115596 -9.441065
      ESP Fit Center  563 is at  -0.313820  1.511560 -9.441065
      ESP Fit Center  564 is at   1.991388  0.534209-10.143834
      ESP Fit Center  565 is at   1.511388  1.365593-10.143834
      ESP Fit Center  566 is at   0.551388  1.365593-10.143834
      ESP Fit Center  567 is at   0.071388  0.534209-10.143834
      ESP Fit Center  568 is at   1.511388 -0.297175-10.143834
      ESP Fit Center  569 is at   1.031388  0.534209-10.401065
      ESP Fit Center  570 is at   2.514546  1.505928 -6.046309
      ESP Fit Center  571 is at   1.821415  2.288312 -6.046309
      ESP Fit Center  572 is at   0.844086  2.658964 -6.046309
      ESP Fit Center  573 is at  -0.193547  2.532972 -6.046309
      ESP Fit Center  574 is at  -1.053774  1.939201 -6.046309
      ESP Fit Center  575 is at  -1.539527  1.013675 -6.046309
      ESP Fit Center  576 is at   2.514546  1.505928 -7.043203
      ESP Fit Center  577 is at   1.821415  2.288312 -7.043203
      ESP Fit Center  578 is at   0.844086  2.658964 -7.043203
      ESP Fit Center  579 is at  -0.193547  2.532972 -7.043203
      ESP Fit Center  580 is at  -1.053774  1.939201 -7.043203
      ESP Fit Center  581 is at  -1.539527  1.013675 -7.043203
      ESP Fit Center  582 is at   0.039671  2.156636 -7.941373
      ESP Fit Center  583 is at  -0.835981  1.520438 -7.941373
      ESP Fit Center  584 is at   1.231197 -2.484737 -4.808269
      ESP Fit Center  585 is at   2.818648  0.811639 -5.876369
      ESP Fit Center  586 is at   1.231197 -2.484737 -5.876369
      ESP Fit Center  587 is at   2.650631 -0.670300 -3.602979
      ESP Fit Center  588 is at   2.170631 -1.501684 -3.602979
      ESP Fit Center  589 is at   3.353400 -0.670300 -4.305748
      ESP Fit Center  590 is at   3.035839  0.307051 -4.305748
      ESP Fit Center  591 is at   2.204455 -2.251687 -4.305748
      ESP Fit Center  592 is at   3.035839 -1.647651 -4.305748
      ESP Fit Center  593 is at   3.610631 -0.670300 -5.265748
      ESP Fit Center  594 is at   3.353400  0.289700 -5.265748
      ESP Fit Center  595 is at   1.690631 -2.590300 -5.265748
      ESP Fit Center  596 is at   2.650631 -2.333069 -5.265748
      ESP Fit Center  597 is at   3.353400 -1.630300 -5.265748
      ESP Fit Center  598 is at   3.353400 -0.670300 -6.225748
      ESP Fit Center  599 is at   3.035839  0.307051 -6.225748
      ESP Fit Center  600 is at   2.204455 -2.251687 -6.225748
      ESP Fit Center  601 is at   3.035839 -1.647651 -6.225748
      ESP Fit Center  602 is at  -0.549721 -2.570557 -4.295069
      ESP Fit Center  603 is at   0.477927 -2.570557 -4.295069
      ESP Fit Center  604 is at  -1.698666 -0.029170 -5.255069
      ESP Fit Center  605 is at  -1.955897 -0.989170 -5.255069
      ESP Fit Center  606 is at  -1.698666 -1.949170 -5.255069
      ESP Fit Center  607 is at  -0.995897 -2.651939 -5.255069
      ESP Fit Center  608 is at  -0.035897 -2.909170 -5.255069
      ESP Fit Center  609 is at   0.924103 -2.651939 -5.255069
      ESP Fit Center  610 is at  -1.698666 -0.989170 -6.215069
      ESP Fit Center  611 is at   0.278656  2.668096 -2.725925
      ESP Fit Center  612 is at   0.025035  3.091962 -3.688251
      ESP Fit Center  613 is at   0.278656  2.668096 -5.718677
      ESP Fit Center  614 is at   1.807458  2.386055 -2.637927
      ESP Fit Center  615 is at   2.990227  1.554671 -3.340696
      ESP Fit Center  616 is at   2.672666  2.532022 -3.340696
      ESP Fit Center  617 is at   1.841282  3.136058 -3.340696
      ESP Fit Center  618 is at   0.813634  3.136058 -3.340696
      ESP Fit Center  619 is at   3.247458  1.554671 -4.300696
      ESP Fit Center  620 is at   2.990227  2.514671 -4.300696
      ESP Fit Center  621 is at   2.287458  3.217440 -4.300696
      ESP Fit Center  622 is at   1.327458  3.474671 -4.300696
      ESP Fit Center  623 is at   0.367458  3.217440 -4.300696
      ESP Fit Center  624 is at   2.990227  0.594671 -4.300696
      ESP Fit Center  625 is at   2.990227  1.554671 -5.260696
      ESP Fit Center  626 is at   2.672666  2.532022 -5.260696
      ESP Fit Center  627 is at   1.841282  3.136058 -5.260696
      ESP Fit Center  628 is at   0.813634  3.136058 -5.260696
      ESP Fit Center  629 is at   1.807458  2.386055 -5.963465
      ESP Fit Center  630 is at  -0.922438  2.900457 -3.363426
      ESP Fit Center  631 is at  -1.753822  2.296421 -3.363426
      ESP Fit Center  632 is at  -0.408614  3.239070 -4.323426
      ESP Fit Center  633 is at  -1.368614  2.981839 -4.323426
      ESP Fit Center  634 is at  -2.071383  2.279070 -4.323426
      ESP Fit Center  635 is at  -2.328614  1.319070 -4.323426
      ESP Fit Center  636 is at  -2.071383  0.359070 -4.323426
      ESP Fit Center  637 is at  -0.922438  2.900457 -5.283426
      ESP Fit Center  638 is at  -1.753822  2.296421 -5.283426
      ESP Fit Center  639 is at  -2.071383  1.319070 -5.283426
      ESP Fit Center  640 is at  -1.753822  0.341719 -5.283426
      ESP Fit Center  641 is at  -0.888614  2.150454 -5.986195
      ESP Fit Center  642 is at   2.598630  1.218866 -2.466240
      ESP Fit Center  643 is at   2.848776  0.203986 -3.463134
      ESP Fit Center  644 is at   0.928170 -1.963930 -3.463134
      ESP Fit Center  645 is at   1.905499 -1.593278 -3.463134
      ESP Fit Center  646 is at   2.598630 -0.810894 -3.463134
      ESP Fit Center  647 is at  -2.866347 -0.252073 -2.918567
      ESP Fit Center  648 is at  -2.326908  0.276569 -3.880893
      ESP Fit Center  649 is at  -2.925511 -0.989690 -3.025918
      ESP Fit Center  650 is at  -2.668280 -1.949690 -3.025918
      ESP Fit Center  651 is at  -1.965511 -2.652459 -3.025918
      ESP Fit Center  652 is at  -1.005511 -2.909690 -3.025918
      ESP Fit Center  653 is at  -0.045511 -2.652459 -3.025918
      ESP Fit Center  654 is at  -2.350719 -0.012339 -3.985918
      ESP Fit Center  655 is at  -2.668280 -0.989690 -3.985918
      ESP Fit Center  656 is at  -2.350719 -1.967041 -3.985918
      ESP Fit Center  657 is at  -1.519335 -2.571077 -3.985918
      ESP Fit Center  658 is at  -0.491687 -2.571077 -3.985918
      ESP Fit Center  659 is at  -1.965511 -0.989690 -4.688687
      ESP Fit Center  660 is at  -1.700903  1.404484 -0.582867
      ESP Fit Center  661 is at  -2.180903  0.573100 -0.582867
      ESP Fit Center  662 is at  -0.707079  2.154487 -1.285636
      ESP Fit Center  663 is at  -1.734727  2.154487 -1.285636
      ESP Fit Center  664 is at  -2.566111  1.550451 -1.285636
      ESP Fit Center  665 is at  -2.883672  0.573100 -1.285636
      ESP Fit Center  666 is at  -0.260903  2.235869 -2.245636
      ESP Fit Center  667 is at  -1.220903  2.493100 -2.245636
      ESP Fit Center  668 is at  -2.180903  2.235869 -2.245636
      ESP Fit Center  669 is at  -2.883672  1.533100 -2.245636
      ESP Fit Center  670 is at  -3.140903  0.573100 -2.245636
      ESP Fit Center  671 is at  -1.734727  2.154487 -3.205636
      ESP Fit Center  672 is at  -2.566111  1.550451 -3.205636
      ESP Fit Center  673 is at  -2.883672  0.573100 -3.205636
      ESP Fit Center  674 is at  -2.336649  0.114288 -0.511712
      ESP Fit Center  675 is at  -0.749198 -3.182088 -1.579812
      ESP Fit Center  676 is at   0.081516 -3.177999 -0.199147
      ESP Fit Center  677 is at   1.109164 -3.177999 -0.199147
      ESP Fit Center  678 is at   0.595340 -3.516612 -1.159147
      ESP Fit Center  679 is at   1.555340 -3.259381 -1.159147
      ESP Fit Center  680 is at   0.081516 -3.177999 -2.119147
      ESP Fit Center  681 is at   1.109164 -3.177999 -2.119147
      ESP Fit Center  682 is at   1.940548 -2.573963 -2.119147
      ESP Fit Center  683 is at   1.075340 -2.427996 -2.821916
      ESP Fit Center  684 is at  -2.058414 -1.468883  0.922434
      ESP Fit Center  685 is at  -1.578414 -2.300267  0.922434
      ESP Fit Center  686 is at  -0.618414 -2.300267  0.922434
      ESP Fit Center  687 is at  -2.443622 -0.491532  0.219665
      ESP Fit Center  688 is at  -2.761183 -1.468883  0.219665
      ESP Fit Center  689 is at  -2.443622 -2.446234  0.219665
      ESP Fit Center  690 is at  -1.612238 -3.050270  0.219665
      ESP Fit Center  691 is at  -0.584590 -3.050270  0.219665
      ESP Fit Center  692 is at  -2.761183 -0.508883 -0.740335
      ESP Fit Center  693 is at  -3.018414 -1.468883 -0.740335
      ESP Fit Center  694 is at  -2.761183 -2.428883 -0.740335
      ESP Fit Center  695 is at  -2.058414 -3.131652 -0.740335
      ESP Fit Center  696 is at  -1.098414 -3.388883 -0.740335
      ESP Fit Center  697 is at  -2.761183 -1.468883 -1.700335
      ESP Fit Center  698 is at  -2.443622 -2.446234 -1.700335
      ESP Fit Center  699 is at  -1.612238 -3.050270 -1.700335
      ESP Fit Center  700 is at  -1.416834  1.029390  1.396617
      ESP Fit Center  701 is at  -1.751303  0.000000  1.396617
      ESP Fit Center  702 is at  -1.416834 -1.029390  1.396617
      ESP Fit Center  703 is at  -0.541182 -1.665588  1.396617
      ESP Fit Center  704 is at  -1.634627  1.448153  0.498447
      ESP Fit Center  705 is at  -2.120380  0.522627  0.498447
      ESP Fit Center  706 is at  -1.634627  1.448153 -0.498447
      ESP Fit Center  707 is at  -2.120380  0.522627 -0.498447
      ESP Fit Center  708 is at   2.623871  2.602681  0.534050
      ESP Fit Center  709 is at   1.575964  2.210649  2.556902
      ESP Fit Center  710 is at   0.615964  2.210649  2.556902
      ESP Fit Center  711 is at   2.441172  2.356616  1.854133
      ESP Fit Center  712 is at   1.609788  2.960652  1.854133
      ESP Fit Center  713 is at   0.582140  2.960652  1.854133
      ESP Fit Center  714 is at  -0.249244  2.356616  1.854133
      ESP Fit Center  715 is at  -0.566805  1.379265  1.854133
      ESP Fit Center  716 is at   2.055964  3.042034  0.894133
      ESP Fit Center  717 is at   1.095964  3.299265  0.894133
      ESP Fit Center  718 is at   0.135964  3.042034  0.894133
      ESP Fit Center  719 is at  -0.566805  2.339265  0.894133
      ESP Fit Center  720 is at   2.845635  2.406478 -0.849425
      ESP Fit Center  721 is at   2.142866  3.109247 -0.849425
      ESP Fit Center  722 is at   1.182866  3.366478 -0.849425
      ESP Fit Center  723 is at   0.222866  3.109247 -0.849425
      ESP Fit Center  724 is at  -0.479903  2.406478 -0.849425
      ESP Fit Center  725 is at   2.528074  2.423829 -1.809425
      ESP Fit Center  726 is at   1.696690  3.027865 -1.809425
      ESP Fit Center  727 is at   0.669042  3.027865 -1.809425
      ESP Fit Center  728 is at  -0.162342  2.423829 -1.809425
      ESP Fit Center  729 is at   1.662866  2.277862 -2.512194
      ESP Fit Center  730 is at   4.948188  0.717598  1.088877
      ESP Fit Center  731 is at   4.630627  1.694949  1.088877
      ESP Fit Center  732 is at   3.799243  2.298985  1.088877
      ESP Fit Center  733 is at   2.771595  2.298985  1.088877
      ESP Fit Center  734 is at   5.205419  0.717598  0.128877
      ESP Fit Center  735 is at   4.948188  1.677598  0.128877
      ESP Fit Center  736 is at   4.245419  2.380367  0.128877
      ESP Fit Center  737 is at   3.285419  2.637598  0.128877
      ESP Fit Center  738 is at   4.948188  0.717598 -0.831123
      ESP Fit Center  739 is at   4.630627  1.694949 -0.831123
      ESP Fit Center  740 is at   3.799243  2.298985 -0.831123
      ESP Fit Center  741 is at   4.245419  0.717598 -1.533892
      ESP Fit Center  742 is at   3.765419  1.548982 -1.533892
      ESP Fit Center  743 is at   4.304735 -0.477531 -1.917962
      ESP Fit Center  744 is at   3.987174  0.499820 -1.917962
      ESP Fit Center  745 is at   3.155790 -2.058918 -1.917962
      ESP Fit Center  746 is at   3.987174 -1.454882 -1.917962
      ESP Fit Center  747 is at   3.601966 -0.477531 -2.620731
      ESP Fit Center  748 is at   3.121966  0.353853 -2.620731
      ESP Fit Center  749 is at   3.121966 -1.308915 -2.620731
      ESP Fit Center  750 is at   2.676050 -3.316035  3.198658
      ESP Fit Center  751 is at   3.665999 -3.050779  3.198658
      ESP Fit Center  752 is at   4.390693 -2.326085  3.198658
      ESP Fit Center  753 is at   5.262913 -1.336136  2.290273
      ESP Fit Center  754 is at   5.039267 -0.283964  2.290273
      ESP Fit Center  755 is at   1.382619 -3.576425  2.290273
      ESP Fit Center  756 is at   2.405649 -3.908828  2.290273
      ESP Fit Center  757 is at   3.475435 -3.796389  2.290273
      ESP Fit Center  758 is at   4.406999 -3.258550  2.290273
      ESP Fit Center  759 is at   5.039267 -2.388308  2.290273
      ESP Fit Center  760 is at   5.476050 -1.336136  1.218759
      ESP Fit Center  761 is at   5.286972 -0.324659  1.218759
      ESP Fit Center  762 is at   0.295442 -2.810146  1.218759
      ESP Fit Center  763 is at   0.988673 -3.570584  1.218759
      ESP Fit Center  764 is at   1.909794 -4.029248  1.218759
      ESP Fit Center  765 is at   2.934401 -4.124192  1.218759
      ESP Fit Center  766 is at   3.924117 -3.842593  1.218759
      ESP Fit Center  767 is at   4.745275 -3.222484  1.218759
      ESP Fit Center  768 is at   5.286972 -2.347613  1.218759
      ESP Fit Center  769 is at   5.262913 -1.336136  0.147245
      ESP Fit Center  770 is at   5.039267 -0.283964  0.147245
      ESP Fit Center  771 is at   1.382619 -3.576425  0.147245
      ESP Fit Center  772 is at   2.405649 -3.908828  0.147245
      ESP Fit Center  773 is at   3.475435 -3.796389  0.147245
      ESP Fit Center  774 is at   4.406999 -3.258550  0.147245
      ESP Fit Center  775 is at   5.039267 -2.388308  0.147245
      ESP Fit Center  776 is at   4.655949 -1.336136 -0.761140
      ESP Fit Center  777 is at   2.676050 -3.316035 -0.761140
      ESP Fit Center  778 is at   3.665999 -3.050779 -0.761140
      ESP Fit Center  779 is at   4.390693 -2.326085 -0.761140
      ESP Fit Center  780 is at   4.493199  0.521763  3.342726
      ESP Fit Center  781 is at   4.735991 -0.942512  4.472771
      ESP Fit Center  782 is at   4.418430  0.034839  4.472771
      ESP Fit Center  783 is at   2.559398 -2.523899  4.472771
      ESP Fit Center  784 is at   3.587046 -2.523899  4.472771
      ESP Fit Center  785 is at   4.418430 -1.919863  4.472771
      ESP Fit Center  786 is at   4.993222 -0.942512  3.512771
      ESP Fit Center  787 is at   4.735991  0.017488  3.512771
      ESP Fit Center  788 is at   4.033222 -2.605281  3.512771
      ESP Fit Center  789 is at   4.735991 -1.902512  3.512771
      ESP Fit Center  790 is at   4.009401  1.525535  3.675817
      ESP Fit Center  791 is at   3.178017  2.129571  3.675817
      ESP Fit Center  792 is at   4.584193  0.548184  2.715817
      ESP Fit Center  793 is at   4.326962  1.508184  2.715817
      ESP Fit Center  794 is at   3.624193  2.210953  2.715817
      ESP Fit Center  795 is at   2.664193  2.468184  2.715817
      ESP Fit Center  796 is at   1.704193  2.210953  2.715817
      ESP Fit Center  797 is at   4.009401  1.525535  1.755817
      ESP Fit Center  798 is at   3.178017  2.129571  1.755817
      ESP Fit Center  799 is at  -1.161986 -1.643312  2.771435
      ESP Fit Center  800 is at  -0.282653 -2.046184  1.809109
      ESP Fit Center  801 is at   2.033622 -2.649045  4.389239
      ESP Fit Center  802 is at  -1.231586 -1.671694  3.429239
      ESP Fit Center  803 is at  -0.974355 -2.631694  3.429239
      ESP Fit Center  804 is at  -0.271586 -3.334463  3.429239
      ESP Fit Center  805 is at   0.688414 -3.591694  3.429239
      ESP Fit Center  806 is at   1.648414 -3.334463  3.429239
      ESP Fit Center  807 is at  -0.656794 -2.649045  2.469239
      ESP Fit Center  808 is at   0.174590 -3.253081  2.469239
      ESP Fit Center  809 is at  -0.705232  1.439386  2.580769
      ESP Fit Center  810 is at  -1.408001  0.736617  2.580769
      ESP Fit Center  811 is at  -1.665232 -0.223383  2.580769
      ESP Fit Center  812 is at  -1.408001 -1.183383  2.580769
      ESP Fit Center  813 is at  -1.090440 -1.200734  1.620769
      ESP Fit Center  814 is at   0.085795  1.206934  7.438182
      ESP Fit Center  815 is at  -0.449962  0.278976  7.438182
      ESP Fit Center  816 is at   1.611501  1.993619  6.831218
      ESP Fit Center  817 is at   0.621552  2.258875  6.831218
      ESP Fit Center  818 is at  -0.368397  1.993619  6.831218
      ESP Fit Center  819 is at  -1.093091  1.268925  6.831218
      ESP Fit Center  820 is at  -1.358347  0.278976  6.831218
      ESP Fit Center  821 is at   2.984769  1.331148  5.922833
      ESP Fit Center  822 is at   2.352501  2.201390  5.922833
      ESP Fit Center  823 is at   1.420937  2.739229  5.922833
      ESP Fit Center  824 is at   0.351151  2.851668  5.922833
      ESP Fit Center  825 is at  -0.671879  2.519265  5.922833
      ESP Fit Center  826 is at  -1.471264  1.799496  5.922833
      ESP Fit Center  827 is at  -1.908782  0.816815  5.922833
      ESP Fit Center  828 is at  -1.908782 -0.258863  5.922833
      ESP Fit Center  829 is at   3.232474  1.290453  4.851319
      ESP Fit Center  830 is at   2.690777  2.165324  4.851319
      ESP Fit Center  831 is at   1.869619  2.785433  4.851319
      ESP Fit Center  832 is at   0.879903  3.067032  4.851319
      ESP Fit Center  833 is at  -0.144704  2.972088  4.851319
      ESP Fit Center  834 is at  -1.065825  2.513424  4.851319
      ESP Fit Center  835 is at  -1.759056  1.752986  4.851319
      ESP Fit Center  836 is at  -2.130773  0.793475  4.851319
      ESP Fit Center  837 is at  -2.130773 -0.235523  4.851319
      ESP Fit Center  838 is at  -1.759056 -1.195034  4.851319
      ESP Fit Center  839 is at   2.352501  2.201390  3.779805
      ESP Fit Center  840 is at   1.420937  2.739229  3.779805
      ESP Fit Center  841 is at   0.351151  2.851668  3.779805
      ESP Fit Center  842 is at  -0.671879  2.519265  3.779805
      ESP Fit Center  843 is at  -1.471264  1.799496  3.779805
      ESP Fit Center  844 is at  -1.908782  0.816815  3.779805
      ESP Fit Center  845 is at  -1.908782 -0.258863  3.779805
      ESP Fit Center  846 is at  -1.471264 -1.241544  3.779805
      ESP Fit Center  847 is at   0.621552  2.258875  2.871420
      ESP Fit Center  848 is at  -0.368397  1.993619  2.871420
      ESP Fit Center  849 is at  -1.093091  1.268925  2.871420
      ESP Fit Center  850 is at   3.260448 -0.782673  7.615776
      ESP Fit Center  851 is at   1.972695  0.689474  8.647774
      ESP Fit Center  852 is at   1.012695  0.689474  8.647774
      ESP Fit Center  853 is at   3.155464 -0.141910  7.945005
      ESP Fit Center  854 is at   2.837903  0.835441  7.945005
      ESP Fit Center  855 is at   2.006519  1.439477  7.945005
      ESP Fit Center  856 is at   0.978871  1.439477  7.945005
      ESP Fit Center  857 is at   0.147487  0.835441  7.945005
      ESP Fit Center  858 is at  -0.170074 -0.141910  7.945005
      ESP Fit Center  859 is at   3.155464  0.818090  6.985005
      ESP Fit Center  860 is at   2.452695  1.520859  6.985005
      ESP Fit Center  861 is at   4.043485 -1.072532  6.775020
      ESP Fit Center  862 is at   3.725924 -0.095181  6.775020
      ESP Fit Center  863 is at   4.300716 -1.072532  5.815020
      ESP Fit Center  864 is at   4.043485 -0.112532  5.815020
      ESP Fit Center  865 is at   3.340716  0.590237  5.815020
      ESP Fit Center  866 is at   3.340716 -2.735301  5.815020
      ESP Fit Center  867 is at   4.043485 -2.032532  5.815020
      ESP Fit Center  868 is at   2.894540 -2.653919  4.855020
      ESP Fit Center  869 is at  -0.959480 -0.143977  7.730443
      ESP Fit Center  870 is at  -1.405656 -0.062595  6.770443
      ESP Fit Center  871 is at  -2.108425 -0.765364  6.770443
      ESP Fit Center  872 is at  -2.365656 -1.725364  6.770443
      ESP Fit Center  873 is at  -2.108425 -2.685364  6.770443
      ESP Fit Center  874 is at  -1.405656 -3.388133  6.770443
      ESP Fit Center  875 is at  -2.108425 -1.725364  5.810443
      ESP Fit Center  876 is at  -1.790864 -2.702715  5.810443
      ESP Fit Center  877 is at  -1.405656 -1.725364  5.107674
      ESP Fit Center  878 is at  -1.219554 -3.615752  5.601447
      ESP Fit Center  879 is at  -0.516785 -4.318521  5.601447
      ESP Fit Center  880 is at   2.105984 -2.655752  4.641447
      ESP Fit Center  881 is at  -1.219554 -2.655752  4.641447
      ESP Fit Center  882 is at  -0.901993 -3.633103  4.641447
      ESP Fit Center  883 is at  -0.070609 -4.237139  4.641447
      ESP Fit Center  884 is at   0.957039 -4.237139  4.641447
      ESP Fit Center  885 is at   1.788423 -3.633103  4.641447
      ESP Fit Center  886 is at  -0.036785 -3.487136  3.938678
      ESP Fit Center  887 is at   0.319028 -4.792825  9.714711
      ESP Fit Center  888 is at   1.308977 -5.058081  9.714711
      ESP Fit Center  889 is at   2.298926 -4.792825  9.714711
      ESP Fit Center  890 is at   3.023620 -4.068131  9.714711
      ESP Fit Center  891 is at   3.895840 -3.078182  8.806326
      ESP Fit Center  892 is at   3.672194 -2.026010  8.806326
      ESP Fit Center  893 is at   0.015546 -5.318471  8.806326
      ESP Fit Center  894 is at   1.038576 -5.650874  8.806326
      ESP Fit Center  895 is at   2.108362 -5.538435  8.806326
      ESP Fit Center  896 is at   3.039926 -5.000596  8.806326
      ESP Fit Center  897 is at   3.672194 -4.130354  8.806326
      ESP Fit Center  898 is at   4.108977 -3.078182  7.734812
      ESP Fit Center  899 is at   3.919899 -2.066705  7.734812
      ESP Fit Center  900 is at   3.378202 -1.191834  7.734812
      ESP Fit Center  901 is at  -1.443348 -3.592681  7.734812
      ESP Fit Center  902 is at  -1.071631 -4.552192  7.734812
      ESP Fit Center  903 is at  -0.378400 -5.312630  7.734812
      ESP Fit Center  904 is at   0.542721 -5.771294  7.734812
      ESP Fit Center  905 is at   1.567328 -5.866238  7.734812
      ESP Fit Center  906 is at   2.557044 -5.584639  7.734812
      ESP Fit Center  907 is at   3.378202 -4.964530  7.734812
      ESP Fit Center  908 is at   3.919899 -4.089659  7.734812
      ESP Fit Center  909 is at   3.895840 -3.078182  6.663298
      ESP Fit Center  910 is at  -0.783839 -4.598702  6.663298
      ESP Fit Center  911 is at   0.015546 -5.318471  6.663298
      ESP Fit Center  912 is at   1.038576 -5.650874  6.663298
      ESP Fit Center  913 is at   2.108362 -5.538435  6.663298
      ESP Fit Center  914 is at   3.039926 -5.000596  6.663298
      ESP Fit Center  915 is at   3.672194 -4.130354  6.663298
      ESP Fit Center  916 is at   3.288876 -3.078182  5.754913
      ESP Fit Center  917 is at   0.319028 -4.792825  5.754913
      ESP Fit Center  918 is at   1.308977 -5.058081  5.754913
      ESP Fit Center  919 is at   2.298926 -4.792825  5.754913
      ESP Fit Center  920 is at   3.023620 -4.068131  5.754913
      ESP Fit Center  921 is at   2.380491 -3.078182  5.147949
      ESP Fit Center  922 is at   1.844734 -4.006140  5.147949
      ESP Fit Center  923 is at   1.543816 -1.248090 11.437092
      ESP Fit Center  924 is at   2.601680 -1.135444 10.771143
      ESP Fit Center  925 is at   1.658208 -2.639988 11.923207
      ESP Fit Center  926 is at   2.618208 -2.639988 11.665976
      ESP Fit Center  927 is at   2.138208 -1.808604 11.665976
      ESP Fit Center  928 is at   1.178208 -1.808604 11.665976
      ESP Fit Center  929 is at   1.178208 -3.471372 11.665976
      ESP Fit Center  930 is at   2.138208 -3.471372 11.665976
      ESP Fit Center  931 is at   3.320977 -2.639988 10.963207
      ESP Fit Center  932 is at   3.003416 -1.662637 10.963207
      ESP Fit Center  933 is at   1.144384 -4.221375 10.963207
      ESP Fit Center  934 is at   2.172032 -4.221375 10.963207
      ESP Fit Center  935 is at   3.003416 -3.617339 10.963207
      ESP Fit Center  936 is at   3.578208 -2.639988 10.003207
      ESP Fit Center  937 is at   3.320977 -1.679988 10.003207
      ESP Fit Center  938 is at   2.618208 -4.302757 10.003207
      ESP Fit Center  939 is at   3.320977 -3.599988 10.003207
      ESP Fit Center  940 is at   1.878800 -0.308445 10.828102
      ESP Fit Center  941 is at   0.918800 -0.308445 10.828102
      ESP Fit Center  942 is at   3.061569 -1.139829 10.125333
      ESP Fit Center  943 is at   2.744008 -0.162478 10.125333
      ESP Fit Center  944 is at   1.912624  0.441558 10.125333
      ESP Fit Center  945 is at   0.884976  0.441558 10.125333
      ESP Fit Center  946 is at   3.318800 -1.139829  9.165333
      ESP Fit Center  947 is at   3.061569 -0.179829  9.165333
      ESP Fit Center  948 is at   2.358800  0.522940  9.165333
      ESP Fit Center  949 is at   1.398800  0.780171  9.165333
      ESP Fit Center  950 is at   0.438800  0.522940  9.165333
      ESP Fit Center  951 is at  -0.943152 -3.045102 11.925105
      ESP Fit Center  952 is at   0.098168 -3.045102 11.925105
      ESP Fit Center  953 is at  -2.222880 -2.671934 11.259156
      ESP Fit Center  954 is at  -1.881350 -0.313942 10.296830
      ESP Fit Center  955 is at  -2.530603 -1.128079 10.296830
      ESP Fit Center  956 is at  -2.762319 -2.143292 10.296830
      ESP Fit Center  957 is at  -1.745172 -3.153741 11.573252
      ESP Fit Center  958 is at  -1.265172 -3.985125 11.573252
      ESP Fit Center  959 is at  -0.305172 -3.985125 11.573252
      ESP Fit Center  960 is at  -2.447941 -3.153741 10.870483
      ESP Fit Center  961 is at  -2.130380 -4.131092 10.870483
      ESP Fit Center  962 is at  -1.298996 -4.735128 10.870483
      ESP Fit Center  963 is at  -0.271348 -4.735128 10.870483
      ESP Fit Center  964 is at   0.560036 -4.131092 10.870483
      ESP Fit Center  965 is at  -2.705172 -3.153741  9.910483
      ESP Fit Center  966 is at  -2.447941 -4.113741  9.910483
      ESP Fit Center  967 is at  -1.745172 -4.816510  9.910483
      ESP Fit Center  968 is at  -0.785172 -5.073741  9.910483
      ESP Fit Center  969 is at   0.174828 -4.816510  9.910483
      ESP Fit Center  970 is at  -2.447941 -3.153741  8.950483
      ESP Fit Center  971 is at  -2.130380 -4.131092  8.950483
      ESP Fit Center  972 is at  -1.298996 -4.735128  8.950483
      ESP Fit Center  973 is at  -0.492084 -1.612603 12.628230
      ESP Fit Center  974 is at   0.467916 -1.612603 12.370999
      ESP Fit Center  975 is at  -0.012084 -0.781219 12.370999
      ESP Fit Center  976 is at  -0.972084 -0.781219 12.370999
      ESP Fit Center  977 is at  -1.452084 -1.612603 12.370999
      ESP Fit Center  978 is at  -0.972084 -2.443987 12.370999
      ESP Fit Center  979 is at  -0.012084 -2.443987 12.370999
      ESP Fit Center  980 is at   1.170685 -1.612603 11.668230
      ESP Fit Center  981 is at   0.853124 -0.635252 11.668230
      ESP Fit Center  982 is at   0.021740 -0.031216 11.668230
      ESP Fit Center  983 is at  -1.005908 -0.031216 11.668230
      ESP Fit Center  984 is at  -1.837292 -0.635252 11.668230
      ESP Fit Center  985 is at  -2.154853 -1.612603 11.668230
      ESP Fit Center  986 is at  -1.837292 -2.589954 11.668230
      ESP Fit Center  987 is at   0.467916  0.050166 10.708230
      ESP Fit Center  988 is at  -0.492084  0.307397 10.708230
      ESP Fit Center  989 is at  -1.452084  0.050166 10.708230
      ESP Fit Center  990 is at  -2.154853 -0.652603 10.708230
      ESP Fit Center  991 is at  -2.428707 -0.671003 10.020096
      ESP Fit Center  992 is at  -1.083499  0.271646  9.060096
      ESP Fit Center  993 is at  -2.043499  0.014415  9.060096
      ESP Fit Center  994 is at  -2.746268 -0.688354  9.060096
      ESP Fit Center  995 is at  -3.003499 -1.648354  9.060096
      ESP Fit Center  996 is at  -2.746268 -2.608354  9.060096
      ESP Fit Center  997 is at  -0.569675 -0.066967  8.100096
      ESP Fit Center  998 is at  -1.597323 -0.066967  8.100096
      ESP Fit Center  999 is at  -2.428707 -0.671003  8.100096
      ESP Fit Center 1000 is at  -2.746268 -1.648354  8.100096
      ESP Fit Center 1001 is at  -2.428707 -2.625705  8.100096
      ESP Fit Center 1002 is at  -2.023842 -0.656533 -6.227446
      ESP Fit Center 1003 is at  -2.439433 -2.276726 -7.103389
      ESP Fit Center 1004 is at  -2.686464 -2.227659 -8.136634
      ESP Fit Center 1005 is at  -2.101177 -3.103602 -8.136634
      ESP Fit Center 1006 is at   0.841256 -3.688889 -8.136634
      ESP Fit Center 1007 is at   1.717199 -3.103602 -8.136634
      ESP Fit Center 1008 is at  -2.439433 -2.276726 -9.169879
      ESP Fit Center 1009 is at  -1.747269 -3.144673 -9.169879
      ESP Fit Center 1010 is at  -0.463695  0.695342-10.045822
      ESP Fit Center 1011 is at  -2.023842 -1.732295-10.045822
      ESP Fit Center 1012 is at  -0.708612 -0.299597-10.631109
      ESP Fit Center 1013 is at   0.321662 -3.783911 -9.094115
      ESP Fit Center 1014 is at   1.288323 -3.417305 -9.094115
      ESP Fit Center 1015 is at   1.973888 -2.643462 -9.094115
      ESP Fit Center 1016 is at   1.931918 -1.639660-10.174115
      ESP Fit Center 1017 is at  -1.733539 -2.166673-10.174115
      ESP Fit Center 1018 is at  -1.163689 -3.053376-10.174115
      ESP Fit Center 1019 is at  -0.204913 -3.491235-10.174115
      ESP Fit Center 1020 is at   0.838385 -3.341231-10.174115
      ESP Fit Center 1021 is at   1.634964 -2.650991-10.174115
      ESP Fit Center 1022 is at   1.141303 -1.639660-10.964730
      ESP Fit Center 1023 is at   0.601303 -0.704353-10.964730
      ESP Fit Center 1024 is at  -0.478697 -0.704353-10.964730
      ESP Fit Center 1025 is at  -1.018697 -1.639660-10.964730
      ESP Fit Center 1026 is at  -0.478697 -2.574967-10.964730
      ESP Fit Center 1027 is at   0.601303 -2.574967-10.964730
      ESP Fit Center 1028 is at   0.061303 -1.639660-11.254115
      ESP Fit Center 1029 is at  -2.111575 -2.527484 -6.341451
      ESP Fit Center 1030 is at  -1.541725 -3.414187 -6.341451
      ESP Fit Center 1031 is at  -0.582949 -3.852046 -6.341451
      ESP Fit Center 1032 is at   0.460349 -3.702042 -6.341451
      ESP Fit Center 1033 is at   1.256928 -3.011802 -6.341451
      ESP Fit Center 1034 is at  -1.933516 -3.432816 -7.421451
      ESP Fit Center 1035 is at  -1.082680 -4.020106 -7.421451
      ESP Fit Center 1036 is at  -0.056374 -4.144722 -7.421451
      ESP Fit Center 1037 is at   0.910287 -3.778116 -7.421451
      ESP Fit Center 1038 is at  -0.582949 -3.852046 -8.501451
      ESP Fit Center 1039 is at  -2.221163 -0.679571 -6.368400
      ESP Fit Center 1040 is at  -2.366155  0.734145 -7.159015
      ESP Fit Center 1041 is at  -2.936005 -0.152558 -7.159015
      ESP Fit Center 1042 is at  -2.936005 -1.206584 -7.159015
      ESP Fit Center 1043 is at  -1.907110  1.340064 -8.239015
      ESP Fit Center 1044 is at  -2.757946  0.752774 -8.239015
      ESP Fit Center 1045 is at  -3.238397 -0.162649 -8.239015
      ESP Fit Center 1046 is at  -3.238397 -1.196493 -8.239015
      ESP Fit Center 1047 is at  -2.757946 -2.111916 -8.239015
      ESP Fit Center 1048 is at  -1.407379  1.172004 -9.319015
[...]
 1276 Fit      -0.012961
 1277 Fit      -0.006041
 1278 Fit      -0.012137
 1279 Fit      -0.013371
 1280 Fit      -0.014328
 1281 Fit      -0.015501
 1282 Fit      -0.015673
 1283 Fit      -0.004753
 1284 Fit      -0.005830
 1285 Fit      -0.007386
 1286 Fit      -0.007405
 1287 Fit       0.001486
 1288 Fit      -0.000280
 1289 Fit       0.003668
 1290 Fit       0.003061
 1291 Fit       0.004088
 1292 Fit       0.003451
 1293 Fit      -0.002173
 1294 Fit       0.000078
 1295 Fit      -0.003459
 1296 Fit       0.001054
 1297 Fit      -0.001881
 1298 Fit       0.004509
 1299 Fit       0.006149
 1300 Fit       0.005243
 1301 Fit       0.003126
 1302 Fit      -0.007019
 1303 Fit      -0.009576
 1304 Fit      -0.003292
 1305 Fit       0.001834
 1306 Fit       0.003969
 1307 Fit       0.003254
 1308 Fit       0.002808
 1309 Fit      -0.007096
 1310 Fit      -0.004644
 1311 Fit      -0.006901
 1312 Fit      -0.010610
 1313 Fit      -0.012735
 1314 Fit      -0.011224
 1315 Fit       0.000081
 1316 Fit      -0.003358
 1317 Fit      -0.004962
 1318 Fit      -0.005087
 1319 Fit      -0.000641
 1320 Fit      -0.003169
 1321 Fit      -0.008408
 1322 Fit      -0.011284
 1323 Fit      -0.012220
 1324 Fit      -0.012682
 1325 Fit      -0.013576
 1326 Fit      -0.014127
 1327 Fit      -0.011852
 1328 Fit      -0.006792
 1329 Fit      -0.012923
 1330 Fit      -0.016145
 1331 Fit      -0.016870
 1332 Fit      -0.016516
 1333 Fit      -0.016627
 1334 Fit      -0.017758
 1335 Fit      -0.019001
 1336 Fit      -0.018395
 1337 Fit      -0.014070
 1338 Fit      -0.010584
 1339 Fit      -0.014657
 1340 Fit      -0.015809
 1341 Fit      -0.015570
 1342 Fit      -0.015710
 1343 Fit      -0.016943
 1344 Fit      -0.018507
 1345 Fit      -0.018638
 1346 Fit      -0.015647
 1347 Fit      -0.008745
 1348 Fit      -0.006709
 1349 Fit      -0.009157
 1350 Fit      -0.010481
 1351 Fit      -0.012278
 1352 Fit      -0.014245
 1353 Fit      -0.014731
 1354 Fit      -0.012253
 1355 Fit      -0.004082
 1356 Fit       0.002828
 1357 Fit       0.004634
 1358 Fit       0.006883
 1359 Fit       0.007077
 1360 Fit       0.007090
 1361 Fit       0.007919
 1362 Fit       0.011160
 1363 Fit       0.002115
 1364 Fit      -0.000234
 1365 Fit      -0.001765
 1366 Fit       0.001937
 1367 Fit       0.003437
 1368 Fit       0.003460
 1369 Fit      -0.000518
 1370 Fit       0.006645
 1371 Fit      -0.000367
 1372 Fit       0.009774
 1373 Fit      -0.003470
 1374 Fit       0.001041
 1375 Fit       0.001747
 1376 Fit      -0.001320
 1377 Fit      -0.007892
 1378 Fit      -0.001878
 1379 Fit      -0.002151
 1380 Fit       0.001712
 1381 Fit       0.002684
 1382 Fit       0.002521
 1383 Fit       0.002839
 1384 Fit       0.005328
 1385 Fit      -0.003732
 1386 Fit      -0.001451
 1387 Fit      -0.008051
 1388 Fit      -0.004663
 1389 Fit      -0.013417
 1390 Fit      -0.012780
 1391 Fit      -0.010916
 1392 Fit      -0.009694
 1393 Fit      -0.009187
 1394 Fit      -0.015794
 1395 Fit      -0.011845
 1396 Fit      -0.003952
 1397 Fit      -0.016344
 1398 Fit      -0.019303
 1399 Fit      -0.019108
 1400 Fit      -0.017480
 1401 Fit      -0.016268
 1402 Fit      -0.016241
 1403 Fit      -0.016674
 1404 Fit      -0.017690
 1405 Fit      -0.012331
 1406 Fit      -0.010705
 1407 Fit      -0.016632
 1408 Fit      -0.019380
 1409 Fit      -0.019489
 1410 Fit      -0.018511
 1411 Fit      -0.018031
 1412 Fit      -0.018571
 1413 Fit      -0.019141
 1414 Fit      -0.012581
 1415 Fit      -0.006298
 1416 Fit      -0.011434
 1417 Fit      -0.014077
 1418 Fit      -0.014771
 1419 Fit      -0.015026
 1420 Fit      -0.015674
 1421 Fit      -0.015764
 1422 Fit      -0.002256
 1423 Fit      -0.003188
 1424 Fit      -0.006606
 1425 Fit      -0.008170
 1426 Fit      -0.007930
 1427 Fit       0.008892
 1428 Fit       0.008455
 1429 Fit       0.004731
 1430 Fit       0.008104
 1431 Fit       0.007306
 1432 Fit       0.007927
 1433 Fit       0.006856
 1434 Fit       0.007034
 1435 Fit       0.005028
 1436 Fit       0.005715
 1437 Fit       0.004082
 1438 Fit       0.004415
 1439 Fit       0.004764
 1440 Fit      -0.000208
 1441 Fit      -0.000916
 1442 Fit       0.008341
 1443 Fit       0.006929
 1444 Fit       0.009069
 1445 Fit       0.009845
 1446 Fit       0.000227
 1447 Fit       0.006168
 1448 Fit       0.010182
 1449 Fit       0.012028
 1450 Fit       0.011656
 1451 Fit       0.004710
 1452 Fit       0.001519
 1453 Fit       0.004505
 1454 Fit       0.001995
 1455 Fit       0.000948
 1456 Fit       0.007194
 1457 Fit       0.000917
 1458 Fit      -0.001424
 1459 Fit       0.002201
 1460 Fit       0.002972
 1461 Fit       0.001345
 1462 Fit       0.001667
 1463 Fit       0.001211
 1464 Fit       0.001199
 1465 Fit       0.000152
 1466 Fit      -0.000144
 1467 Fit      -0.001712
 1468 Fit      -0.004569
 1469 Fit      -0.002231
 1470 Fit      -0.005061
 1471 Fit      -0.011949
 1472 Fit       0.006121
 1473 Fit       0.007411
 1474 Fit       0.007502
 1475 Fit       0.006342
 1476 Fit       0.004664
 1477 Fit       0.003806
 1478 Fit       0.005402
 1479 Fit       0.008819
 1480 Fit       0.007927
 1481 Fit       0.006524
 1482 Fit       0.005017
 1483 Fit       0.003541
 1484 Fit       0.002223
 1485 Fit       0.007095
 1486 Fit       0.004748
 1487 Fit       0.003176
 1488 Fit       0.002851
 1489 Fit       0.006998
 1490 Fit       0.004330
 1491 Fit       0.003570
 1492 Fit       0.002845
 1493 Fit       0.001345
 1494 Fit       0.005853
 1495 Fit       0.004295
 1496 Fit       0.004014
 1497 Fit       0.002494
 1498 Fit      -0.001372
 1499 Fit       0.006308
 1500 Fit       0.005299
 1501 Fit       0.010186
 1502 Fit       0.004275
 1503 Fit       0.004876
 1504 Fit       0.005743
 1505 Fit       0.006558
 1506 Fit       0.007595
 1507 Fit       0.009368
 1508 Fit       0.004200
 1509 Fit       0.005101
 1510 Fit       0.006269
 1511 Fit       0.004669
 1512 Fit       0.004456
 1513 Fit       0.006085
 1514 Fit       0.006236
 1515 Fit       0.007238
 1516 Fit       0.008399
 1517 Fit       0.009953
 1518 Fit       0.010145
 1519 Fit       0.010859
 1520 Fit       0.005039
 1521 Fit       0.006013
 1522 Fit       0.007117
 1523 Fit       0.008166
 1524 Fit       0.009182
 1525 Fit       0.009015
 1526 Fit       0.008492
 1527 Fit       0.006719
 1528 Fit       0.006241
 1529 Fit       0.007182
 1530 Fit       0.008343
 1531 Fit       0.007765
 1532 Fit       0.010473
 1533 Fit       0.010856
 1534 Fit       0.010963
 1535 Fit       0.011060
 1536 Fit       0.007185
 1537 Fit       0.008056
 1538 Fit       0.008582
 1539 Fit       0.008901
 1540 Fit       0.009508
 1541 Fit       0.006061
 1542 Fit       0.006770
 1543 Fit       0.007306
 1544 Fit      -0.002464
 1545 Fit       0.003401
 1546 Fit       0.005432
 1547 Fit      -0.000365
 1548 Fit       0.003269
 1549 Fit       0.004668
 1550 Fit       0.004909
 1551 Fit      -0.000405
 1552 Fit       0.002272
 1553 Fit       0.004083
 1554 Fit       0.004719
 1555 Fit       0.004522
 1556 Fit       0.003467
 1557 Fit       0.003848
 1558 Fit       0.004480
 1559 Fit       0.004401
 1560 Fit       0.004514
 1561 Fit       0.004382
 1562 Fit       0.001790
 1563 Fit      -0.004011
 1564 Fit       0.003552
 1565 Fit       0.000404
 1566 Fit       0.008834
 1567 Fit       0.010542
 1568 Fit       0.006939
 1569 Fit       0.004304
 1570 Fit       0.010469
 1571 Fit       0.009546
 1572 Fit       0.008522
 1573 Fit       0.007105
 1574 Fit       0.005072
 1575 Fit       0.010100
 1576 Fit       0.009466
 1577 Fit       0.008518
 1578 Fit       0.007904
 1579 Fit       0.010434
 1580 Fit       0.009247
 1581 Fit      -0.003945
 1582 Fit      -0.007691
 1583 Fit       0.003621
 1584 Fit       0.001751
 1585 Fit       0.000063
 1586 Fit      -0.001250
 1587 Fit      -0.001501
 1588 Fit       0.007388
 1589 Fit       0.005731
 1590 Fit       0.004550
 1591 Fit       0.003739
 1592 Fit       0.003751
 1593 Fit       0.008321
 1594 Fit       0.006903
 1595 Fit       0.006491
 1596 Fit       0.007513
 1597 Fit       0.010532
 1598 Fit       0.008465
 1599 Fit      -0.003305
 1600 Fit      -0.007706
 1601 Fit      -0.010886
 1602 Fit      -0.012850
 1603 Fit      -0.013234
 1604 Fit      -0.011965
 1605 Fit      -0.009280
 1606 Fit      -0.005160
 1607 Fit      -0.010755
 1608 Fit      -0.012482
 1609 Fit      -0.012349
 1610 Fit      -0.009942
 1611 Fit       0.005752
 1612 Fit       0.009977
 1613 Fit       0.001998
 1614 Fit       0.001601
 1615 Fit       0.001385
 1616 Fit       0.003266
 1617 Fit       0.002388
 1618 Fit       0.004640
 1619 Fit       0.003885
 1620 Fit       0.007249
 1621 Fit       0.006168
 1622 Fit       0.005454
 1623 Fit       0.006433
 1624 Fit       0.004161
 1625 Fit       0.009799
 1626 Fit       0.008767
 1627 Fit       0.007856
 1628 Fit       0.014398
 1629 Fit       0.012951
 1630 Fit       0.010881
 1631 Fit       0.008129
 1632 Fit       0.010846
 1633 Fit       0.003160
 1634 Fit       0.002996
 1635 Fit      -0.007033
 1636 Fit       0.000202
 1637 Fit       0.003380
 1638 Fit       0.003922
 1639 Fit       0.003362
 1640 Fit       0.002624
 1641 Fit       0.003635
 1642 Fit       0.003788
 1643 Fit       0.003237
 1644 Fit       0.002626
 1645 Fit       0.003063
 1646 Fit       0.002692
 1647 Fit       0.002150
 1648 Fit       0.001106
 1649 Fit      -0.000083
 1650 Fit      -0.000518
 1651 Fit      -0.001817
 1652 Fit      -0.003569
 1653 Fit      -0.006619
 1654 Fit       0.004443
 1655 Fit       0.003510
 1656 Fit       0.005160
 1657 Fit       0.007310
 1658 Fit       0.000675
 1659 Fit       0.002466
 1660 Fit       0.004323
 1661 Fit       0.006299
 1662 Fit       0.009081
 1663 Fit      -0.006640
 1664 Fit      -0.003394
 1665 Fit      -0.001228
 1666 Fit       0.000295
 1667 Fit       0.009929
 1668 Fit       0.011025
 1669 Fit       0.010179
 1670 Fit       0.012455
 1671 Fit       0.012976
 1672 Fit       0.012681
 1673 Fit       0.011171
 1674 Fit       0.011994
 1675 Fit       0.012654
 1676 Fit       0.012802
 1677 Fit       0.012253
 1678 Fit       0.011059
 1679 Fit       0.012185
 1680 Fit       0.013657
 1681 Fit      -0.003984
 1682 Fit      -0.002467
 1683 Fit      -0.000601
 1684 Fit       0.002360
 1685 Fit       0.002691
 1686 Fit       0.003419
 1687 Fit       0.004418
 1688 Fit       0.006070
 1689 Fit       0.006120
 1690 Fit       0.006485
 1691 Fit       0.007105
 1692 Fit       0.008398
 1693 Fit       0.009164
 1694 Fit      -0.011887
 1695 Fit      -0.005767
 1696 Fit       0.007475
 1697 Fit       0.010452
 1698 Fit      -0.001641
 1699 Fit      -0.006689
 1700 Fit       0.004575
 1701 Fit       0.001263
 1702 Fit      -0.000604
 1703 Fit       0.008303
 1704 Fit       0.004721
 1705 Fit       0.002326
 1706 Fit      -0.008732
 1707 Fit      -0.006126
 1708 Fit      -0.004801
 1709 Fit      -0.000278
 1710 Fit       0.000486
 1711 Fit      -0.002136
 1712 Fit       0.000250
 1713 Fit       0.003660
 1714 Fit       0.005055
 1715 Fit       0.004828
 1716 Fit       0.002923
 1717 Fit       0.008711
 1718 Fit       0.009045
 1719 Fit       0.008575
 1720 Fit       0.007179
 1721 Fit       0.013088
 1722 Fit      -0.011510
 1723 Fit      -0.015638
 1724 Fit      -0.015227
 1725 Fit      -0.011512
 1726 Fit      -0.010071
 1727 Fit      -0.010854
 1728 Fit      -0.008105
 1729 Fit       0.008152
 1730 Fit      -0.003232
 1731 Fit      -0.001352
 1732 Fit       0.003363
 1733 Fit      -0.000510
 1734 Fit      -0.003721
 1735 Fit       0.008202
 1736 Fit       0.004457
 1737 Fit       0.001292
 1738 Fit      -0.002415
 1739 Fit      -0.008429
 1740 Fit       0.005614
 1741 Fit       0.002929
 1742 Fit       0.006304
 1743 Fit       0.004896
 1744 Fit       0.003363
 1745 Fit       0.001833
 1746 Fit       0.003472
 1747 Fit       0.004134
 1748 Fit       0.003408
 1749 Fit      -0.000100
 1750 Fit       0.002039
 1751 Fit       0.002101
 1752 Fit       0.005453
 1753 Fit       0.008929
 1754 Fit      -0.001286
 1755 Fit       0.004102
 1756 Fit       0.006971
 1757 Fit       0.008825
 1758 Fit       0.000345
 1759 Fit       0.004179
 1760 Fit       0.006489
 1761 Fit       0.008096
 1762 Fit       0.001758
 1763 Fit       0.004357
 1764 Fit       0.006124
 1765 Fit       0.001069
 1766 Fit       0.001447
 1767 Fit       0.001228
 1768 Fit       0.000811
 1769 Fit      -0.000024
 1770 Fit      -0.000344
 1771 Fit       0.003128
 1772 Fit      -0.005874
 1773 Fit      -0.001112
 1774 Fit      -0.005172
 1775 Fit      -0.007143
 1776 Fit      -0.008016
 1777 Fit      -0.007729
 1778 Fit      -0.011941
 1779 Fit      -0.007830
 1780 Fit      -0.001631
 1781 Fit      -0.007056
 1782 Fit      -0.009032
 1783 Fit      -0.010419
 1784 Fit      -0.011547
 1785 Fit      -0.012749
 1786 Fit      -0.013756
 1787 Fit      -0.013773
 1788 Fit      -0.014099
 1789 Fit      -0.009683
 1790 Fit      -0.002769
 1791 Fit      -0.011843
 1792 Fit      -0.011739
 1793 Fit      -0.012447
 1794 Fit      -0.012965
 1795 Fit      -0.013457
 1796 Fit      -0.014264
 1797 Fit      -0.015374
 1798 Fit      -0.016272
 1799 Fit      -0.016123
 1800 Fit      -0.012567
 1801 Fit      -0.007463
 1802 Fit      -0.009896
 1803 Fit      -0.011616
 1804 Fit      -0.012477
 1805 Fit      -0.013209
 1806 Fit      -0.014179
 1807 Fit      -0.015031
 1808 Fit      -0.014839
 1809 Fit      -0.008244
 1810 Fit      -0.006568
 1811 Fit      -0.008812
 1812 Fit      -0.009999
 1813 Fit      -0.010764
 1814 Fit      -0.010521
 1815 Fit      -0.002873
 1816 Fit      -0.004526
 1817 Fit      -0.004463
 1818 Fit      -0.000207
 1819 Fit       0.003170
 1820 Fit       0.002703
 1821 Fit       0.002496
 1822 Fit      -0.000457
 1823 Fit       0.000603
 1824 Fit       0.000123
 1825 Fit      -0.001553
 1826 Fit      -0.001421
 1827 Fit      -0.000909
 1828 Fit      -0.005409
 1829 Fit       0.002054
 1830 Fit       0.002454
 1831 Fit       0.000568
 1832 Fit       0.004534
 1833 Fit       0.007096
 1834 Fit       0.007458
 1835 Fit      -0.009615
 1836 Fit      -0.009965
 1837 Fit      -0.000370
 1838 Fit       0.004687
 1839 Fit      -0.003125
 1840 Fit      -0.000973
 1841 Fit      -0.001332
 1842 Fit      -0.007715
 1843 Fit      -0.011364
 1844 Fit      -0.015296
 1845 Fit      -0.014374
 1846 Fit      -0.011276
 1847 Fit      -0.000628
 1848 Fit      -0.002023
 1849 Fit      -0.001588
 1850 Fit      -0.003810
 1851 Fit      -0.006458
 1852 Fit      -0.007774
 1853 Fit      -0.008488
 1854 Fit      -0.009022
 1855 Fit      -0.008725
 1856 Fit      -0.005711
 1857 Fit      -0.003531
 1858 Fit      -0.007833
 1859 Fit      -0.010600
 1860 Fit      -0.011857
 1861 Fit      -0.012204
 1862 Fit      -0.012454
 1863 Fit      -0.013045
 1864 Fit      -0.013663
 1865 Fit      -0.013277
 1866 Fit      -0.010567
 1867 Fit      -0.003350
 1868 Fit      -0.007708
 1869 Fit      -0.010894
 1870 Fit      -0.012617
 1871 Fit      -0.013154
 1872 Fit      -0.013242
 1873 Fit      -0.013560
 1874 Fit      -0.014335
 1875 Fit      -0.015206
 1876 Fit      -0.015365
 1877 Fit      -0.013928
 1878 Fit      -0.010425
 1879 Fit      -0.007339
 1880 Fit      -0.009720
 1881 Fit      -0.010713
 1882 Fit      -0.011448
 1883 Fit      -0.012540
 1884 Fit      -0.013813
 1885 Fit      -0.014423
 1886 Fit      -0.013380
 1887 Fit      -0.010086
 1888 Fit      -0.000237
 1889 Fit      -0.004185
 1890 Fit      -0.007151
 1891 Fit      -0.009963
 1892 Fit      -0.012234
 1893 Fit      -0.012755
 1894 Fit      -0.002169
 1895 Fit      -0.000766
 1896 Fit       0.006949
 1897 Fit       0.007158
 1898 Fit       0.007232
 1899 Fit       0.008069
 1900 Fit       0.002888
 1901 Fit       0.002173
 1902 Fit       0.000954
 1903 Fit      -0.003647
 1904 Fit      -0.000047
 1905 Fit       0.001534
 1906 Fit      -0.005315
 1907 Fit       0.004167
 1908 Fit       0.003567
 1909 Fit      -0.001971
 1910 Fit       0.001756
 1911 Fit      -0.002420
 1912 Fit      -0.002563
 1913 Fit      -0.000490
 1914 Fit       0.002103
 1915 Fit       0.002825
 1916 Fit       0.000603
 1917 Fit      -0.005943
 1918 Fit      -0.001594
 1919 Fit      -0.000895
 1920 Fit      -0.003478
 1921 Fit      -0.000636
 1922 Fit      -0.001433
 1923 Fit      -0.002679
 1924 Fit       0.001093
 1925 Fit       0.001985
 1926 Fit       0.001745
 1927 Fit       0.001825
 1928 Fit       0.004339
 1929 Fit      -0.001452
 1930 Fit      -0.003689
 1931 Fit      -0.008184
 1932 Fit      -0.008404
 1933 Fit      -0.007266
 1934 Fit      -0.006117
 1935 Fit      -0.005137
 1936 Fit      -0.010138
 1937 Fit      -0.007182
 1938 Fit      -0.001744
 1939 Fit      -0.011720
 1940 Fit      -0.013736
 1941 Fit      -0.013638
 1942 Fit      -0.012657
 1943 Fit      -0.011833
 1944 Fit      -0.011518
 1945 Fit      -0.011270
 1946 Fit      -0.013345
 1947 Fit      -0.010064
 1948 Fit      -0.004728
 1949 Fit      -0.004877
 1950 Fit      -0.010000
 1951 Fit      -0.013688
 1952 Fit      -0.015654
 1953 Fit      -0.016005
 1954 Fit      -0.015441
 1955 Fit      -0.014793
 1956 Fit      -0.014582
 1957 Fit      -0.014747
 1958 Fit      -0.014648
 1959 Fit      -0.012362
 1960 Fit      -0.006993
 1961 Fit      -0.004063
 1962 Fit      -0.009177
 1963 Fit      -0.012630
 1964 Fit      -0.014320
 1965 Fit      -0.014655
 1966 Fit      -0.014486
 1967 Fit      -0.014522
 1968 Fit      -0.014805
 1969 Fit      -0.014541
 1970 Fit      -0.007027
 1971 Fit      -0.007005
 1972 Fit      -0.009548
 1973 Fit      -0.010751
 1974 Fit      -0.011365
 1975 Fit      -0.011740
 1976 Fit      -0.011032
 1977 Fit       0.001023
 1978 Fit      -0.004543
 1979 Fit      -0.005959
 1980 Fit      -0.005158
 1981 Fit       0.007815
 1982 Fit       0.006385
 1983 Fit       0.007410
 1984 Fit       0.004526
 1985 Fit       0.001781
 1986 Fit       0.006861
 1987 Fit       0.006139
 1988 Fit       0.006962
 1989 Fit       0.005821
 1990 Fit       0.005787
 1991 Fit       0.004566
 1992 Fit       0.005332
 1993 Fit       0.003706
 1994 Fit       0.003828
 1995 Fit       0.004162
 1996 Fit       0.001394
 1997 Fit       0.002878
 1998 Fit       0.000321
 1999 Fit       0.000680
 2000 Fit       0.006040
 2001 Fit       0.007525
 2002 Fit       0.008325
 2003 Fit       0.004831
 2004 Fit       0.007420
 2005 Fit       0.008808
 2006 Fit       0.008999
 2007 Fit       0.004382
 2008 Fit       0.010452
 2009 Fit       0.004343
 2010 Fit       0.001785
 2011 Fit       0.003856
 2012 Fit       0.001583
 2013 Fit       0.000950
 2014 Fit       0.006862
 2015 Fit       0.004293
 2016 Fit       0.002871
 2017 Fit       0.002020
 2018 Fit       0.001153
 2019 Fit       0.000404
 2020 Fit       0.008424
 2021 Fit       0.000132
 2022 Fit      -0.003390
 2023 Fit       0.001888
 2024 Fit       0.002699
 2025 Fit       0.001181
 2026 Fit       0.001273
 2027 Fit       0.001039
 2028 Fit       0.001409
 2029 Fit       0.000377
 2030 Fit      -0.000070
 2031 Fit      -0.001234
 2032 Fit      -0.002569
 2033 Fit      -0.001294
 2034 Fit      -0.002832
 2035 Fit      -0.005967
 2036 Fit      -0.007091
 2037 Fit       0.005212
 2038 Fit       0.006274
 2039 Fit       0.006290
 2040 Fit       0.005359
 2041 Fit       0.004131
 2042 Fit       0.003623
 2043 Fit       0.004833
 2044 Fit       0.007969
 2045 Fit       0.007448
 2046 Fit       0.006774
 2047 Fit       0.005716
 2048 Fit       0.004545
 2049 Fit       0.003397
 2050 Fit       0.002414
 2051 Fit       0.008317
 2052 Fit       0.006656
 2053 Fit       0.004999
 2054 Fit       0.003685
 2055 Fit       0.002625
 2056 Fit       0.003812
 2057 Fit       0.002734
 2058 Fit       0.002154
 2059 Fit       0.001351
 2060 Fit       0.007890
 2061 Fit       0.003655
 2062 Fit       0.002652
 2063 Fit       0.002432
 2064 Fit       0.001776
 2065 Fit       0.000229
 2066 Fit       0.002196
 2067 Fit       0.002738
 2068 Fit       0.002014
 2069 Fit      -0.001122
 Job cpu time:       0 days  0 hours  4 minutes 59.9 seconds.
 Normal termination of Gaussian 16 at Sat Jul  8 20:47:12 2023.
