 Copyright (c) 1988-2019, Gaussian, Inc.  All Rights Reserved.
  
 This is part of the Gaussian(R) 16 program.  It is based on
 the Gaussian(R) 09 system (copyright 2009, Gaussian, Inc.),
 the Gaussian(R) 03 system (copyright 2003, Gaussian, Inc.),
 the Gaussian(R) 98 system (copyright 1998, Gaussian, Inc.),
 the Gaussian(R) 94 system (copyright 1995, Gaussian, Inc.),
 the Gaussian 92(TM) system (copyright 1992, Gaussian, Inc.),
 the Gaussian 90(TM) system (copyright 1990, Gaussian, Inc.),
 the Gaussian 88(TM) system (copyright 1988, Gaussian, Inc.),
 the Gaussian 86(TM) system (copyright 1986, Carnegie Mellon
 University), and the Gaussian 82(TM) system (copyright 1983,
 Carnegie Mellon University). Gaussian is a federally registered
 trademark of Gaussian, Inc.
 Cite this work as:
 Gaussian 16, Revision C.01,
 M. J. Frisch, G. W. Trucks, H. B. Schlegel, G. E. Scuseria, 
 M. A. Robb, J. R. Cheeseman, G. Scalmani, V. Barone, 
 G. A. Petersson, H. Nakatsuji, X. Li, M. Caricato, A. V. Marenich, 
 J. Bloino, B. G. Janesko, R. Gomperts, B. Mennucci, H. P. Hratchian, 
 J. V. Ortiz, A. F. Izmaylov, J. L. Sonnenberg, D. Williams-Young, 
 F. Ding, F. Lipparini, F. Egidi, J. Goings, B. Peng, A. Petrone, 
 T. Henderson, D. Ranasinghe, V. G. Zakrzewski, J. Gao, N. Rega, 
 G. Zheng, W. Liang, M. Hada, M. Ehara, K. Toyota, R. Fukuda, 
 J. Hasegawa, M. Ishida, T. Nakajima, Y. Honda, O. Kitao, H. Nakai, 
 T. Vreven, K. Throssell, J. A. Montgomery, Jr., J. E. Peralta, 
 F. Ogliaro, M. J. Bearpark, J. J. Heyd, E. N. Brothers, K. N. Kudin, 
 V. N. Staroverov, T. A. Keith, R. Kobayashi, J. Normand, 
 K. Raghavachari, A. P. Rendell, J. C. Burant, S. S. Iyengar, 
 J. Tomasi, M. Cossi, J. M. Millam, M. Klene, C. Adamo, R. Cammi, 
 J. W. Ochterski, R. L. Martin, K. Morokuma, O. Farkas, 
 J. B. Foresman, and D. J. Fox, Gaussian, Inc., Wallingford CT, 2019.
 
 ******************************************
 Gaussian 16:  EM64L-G16RevC.01  3-Jul-2019
                 8-Jul-2023 
 ******************************************
 ----------------------------------------------------------------------
 #P HF/6-31G(d) SCF(Conver=8,XQC,MaxConventionalCycles=64,MaxCycle=128)
  NoSymm Test Pop=mk IOp(6/33=2) GFInput GFPrint
 ----------------------------------------------------------------------
 1/38=1,172=1/1;
 2/12=2,15=1,17=6,18=5,40=1/2;
 3/5=1,6=6,7=1,11=9,24=110,25=1,30=1/1,2,3;
 4//1;
 5/5=2,6=8,7=128,8=3,13=1,38=5,85=64/2,8;
 6/7=2,8=2,9=2,10=2,15=8,20=1,28=1,33=2/1,2;
 99/5=1,9=1/99;
 -------------------------------------------------
 MEP step - Input generated by PyRED DVE-DMDS-OPLS
 -------------------------------------------------
 Symbolic Z-matrix:
 Charge =  0 Multiplicity = 1
 C                    -6.19253  -0.50615   0.67627 
 H                    -6.12595  -1.37002   1.32788 
 H                    -5.4029    0.18583   0.94656 
 H                    -7.14897  -0.02048   0.84274 
 C                    -6.05602  -0.92565  -0.77403 
 H                    -6.85708  -1.61107  -1.04915 
 H                    -6.13045  -0.05994  -1.43066 
 O                    -4.81613  -1.54951  -0.94422 
 C                    -4.56359  -1.99915  -2.2405 
 H                    -4.63015  -1.17817  -2.95189 
 H                    -5.30046  -2.75085  -2.52664 
 C                    -3.18015  -2.6145   -2.31488 
 H                    -3.06571  -3.34341  -1.51639 
 H                    -3.08889  -3.13446  -3.26192 
 O                    -2.1459   -1.67675  -2.28375 
 C                    -1.70705  -1.24997  -1.02371 
 H                    -1.47932  -2.10208  -0.38786 
 H                    -2.45489  -0.64965  -0.5235 
 C                    -0.4507   -0.43503  -1.25067 
 H                    -0.67459   0.4132   -1.89345 
 H                     0.29153  -1.04772  -1.75512 
 O                     0.        0.        0. 
 C                     1.13056   0.82089   0. 
 H                     1.08709   1.41547   0.90264 
 H                     1.10457   1.50239  -0.84656 
 C                     2.41841   0.        0. 
 H                     2.48255  -0.6397   -0.87165 
 H                     2.42623  -0.64225   0.87161 
 S                     3.92612   1.0072    0.10666 
 C                     4.1098    1.5696   -1.61592 
 H                     4.13624   0.707    -2.26984 
 H                     3.26705   2.18674  -1.89821 
 C                     5.40497   2.36651  -1.74711 
 H                     6.25185   1.74289  -1.48849 
 H                     5.38503   3.21309  -1.07329 
 S                     5.58799   2.93847  -3.4657 
 C                     7.23811   3.70355  -3.41857 
 H                     7.54382   3.7947   -4.45249 
 H                     7.926     3.01642  -2.94194 
 C                     7.26625   5.07708  -2.75128 
 H                     6.60423   5.7509   -3.27918 
 H                     6.91649   5.02781  -1.72884 
 S                     8.9028    5.87151  -2.79559 
 C                     9.80541   5.01981  -1.46295 
 H                     9.72367   3.948    -1.59773 
 H                     10.844    5.27592  -1.63506 
 C                     9.39539   5.42458  -0.05003 
 H                     8.3606    5.17539   0.1577 
 H                     10.01072   4.9042    0.67851 
 H                     9.51896   6.49096   0.09747 
 
 ITRead=  0  0  0  0  0  0  0  0  0  0  0  0  0  0  0  0  0  0  0  0
 ITRead=  0  0  0  0  0  0  0  0  0  0  0  0  0  0  0  0  0  0  0  0
 ITRead=  0  0  0  0  0  0  0  0  0  0
 MicOpt= -1 -1 -1 -1 -1 -1 -1 -1 -1 -1 -1 -1 -1 -1 -1 -1 -1 -1 -1 -1
 MicOpt= -1 -1 -1 -1 -1 -1 -1 -1 -1 -1 -1 -1 -1 -1 -1 -1 -1 -1 -1 -1
 MicOpt= -1 -1 -1 -1 -1 -1 -1 -1 -1 -1
 NAtoms=     50 NQM=       50 NQMF=       0 NMMI=      0 NMMIF=      0
                NMic=       0 NMicF=      0.
                          Input orientation:                          
 ---------------------------------------------------------------------
 Center     Atomic      Atomic             Coordinates (Angstroms)
 Number     Number       Type             X           Y           Z
 ---------------------------------------------------------------------
      1          6           0       -6.192532   -0.506149    0.676270
      2          1           0       -6.125953   -1.370016    1.327878
      3          1           0       -5.402899    0.185830    0.946556
      4          1           0       -7.148973   -0.020480    0.842741
      5          6           0       -6.056018   -0.925649   -0.774028
      6          1           0       -6.857081   -1.611072   -1.049154
      7          1           0       -6.130450   -0.059939   -1.430663
      8          8           0       -4.816133   -1.549513   -0.944223
      9          6           0       -4.563589   -1.999151   -2.240503
     10          1           0       -4.630151   -1.178168   -2.951889
     11          1           0       -5.300457   -2.750854   -2.526638
     12          6           0       -3.180153   -2.614495   -2.314876
     13          1           0       -3.065714   -3.343412   -1.516389
     14          1           0       -3.088888   -3.134456   -3.261916
     15          8           0       -2.145898   -1.676749   -2.283751
     16          6           0       -1.707050   -1.249974   -1.023706
     17          1           0       -1.479315   -2.102079   -0.387856
     18          1           0       -2.454888   -0.649648   -0.523500
     19          6           0       -0.450704   -0.435026   -1.250671
     20          1           0       -0.674594    0.413202   -1.893454
     21          1           0        0.291532   -1.047716   -1.755124
     22          8           0        0.000000    0.000000    0.000000
     23          6           0        1.130561    0.820889    0.000000
     24          1           0        1.087085    1.415471    0.902635
     25          1           0        1.104574    1.502392   -0.846558
     26          6           0        2.418407    0.000000    0.000000
     27          1           0        2.482545   -0.639699   -0.871654
     28          1           0        2.426227   -0.642250    0.871607
     29         16           0        3.926119    1.007197    0.106662
     30          6           0        4.109805    1.569604   -1.615924
     31          1           0        4.136242    0.707003   -2.269840
     32          1           0        3.267050    2.186738   -1.898206
     33          6           0        5.404967    2.366505   -1.747111
     34          1           0        6.251854    1.742890   -1.488490
     35          1           0        5.385027    3.213088   -1.073294
     36         16           0        5.587989    2.938474   -3.465696
     37          6           0        7.238113    3.703551   -3.418571
     38          1           0        7.543821    3.794696   -4.452491
     39          1           0        7.926001    3.016420   -2.941943
     40          6           0        7.266250    5.077076   -2.751275
     41          1           0        6.604228    5.750899   -3.279182
     42          1           0        6.916491    5.027812   -1.728838
     43         16           0        8.902799    5.871514   -2.795588
     44          6           0        9.805414    5.019806   -1.462952
     45          1           0        9.723666    3.948003   -1.597725
     46          1           0       10.843997    5.275923   -1.635061
     47          6           0        9.395387    5.424583   -0.050025
     48          1           0        8.360602    5.175392    0.157695
     49          1           0       10.010724    4.904195    0.678514
     50          1           0        9.518958    6.490957    0.097472
 ---------------------------------------------------------------------
 Stoichiometry    C14H30O3S3
 Framework group  C1[X(C14H30O3S3)]
 Standard basis: 6-31G(d) (6D, 7F)
   372 basis functions,   752 primitive gaussians,   372 cartesian basis functions
    93 alpha electrons       93 beta electrons
 Requested convergence on RMS density matrix=1.00D-08 within  64 cycles.
 Requested convergence on MAX density matrix=1.00D-06.
 Requested convergence on             energy=1.00D-06.
 SCF Done:  E(RHF) =  -1964.69671965     A.U. after   13 cycles
            NFock= 13  Conv=0.47D-08     -V/T= 2.0006
 Mulliken charges:
     1  C   -0.490450
     2  H    0.174304
     3  H    0.175635
     4  H    0.157998
     5  C    0.023124
     6  H    0.137611
     7  H    0.141179
     8  O   -0.625099
     9  C    0.009952
    10  H    0.152126
    11  H    0.135120
    12  C    0.002772
    13  H    0.156396
    14  H    0.169505
    15  O   -0.647331
    16  C    0.013481
    17  H    0.149228
    18  H    0.182445
    19  C    0.007582
    20  H    0.153311
    21  H    0.146930
    22  O   -0.640790
    23  C    0.028152
    24  H    0.187411
    25  H    0.145929
    26  C   -0.505190
    27  H    0.195367
    28  H    0.214075
    29  S    0.116891
    30  C   -0.478231
    31  H    0.206698
    32  H    0.206289
    33  C   -0.479587
    34  H    0.203757
    35  H    0.203799
    36  S    0.127171
    37  C   -0.476715
    38  H    0.219013
    39  H    0.194562
    40  C   -0.476914
    41  H    0.216921
    42  H    0.197145
    43  S    0.115557
    44  C   -0.476297
    45  H    0.187866
    46  H    0.201811
    47  C   -0.474022
    48  H    0.162808
    49  H    0.168652
    50  H    0.182053
 Sum of Mulliken charges =  -0.00000
 Dipole moment (field-independent basis, Debye):
    X=             -1.5652    Y=             -1.4131    Z=              0.3230  Tot=              2.1333
 Quadrupole moment (field-independent basis, Debye-Ang):
   XX=           -128.1641   YY=           -157.2079   ZZ=           -158.7830
   XY=             -4.0175   XZ=             15.2380   YZ=             11.0619
 Traceless Quadrupole moment (field-independent basis, Debye-Ang):
   XX=             19.8876   YY=             -9.1562   ZZ=            -10.7314
   XY=             -4.0175   XZ=             15.2380   YZ=             11.0619
 Octapole moment (field-independent basis, Debye-Ang**2):
  XXX=          -1113.5816  YYY=           -792.5507  ZZZ=            691.4771  XYY=           -486.0826
  XXY=           -284.7895  XXZ=            282.5262  XZZ=           -454.2700  YZZ=           -271.4447
  YYZ=            268.7898  XYZ=             67.2083
 Hexadecapole moment (field-independent basis, Debye-Ang**3):
 XXXX=         -27398.4947 YYYY=          -9513.8328 ZZZZ=          -3784.3064 XXXY=          -7492.4475
 XXXZ=           3719.2817 YYYX=          -8309.8205 YYYZ=           1979.2403 ZZZX=           2971.3883
 ZZZY=           1648.4692 XXYY=          -7198.8629 XXZZ=          -6064.9335 YYZZ=          -2243.6386
 XXYZ=           1330.5899 YYXZ=           1528.1848 ZZXY=          -2773.4018
 Merz-Kollman atomic radii used.
 Atom Element Radius
    1     6    1.50
    2     1    1.20
    3     1    1.20
    4     1    1.20
    5     6    1.50
    6     1    1.20
    7     1    1.20
    8     8    1.40
    9     6    1.50
   10     1    1.20
   11     1    1.20
   12     6    1.50
   13     1    1.20
   14     1    1.20
   15     8    1.40
   16     6    1.50
   17     1    1.20
   18     1    1.20
   19     6    1.50
   20     1    1.20
   21     1    1.20
   22     8    1.40
   23     6    1.50
   24     1    1.20
   25     1    1.20
   26     6    1.50
   27     1    1.20
   28     1    1.20
   29    16    1.75
   30     6    1.50
   31     1    1.20
   32     1    1.20
   33     6    1.50
   34     1    1.20
   35     1    1.20
   36    16    1.75
   37     6    1.50
   38     1    1.20
   39     1    1.20
   40     6    1.50
   41     1    1.20
   42     1    1.20
   43    16    1.75
   44     6    1.50
   45     1    1.20
   46     1    1.20
   47     6    1.50
   48     1    1.20
   49     1    1.20
   50     1    1.20
 Generate VDW surfaces: Layer= 4 Dens= 1 Start= 1.400 Inc= 0.200
            Electrostatic Properties Using The SCF Density.


       Atomic Center    1 is at  -6.192532 -0.506149  0.676270
       Atomic Center    2 is at  -6.125953 -1.370016  1.327878
       Atomic Center    3 is at  -5.402899  0.185830  0.946556
       Atomic Center    4 is at  -7.148973 -0.020480  0.842741
       Atomic Center    5 is at  -6.056018 -0.925649 -0.774028
       Atomic Center    6 is at  -6.857081 -1.611072 -1.049154
       Atomic Center    7 is at  -6.130450 -0.059939 -1.430663
       Atomic Center    8 is at  -4.816133 -1.549513 -0.944223
       Atomic Center    9 is at  -4.563589 -1.999151 -2.240503
       Atomic Center   10 is at  -4.630151 -1.178168 -2.951889
       Atomic Center   11 is at  -5.300457 -2.750854 -2.526638
       Atomic Center   12 is at  -3.180153 -2.614495 -2.314876
       Atomic Center   13 is at  -3.065714 -3.343412 -1.516389
       Atomic Center   14 is at  -3.088888 -3.134456 -3.261916
       Atomic Center   15 is at  -2.145898 -1.676749 -2.283751
       Atomic Center   16 is at  -1.707050 -1.249974 -1.023706
       Atomic Center   17 is at  -1.479315 -2.102079 -0.387856
       Atomic Center   18 is at  -2.454888 -0.649648 -0.523500
       Atomic Center   19 is at  -0.450704 -0.435026 -1.250671
       Atomic Center   20 is at  -0.674594  0.413202 -1.893454
       Atomic Center   21 is at   0.291532 -1.047716 -1.755124
       Atomic Center   22 is at   0.000000  0.000000  0.000000
       Atomic Center   23 is at   1.130561  0.820889  0.000000
       Atomic Center   24 is at   1.087085  1.415471  0.902635
       Atomic Center   25 is at   1.104574  1.502392 -0.846558
       Atomic Center   26 is at   2.418407  0.000000  0.000000
       Atomic Center   27 is at   2.482545 -0.639699 -0.871654
       Atomic Center   28 is at   2.426227 -0.642250  0.871607
       Atomic Center   29 is at   3.926119  1.007197  0.106662
       Atomic Center   30 is at   4.109805  1.569604 -1.615924
       Atomic Center   31 is at   4.136242  0.707003 -2.269840
       Atomic Center   32 is at   3.267050  2.186738 -1.898206
       Atomic Center   33 is at   5.404967  2.366505 -1.747111
       Atomic Center   34 is at   6.251854  1.742890 -1.488490
       Atomic Center   35 is at   5.385027  3.213088 -1.073294
       Atomic Center   36 is at   5.587989  2.938474 -3.465696
       Atomic Center   37 is at   7.238113  3.703551 -3.418571
       Atomic Center   38 is at   7.543821  3.794696 -4.452491
       Atomic Center   39 is at   7.926001  3.016420 -2.941943
       Atomic Center   40 is at   7.266250  5.077076 -2.751275
       Atomic Center   41 is at   6.604228  5.750899 -3.279182
       Atomic Center   42 is at   6.916491  5.027812 -1.728838
       Atomic Center   43 is at   8.902799  5.871514 -2.795588
       Atomic Center   44 is at   9.805414  5.019806 -1.462952
       Atomic Center   45 is at   9.723666  3.948003 -1.597725
       Atomic Center   46 is at  10.843997  5.275923 -1.635061
       Atomic Center   47 is at   9.395387  5.424583 -0.050025
       Atomic Center   48 is at   8.360602  5.175392  0.157695
       Atomic Center   49 is at  10.010724  4.904195  0.678514
       Atomic Center   50 is at   9.518958  6.490957  0.097472
      ESP Fit Center   51 is at  -6.192532 -0.506149  2.776270
      ESP Fit Center   52 is at  -5.142532 -0.506149  2.494923
      ESP Fit Center   53 is at  -6.717532  0.403178  2.494923
      ESP Fit Center   54 is at  -7.242532 -0.506149  2.494923
      ESP Fit Center   55 is at  -6.451353  1.293993  1.726270
      ESP Fit Center   56 is at  -7.764405 -1.898707  0.676270
      ESP Fit Center   57 is at  -6.451353  1.293993 -0.373730
      ESP Fit Center   58 is at  -6.125953 -1.370016  3.007878
      ESP Fit Center   59 is at  -5.138474 -1.370016  2.687027
      ESP Fit Center   60 is at  -6.924840 -0.789590  2.687027
      ESP Fit Center   61 is at  -6.924840 -1.950442  2.687027
      ESP Fit Center   62 is at  -5.820805 -2.309165  2.687027
      ESP Fit Center   63 is at  -4.528178 -1.370016  1.847027
      ESP Fit Center   64 is at  -7.627370 -1.916487  1.847027
      ESP Fit Center   65 is at  -6.924840 -2.753730  1.847027
      ESP Fit Center   66 is at  -5.848502 -2.943517  1.847027
      ESP Fit Center   67 is at  -4.901986 -2.397046  1.847027
      ESP Fit Center   68 is at  -6.924840 -2.753730  0.808729
      ESP Fit Center   69 is at  -5.848502 -2.943517  0.808729
      ESP Fit Center   70 is at  -5.402899  0.185830  2.626556
      ESP Fit Center   71 is at  -4.415420  0.185830  2.305705
      ESP Fit Center   72 is at  -5.097751  1.124979  2.305705
      ESP Fit Center   73 is at  -3.805124  0.185830  1.465705
      ESP Fit Center   74 is at  -4.178932  1.212860  1.465705
      ESP Fit Center   75 is at  -5.125448  1.759331  1.465705
      ESP Fit Center   76 is at  -6.201786  1.569544  1.465705
      ESP Fit Center   77 is at  -4.178932 -0.841200  1.465705
      ESP Fit Center   78 is at  -3.805124  0.185830  0.427407
      ESP Fit Center   79 is at  -4.178932  1.212860  0.427407
      ESP Fit Center   80 is at  -5.125448  1.759331  0.427407
      ESP Fit Center   81 is at  -5.097751  1.124979 -0.412593
      ESP Fit Center   82 is at  -7.148973 -0.020480  2.522741
      ESP Fit Center   83 is at  -6.843825  0.918669  2.201890
      ESP Fit Center   84 is at  -7.947860  0.559946  2.201890
      ESP Fit Center   85 is at  -7.947860 -0.600906  2.201890
      ESP Fit Center   86 is at  -6.871522  1.553021  1.361890
      ESP Fit Center   87 is at  -7.947860  1.363234  1.361890
      ESP Fit Center   88 is at  -8.650390  0.525991  1.361890
      ESP Fit Center   89 is at  -8.650390 -0.566951  1.361890
      ESP Fit Center   90 is at  -6.871522  1.553021  0.323592
      ESP Fit Center   91 is at  -7.947860  1.363234  0.323592
      ESP Fit Center   92 is at  -8.650390  0.525991  0.323592
      ESP Fit Center   93 is at  -8.650390 -0.566951  0.323592
      ESP Fit Center   94 is at  -7.947860  0.559946 -0.516408
      ESP Fit Center   95 is at  -6.314839 -2.725791  0.275972
      ESP Fit Center   96 is at  -7.627891  0.466909 -0.774028
      ESP Fit Center   97 is at  -8.094996 -0.423086 -0.774028
      ESP Fit Center   98 is at  -7.801003 -0.413275 -1.824028
      ESP Fit Center   99 is at  -7.106018 -0.925649 -2.592681
      ESP Fit Center  100 is at  -7.655968 -2.191498  0.309995
      ESP Fit Center  101 is at  -8.358498 -1.064601 -0.530005
      ESP Fit Center  102 is at  -8.358498 -2.157543 -0.530005
      ESP Fit Center  103 is at  -7.655968 -2.994786 -0.530005
      ESP Fit Center  104 is at  -6.579630 -3.184573 -0.530005
      ESP Fit Center  105 is at  -8.358498 -1.064601 -1.568303
      ESP Fit Center  106 is at  -8.358498 -2.157543 -1.568303
      ESP Fit Center  107 is at  -7.655968 -2.994786 -1.568303
      ESP Fit Center  108 is at  -7.655968 -1.030646 -2.408303
      ESP Fit Center  109 is at  -7.655968 -2.191498 -2.408303
      ESP Fit Center  110 is at  -6.857081 -1.611072 -2.729154
      ESP Fit Center  111 is at  -4.906483  0.967091 -0.911514
      ESP Fit Center  112 is at  -5.852999  1.513562 -0.911514
      ESP Fit Center  113 is at  -6.929337  1.323775 -0.911514
      ESP Fit Center  114 is at  -7.631867  0.486532 -0.911514
      ESP Fit Center  115 is at  -4.906483  0.967091 -1.949812
      ESP Fit Center  116 is at  -5.852999  1.513562 -1.949812
      ESP Fit Center  117 is at  -6.929337  1.323775 -1.949812
      ESP Fit Center  118 is at  -7.631867  0.486532 -1.949812
      ESP Fit Center  119 is at  -5.825302  0.879210 -2.789812
      ESP Fit Center  120 is at  -6.929337  0.520487 -2.789812
      ESP Fit Center  121 is at  -6.929337 -0.640365 -2.789812
      ESP Fit Center  122 is at  -6.130450 -0.059939 -3.110663
      ESP Fit Center  123 is at  -3.836133 -1.549513  0.753187
      ESP Fit Center  124 is at  -4.326133 -2.398218  0.753187
      ESP Fit Center  125 is at  -5.340661 -3.163846  0.035777
      ESP Fit Center  126 is at  -4.291605 -3.163846  0.035777
      ESP Fit Center  127 is at  -3.442900 -2.547225  0.035777
      ESP Fit Center  128 is at  -5.796133 -3.246923 -0.944223
      ESP Fit Center  129 is at  -4.822410 -3.799293 -1.190503
      ESP Fit Center  130 is at  -6.308574 -1.486777 -3.290503
      ESP Fit Center  131 is at  -5.613589 -1.999151 -4.059156
      ESP Fit Center  132 is at  -3.406184 -0.151138 -2.432740
      ESP Fit Center  133 is at  -4.352700  0.395333 -2.432740
      ESP Fit Center  134 is at  -3.406184 -0.151138 -3.471038
      ESP Fit Center  135 is at  -4.352700  0.395333 -3.471038
      ESP Fit Center  136 is at  -5.429038  0.205546 -3.471038
      ESP Fit Center  137 is at  -6.131568 -0.631697 -3.471038
      ESP Fit Center  138 is at  -3.642672 -1.178168 -4.311038
      ESP Fit Center  139 is at  -4.325003 -0.239019 -4.311038
      ESP Fit Center  140 is at  -5.429038 -0.597742 -4.311038
      ESP Fit Center  141 is at  -5.429038 -1.758594 -4.311038
      ESP Fit Center  142 is at  -4.630151 -1.178168 -4.631889
      ESP Fit Center  143 is at  -6.099344 -3.331280 -1.167489
      ESP Fit Center  144 is at  -6.801874 -3.297325 -2.007489
      ESP Fit Center  145 is at  -6.099344 -4.134568 -2.007489
      ESP Fit Center  146 is at  -5.023006 -4.324355 -2.007489
      ESP Fit Center  147 is at  -6.801874 -2.204383 -3.045787
      ESP Fit Center  148 is at  -6.801874 -3.297325 -3.045787
      ESP Fit Center  149 is at  -6.099344 -4.134568 -3.045787
      ESP Fit Center  150 is at  -5.023006 -4.324355 -3.045787
      ESP Fit Center  151 is at  -6.099344 -2.170428 -3.885787
      ESP Fit Center  152 is at  -6.099344 -3.331280 -3.885787
      ESP Fit Center  153 is at  -4.995309 -3.690003 -3.885787
      ESP Fit Center  154 is at  -5.300457 -2.750854 -4.206638
      ESP Fit Center  155 is at  -3.924823 -4.578029 -2.314876
      ESP Fit Center  156 is at  -1.320695 -3.590414 -2.314876
      ESP Fit Center  157 is at  -3.065714 -3.343412  0.163611
      ESP Fit Center  158 is at  -3.864601 -3.923838 -0.157240
      ESP Fit Center  159 is at  -2.760566 -4.282561 -0.157240
      ESP Fit Center  160 is at  -4.567131 -3.889883 -0.997240
      ESP Fit Center  161 is at  -3.864601 -4.727126 -0.997240
      ESP Fit Center  162 is at  -2.788263 -4.916913 -0.997240
      ESP Fit Center  163 is at  -1.841747 -4.370442 -0.997240
      ESP Fit Center  164 is at  -3.864601 -4.727126 -2.035538
      ESP Fit Center  165 is at  -2.788263 -4.916913 -2.035538
      ESP Fit Center  166 is at  -1.841747 -4.370442 -2.035538
      ESP Fit Center  167 is at  -2.811437 -4.707957 -2.742767
      ESP Fit Center  168 is at  -1.491113 -3.134456 -3.781065
      ESP Fit Center  169 is at  -4.590305 -3.680927 -3.781065
      ESP Fit Center  170 is at  -3.887775 -4.518170 -3.781065
      ESP Fit Center  171 is at  -2.811437 -4.707957 -3.781065
      ESP Fit Center  172 is at  -1.864921 -4.161486 -3.781065
      ESP Fit Center  173 is at  -2.101409 -3.134456 -4.621065
      ESP Fit Center  174 is at  -2.783740 -2.195307 -4.621065
      ESP Fit Center  175 is at  -3.887775 -2.554030 -4.621065
      ESP Fit Center  176 is at  -3.887775 -3.714882 -4.621065
      ESP Fit Center  177 is at  -2.783740 -4.073605 -4.621065
      ESP Fit Center  178 is at  -3.088888 -3.134456 -4.941916
      ESP Fit Center  179 is at  -3.125898  0.020661 -2.283751
      ESP Fit Center  180 is at  -1.165898 -3.374159 -2.283751
      ESP Fit Center  181 is at  -0.448488 -2.656749 -2.283751
      ESP Fit Center  182 is at  -0.448488 -1.676749 -3.263751
      ESP Fit Center  183 is at  -1.621370 -0.062416 -3.263751
      ESP Fit Center  184 is at  -2.670426 -0.062416 -3.263751
      ESP Fit Center  185 is at  -0.772665 -2.674461 -3.263751
      ESP Fit Center  186 is at  -1.165898 -1.676749 -3.981161
      ESP Fit Center  187 is at  -1.655898 -0.828044 -3.981161
      ESP Fit Center  188 is at  -2.635898 -0.828044 -3.981161
      ESP Fit Center  189 is at  -1.655898 -2.525454 -3.981161
      ESP Fit Center  190 is at  -2.145898 -1.676749 -4.243751
      ESP Fit Center  191 is at  -1.707050 -1.249974  1.076294
      ESP Fit Center  192 is at  -2.898015  0.124472 -2.073706
      ESP Fit Center  193 is at  -1.479315 -2.102079  1.292144
      ESP Fit Center  194 is at  -0.491836 -2.102079  0.971293
      ESP Fit Center  195 is at  -2.278202 -2.682505  0.971293
      ESP Fit Center  196 is at  -1.174167 -3.041228  0.971293
      ESP Fit Center  197 is at   0.118460 -2.102079  0.131293
      ESP Fit Center  198 is at  -2.980732 -2.648550  0.131293
      ESP Fit Center  199 is at  -2.278202 -3.485793  0.131293
      ESP Fit Center  200 is at  -1.201864 -3.675580  0.131293
      ESP Fit Center  201 is at  -0.255348 -3.129109  0.131293
      ESP Fit Center  202 is at  -1.201864 -3.675580 -0.907005
      ESP Fit Center  203 is at  -0.255348 -3.129109 -0.907005
      ESP Fit Center  204 is at  -2.454888 -0.649648  1.156500
      ESP Fit Center  205 is at  -2.149740  0.289501  0.835649
      ESP Fit Center  206 is at  -3.253775 -0.069222  0.835649
      ESP Fit Center  207 is at  -3.253775 -1.230074  0.835649
      ESP Fit Center  208 is at  -2.177437  0.923853 -0.004351
      ESP Fit Center  209 is at  -3.253775  0.734066 -0.004351
      ESP Fit Center  210 is at  -2.177437  0.923853 -1.042649
      ESP Fit Center  211 is at  -3.253775  0.734066 -1.042649
      ESP Fit Center  212 is at  -3.253775 -0.069222 -1.882649
      ESP Fit Center  213 is at   0.304792 -2.089331 -0.200671
      ESP Fit Center  214 is at   1.079245  0.548212 -2.300671
      ESP Fit Center  215 is at  -0.450704 -0.435026 -3.350671
      ESP Fit Center  216 is at  -1.473481  1.796916 -1.374305
      ESP Fit Center  217 is at  -2.176011  0.959673 -1.374305
      ESP Fit Center  218 is at  -0.397143  1.986703 -2.412603
      ESP Fit Center  219 is at  -1.473481  1.796916 -2.412603
      ESP Fit Center  220 is at  -2.176011  0.959673 -2.412603
      ESP Fit Center  221 is at   0.312885  0.413202 -3.252603
      ESP Fit Center  222 is at  -0.369446  1.352351 -3.252603
      ESP Fit Center  223 is at  -1.473481  0.993628 -3.252603
      ESP Fit Center  224 is at  -0.674594  0.413202 -3.573454
      ESP Fit Center  225 is at   0.568983 -2.621217 -1.235975
      ESP Fit Center  226 is at   1.515499 -2.074746 -1.235975
      ESP Fit Center  227 is at   1.515499 -0.020686 -2.274273
      ESP Fit Center  228 is at   0.568983 -2.621217 -2.274273
      ESP Fit Center  229 is at   1.515499 -2.074746 -2.274273
      ESP Fit Center  230 is at   1.279011 -1.047716 -3.114273
      ESP Fit Center  231 is at   0.596680 -0.108567 -3.114273
      ESP Fit Center  232 is at   0.596680 -1.986865 -3.114273
      ESP Fit Center  233 is at   0.291532 -1.047716 -3.435124
      ESP Fit Center  234 is at   0.000000  0.000000  1.960000
      ESP Fit Center  235 is at  -0.490000  0.848705  1.697410
      ESP Fit Center  236 is at  -0.980000  0.000000  1.697410
      ESP Fit Center  237 is at  -0.490000 -0.848705  1.697410
      ESP Fit Center  238 is at   0.490000 -0.848705  1.697410
      ESP Fit Center  239 is at  -1.373233  0.997712  0.980000
      ESP Fit Center  240 is at  -1.697410  0.000000  0.980000
      ESP Fit Center  241 is at  -0.524528 -1.614333  0.980000
      ESP Fit Center  242 is at   0.524528 -1.614333  0.980000
      ESP Fit Center  243 is at  -0.980000  1.697410  0.000000
      ESP Fit Center  244 is at  -1.697410  0.980000  0.000000
      ESP Fit Center  245 is at   0.980000 -1.697410  0.000000
      ESP Fit Center  246 is at   0.385891  2.784423  0.000000
      ESP Fit Center  247 is at  -0.441312  2.213447  0.000000
      ESP Fit Center  248 is at   1.087085  1.415471  2.582635
      ESP Fit Center  249 is at   2.074564  1.415471  2.261784
      ESP Fit Center  250 is at   1.392233  2.354620  2.261784
      ESP Fit Center  251 is at   0.288198  1.995897  2.261784
      ESP Fit Center  252 is at   0.288198  0.835045  2.261784
      ESP Fit Center  253 is at   1.392233  0.476322  2.261784
      ESP Fit Center  254 is at   2.311052  2.442501  1.421784
      ESP Fit Center  255 is at   1.364536  2.988972  1.421784
      ESP Fit Center  256 is at   0.288198  2.799185  1.421784
      ESP Fit Center  257 is at  -0.414332  1.961942  1.421784
      ESP Fit Center  258 is at   1.364536  2.988972  0.383486
      ESP Fit Center  259 is at   0.288198  2.799185  0.383486
      ESP Fit Center  260 is at   1.382025  3.075893 -0.327409
      ESP Fit Center  261 is at   0.305687  2.886106 -0.327409
      ESP Fit Center  262 is at   1.382025  3.075893 -1.365707
      ESP Fit Center  263 is at   0.305687  2.886106 -1.365707
      ESP Fit Center  264 is at  -0.396843  2.048863 -1.365707
      ESP Fit Center  265 is at   1.409722  2.441541 -2.205707
      ESP Fit Center  266 is at   0.305687  2.082818 -2.205707
      ESP Fit Center  267 is at   1.409722  0.563243 -2.205707
      ESP Fit Center  268 is at   1.104574  1.502392 -2.526558
      ESP Fit Center  269 is at   1.673737 -1.963534  0.000000
      ESP Fit Center  270 is at   2.671534 -2.084689  0.000000
      ESP Fit Center  271 is at   3.611343 -1.728266  0.000000
      ESP Fit Center  272 is at   1.683658 -2.023413 -0.352505
      ESP Fit Center  273 is at   2.759996 -2.213200 -0.352505
      ESP Fit Center  274 is at   3.706512 -1.666729 -0.352505
      ESP Fit Center  275 is at   1.683658 -2.023413 -1.390803
      ESP Fit Center  276 is at   2.759996 -2.213200 -1.390803
      ESP Fit Center  277 is at   3.706512 -1.666729 -1.390803
      ESP Fit Center  278 is at   1.683658 -0.059273 -2.230803
      ESP Fit Center  279 is at   2.787693 -1.578848 -2.230803
      ESP Fit Center  280 is at   2.482545 -0.639699 -2.551654
      ESP Fit Center  281 is at   2.426227 -0.642250  2.551607
      ESP Fit Center  282 is at   3.413706 -0.642250  2.230756
      ESP Fit Center  283 is at   2.731375  0.296899  2.230756
      ESP Fit Center  284 is at   1.627340 -0.061824  2.230756
      ESP Fit Center  285 is at   1.627340 -1.222676  2.230756
      ESP Fit Center  286 is at   2.731375 -1.581399  2.230756
      ESP Fit Center  287 is at   0.924810 -1.188721  1.390756
      ESP Fit Center  288 is at   1.627340 -2.025964  1.390756
      ESP Fit Center  289 is at   2.703678 -2.215751  1.390756
      ESP Fit Center  290 is at   3.650194 -1.669280  1.390756
      ESP Fit Center  291 is at   1.627340 -2.025964  0.352458
      ESP Fit Center  292 is at   2.703678 -2.215751  0.352458
      ESP Fit Center  293 is at   3.650194 -1.669280  0.352458
      ESP Fit Center  294 is at   3.926119  1.007197  2.556662
      ESP Fit Center  295 is at   4.989134  1.007197  2.314036
      ESP Fit Center  296 is at   4.457627  1.927795  2.314036
      ESP Fit Center  297 is at   3.394611  1.927795  2.314036
      ESP Fit Center  298 is at   2.863104  1.007197  2.314036
      ESP Fit Center  299 is at   3.394611  0.086599  2.314036
      ESP Fit Center  300 is at   4.457627  0.086599  2.314036
      ESP Fit Center  301 is at   5.841606  1.007197  1.634212
      ESP Fit Center  302 is at   5.537529  2.042788  1.634212
      ESP Fit Center  303 is at   4.721841  2.749585  1.634212
      ESP Fit Center  304 is at   3.653517  2.903187  1.634212
      ESP Fit Center  305 is at   2.671742  2.454826  1.634212
      ESP Fit Center  306 is at   4.721841 -0.735191  1.634212
      ESP Fit Center  307 is at   5.537529 -0.028394  1.634212
      ESP Fit Center  308 is at   6.314692  1.007197  0.651838
      ESP Fit Center  309 is at   6.078149  2.043560  0.651838
      ESP Fit Center  310 is at   5.415370  2.874659  0.651838
      ESP Fit Center  311 is at   4.457627  3.335884  0.651838
      ESP Fit Center  312 is at   3.394611  3.335884  0.651838
      ESP Fit Center  313 is at   2.436868  2.874659  0.651838
      ESP Fit Center  314 is at   4.457627 -1.321490  0.651838
      ESP Fit Center  315 is at   5.415370 -0.860265  0.651838
      ESP Fit Center  316 is at   6.078149 -0.029166  0.651838
      ESP Fit Center  317 is at   3.394611  3.335884 -0.438514
      ESP Fit Center  318 is at   2.436868  2.874659 -0.438514
      ESP Fit Center  319 is at   4.457627 -1.321490 -0.438514
      ESP Fit Center  320 is at   5.415370 -0.860265 -0.438514
      ESP Fit Center  321 is at   6.078149 -0.029166 -0.438514
      ESP Fit Center  322 is at   4.721841 -0.735191 -1.420888
      ESP Fit Center  323 is at   5.537529 -0.028394 -1.420888
      ESP Fit Center  324 is at   4.413693 -0.866498 -1.750691
      ESP Fit Center  325 is at   5.360209 -0.320027 -1.750691
      ESP Fit Center  326 is at   2.634825  0.160532 -2.788989
      ESP Fit Center  327 is at   3.337355 -0.676711 -2.788989
      ESP Fit Center  328 is at   4.413693 -0.866498 -2.788989
      ESP Fit Center  329 is at   5.360209 -0.320027 -2.788989
      ESP Fit Center  330 is at   3.337355  1.287429 -3.628989
      ESP Fit Center  331 is at   3.337355  0.126577 -3.628989
      ESP Fit Center  332 is at   4.441390 -0.232146 -3.628989
      ESP Fit Center  333 is at   4.136242  0.707003 -3.949840
      ESP Fit Center  334 is at   3.544501  3.760239 -1.379057
      ESP Fit Center  335 is at   2.468163  3.570452 -1.379057
      ESP Fit Center  336 is at   2.468163  3.570452 -2.417355
      ESP Fit Center  337 is at   1.765633  2.733209 -2.417355
      ESP Fit Center  338 is at   1.765633  1.640267 -2.417355
      ESP Fit Center  339 is at   2.468163  2.767164 -3.257355
      ESP Fit Center  340 is at   2.468163  1.606312 -3.257355
      ESP Fit Center  341 is at   6.454967  2.366505  0.071542
      ESP Fit Center  342 is at   7.239333  1.742890 -0.129341
      ESP Fit Center  343 is at   6.557002  0.803741 -0.129341
      ESP Fit Center  344 is at   7.849629  1.742890 -0.969341
      ESP Fit Center  345 is at   7.475821  2.769920 -0.969341
      ESP Fit Center  346 is at   6.529305  0.169389 -0.969341
      ESP Fit Center  347 is at   7.475821  0.715860 -0.969341
      ESP Fit Center  348 is at   6.529305  0.169389 -2.007639
      ESP Fit Center  349 is at   7.475821  0.715860 -2.007639
      ESP Fit Center  350 is at   5.385027  3.213088  0.606706
      ESP Fit Center  351 is at   6.372506  3.213088  0.285855
      ESP Fit Center  352 is at   5.690175  4.152237  0.285855
      ESP Fit Center  353 is at   4.586140  3.793514  0.285855
      ESP Fit Center  354 is at   6.982802  3.213088 -0.554145
      ESP Fit Center  355 is at   5.662478  4.786589 -0.554145
      ESP Fit Center  356 is at   4.586140  4.596802 -0.554145
      ESP Fit Center  357 is at   3.883610  3.759559 -0.554145
      ESP Fit Center  358 is at   4.586140  4.596802 -1.592443
      ESP Fit Center  359 is at   4.333612  4.386103 -1.938146
      ESP Fit Center  360 is at   4.098738  4.805936 -2.920520
      ESP Fit Center  361 is at   3.435959  3.974837 -2.920520
      ESP Fit Center  362 is at   6.119497  0.609787 -2.920520
      ESP Fit Center  363 is at   7.077240  1.071012 -2.920520
      ESP Fit Center  364 is at   5.056481  5.267161 -4.010872
      ESP Fit Center  365 is at   4.098738  4.805936 -4.010872
      ESP Fit Center  366 is at   3.435959  3.974837 -4.010872
      ESP Fit Center  367 is at   3.199416  2.938474 -4.010872
      ESP Fit Center  368 is at   3.435959  1.902111 -4.010872
      ESP Fit Center  369 is at   4.098738  1.071012 -4.010872
      ESP Fit Center  370 is at   5.056481  0.609787 -4.010872
      ESP Fit Center  371 is at   6.119497  0.609787 -4.010872
      ESP Fit Center  372 is at   7.077240  1.071012 -4.010872
      ESP Fit Center  373 is at   5.315387  4.834464 -4.993246
      ESP Fit Center  374 is at   4.333612  4.386103 -4.993246
      ESP Fit Center  375 is at   3.750093  3.478129 -4.993246
      ESP Fit Center  376 is at   3.750093  2.398819 -4.993246
      ESP Fit Center  377 is at   4.333612  1.490845 -4.993246
      ESP Fit Center  378 is at   5.315387  1.042484 -4.993246
      ESP Fit Center  379 is at   6.383711  1.196086 -4.993246
      ESP Fit Center  380 is at   7.199399  1.902883 -4.993246
      ESP Fit Center  381 is at   6.651004  2.938474 -5.673070
      ESP Fit Center  382 is at   6.119497  3.859072 -5.673070
      ESP Fit Center  383 is at   5.056481  3.859072 -5.673070
      ESP Fit Center  384 is at   4.524974  2.938474 -5.673070
      ESP Fit Center  385 is at   5.056481  2.017876 -5.673070
      ESP Fit Center  386 is at   6.119497  2.017876 -5.673070
      ESP Fit Center  387 is at   5.587989  2.938474 -5.915696
      ESP Fit Center  388 is at   7.993609  2.049246 -4.468571
      ESP Fit Center  389 is at   9.141596  3.794696 -4.971640
      ESP Fit Center  390 is at   7.821272  5.368197 -4.971640
      ESP Fit Center  391 is at   6.744934  5.178410 -4.971640
      ESP Fit Center  392 is at   7.821272  2.221195 -4.971640
      ESP Fit Center  393 is at   8.767788  2.767666 -4.971640
      ESP Fit Center  394 is at   8.531300  3.794696 -5.811640
      ESP Fit Center  395 is at   7.848969  4.733845 -5.811640
      ESP Fit Center  396 is at   6.744934  4.375122 -5.811640
      ESP Fit Center  397 is at   6.744934  3.214270 -5.811640
      ESP Fit Center  398 is at   7.848969  2.855547 -5.811640
      ESP Fit Center  399 is at   7.543821  3.794696 -6.132491
      ESP Fit Center  400 is at   7.926001  3.016420 -1.261943
      ESP Fit Center  401 is at   8.231149  2.077271 -1.582794
      ESP Fit Center  402 is at   8.203452  1.442919 -2.422794
      ESP Fit Center  403 is at   9.149968  1.989390 -2.422794
      ESP Fit Center  404 is at   9.523776  3.016420 -3.461092
      ESP Fit Center  405 is at   8.203452  1.442919 -3.461092
      ESP Fit Center  406 is at   9.149968  1.989390 -3.461092
      ESP Fit Center  407 is at   6.881679  7.324400 -2.760033
      ESP Fit Center  408 is at   5.805341  7.134613 -2.760033
      ESP Fit Center  409 is at   5.102811  6.297370 -2.760033
      ESP Fit Center  410 is at   6.881679  7.324400 -3.798331
      ESP Fit Center  411 is at   5.805341  7.134613 -3.798331
      ESP Fit Center  412 is at   5.102811  6.297370 -3.798331
      ESP Fit Center  413 is at   6.909376  6.690048 -4.638331
      ESP Fit Center  414 is at   5.805341  6.331325 -4.638331
      ESP Fit Center  415 is at   5.805341  5.170473 -4.638331
      ESP Fit Center  416 is at   6.604228  5.750899 -4.959182
      ESP Fit Center  417 is at   6.117604  5.608238 -0.369689
      ESP Fit Center  418 is at   6.117604  6.411526 -1.209689
      ESP Fit Center  419 is at   5.415074  5.574283 -1.209689
      ESP Fit Center  420 is at   7.193942  3.454311 -1.209689
      ESP Fit Center  421 is at   9.698521  7.613902 -1.268038
      ESP Fit Center  422 is at   8.630197  7.767504 -1.268038
      ESP Fit Center  423 is at   7.648422  7.319143 -1.268038
      ESP Fit Center  424 is at  11.054829  6.907877 -2.250412
      ESP Fit Center  425 is at  10.392050  7.738976 -2.250412
      ESP Fit Center  426 is at   9.434307  8.200201 -2.250412
      ESP Fit Center  427 is at   8.371291  8.200201 -2.250412
      ESP Fit Center  428 is at   7.413548  7.738976 -2.250412
      ESP Fit Center  429 is at  11.291372  5.871514 -3.340764
      ESP Fit Center  430 is at  11.054829  6.907877 -3.340764
      ESP Fit Center  431 is at  10.392050  7.738976 -3.340764
      ESP Fit Center  432 is at   9.434307  8.200201 -3.340764
      ESP Fit Center  433 is at   8.371291  8.200201 -3.340764
      ESP Fit Center  434 is at   7.413548  7.738976 -3.340764
      ESP Fit Center  435 is at  10.392050  4.004052 -3.340764
      ESP Fit Center  436 is at  11.054829  4.835151 -3.340764
      ESP Fit Center  437 is at  10.818286  5.871514 -4.323138
      ESP Fit Center  438 is at  10.514209  6.907105 -4.323138
      ESP Fit Center  439 is at   9.698521  7.613902 -4.323138
      ESP Fit Center  440 is at   8.630197  7.767504 -4.323138
      ESP Fit Center  441 is at   7.648422  7.319143 -4.323138
      ESP Fit Center  442 is at   9.698521  4.129126 -4.323138
      ESP Fit Center  443 is at  10.514209  4.835923 -4.323138
      ESP Fit Center  444 is at   9.965814  5.871514 -5.002962
      ESP Fit Center  445 is at   9.434307  6.792112 -5.002962
      ESP Fit Center  446 is at   8.371291  6.792112 -5.002962
      ESP Fit Center  447 is at   7.839784  5.871514 -5.002962
      ESP Fit Center  448 is at   9.434307  4.950916 -5.002962
      ESP Fit Center  449 is at   8.902799  5.871514 -5.245588
      ESP Fit Center  450 is at  11.335363  4.036568 -0.412952
      ESP Fit Center  451 is at   8.924779  3.367577 -0.238576
      ESP Fit Center  452 is at  10.028814  3.008854 -0.238576
      ESP Fit Center  453 is at   8.222249  3.401532 -1.078576
      ESP Fit Center  454 is at   8.924779  2.564289 -1.078576
      ESP Fit Center  455 is at  10.001117  2.374502 -1.078576
      ESP Fit Center  456 is at  10.947633  2.920973 -1.078576
      ESP Fit Center  457 is at  10.001117  2.374502 -2.116874
      ESP Fit Center  458 is at  10.947633  2.920973 -2.116874
      ESP Fit Center  459 is at  10.028814  3.008854 -2.956874
      ESP Fit Center  460 is at  11.831476  5.275923 -0.275912
      ESP Fit Center  461 is at  12.441772  5.275923 -1.115912
      ESP Fit Center  462 is at  12.067964  6.302953 -1.115912
      ESP Fit Center  463 is at  11.121448  6.849424 -1.115912
      ESP Fit Center  464 is at  12.067964  4.248893 -1.115912
      ESP Fit Center  465 is at  12.441772  5.275923 -2.154210
      ESP Fit Center  466 is at  12.067964  6.302953 -2.154210
      ESP Fit Center  467 is at  11.121448  6.849424 -2.154210
      ESP Fit Center  468 is at  12.067964  4.248893 -2.154210
      ESP Fit Center  469 is at  11.831476  5.275923 -2.994210
      ESP Fit Center  470 is at  11.149145  4.336774 -2.994210
      ESP Fit Center  471 is at   9.920387  6.333910  1.768628
      ESP Fit Center  472 is at   8.870387  6.333910  1.768628
      ESP Fit Center  473 is at  11.495387  5.424583 -0.050025
      ESP Fit Center  474 is at  11.254845  6.400502 -0.050025
      ESP Fit Center  475 is at   7.823514  6.817141 -0.050025
      ESP Fit Center  476 is at   8.650717  3.461049 -0.050025
      ESP Fit Center  477 is at   8.360602  5.175392  1.837695
      ESP Fit Center  478 is at   7.561715  5.755818  1.516844
      ESP Fit Center  479 is at   7.561715  4.594966  1.516844
      ESP Fit Center  480 is at   7.561715  6.559106  0.676844
      ESP Fit Center  481 is at   6.859185  5.721863  0.676844
      ESP Fit Center  482 is at   6.859185  4.628921  0.676844
      ESP Fit Center  483 is at   7.561715  3.791678  0.676844
      ESP Fit Center  484 is at   8.638053  3.601891  0.676844
      ESP Fit Center  485 is at   7.561715  6.559106 -0.361454
      ESP Fit Center  486 is at   7.561715  3.791678 -0.361454
      ESP Fit Center  487 is at  10.010724  4.904195  2.358514
      ESP Fit Center  488 is at  10.998203  4.904195  2.037663
      ESP Fit Center  489 is at  10.315872  5.843344  2.037663
      ESP Fit Center  490 is at   9.211837  4.323769  2.037663
      ESP Fit Center  491 is at  10.315872  3.965046  2.037663
      ESP Fit Center  492 is at  11.608499  4.904195  1.197663
      ESP Fit Center  493 is at  11.234691  5.931225  1.197663
      ESP Fit Center  494 is at   9.211837  3.520481  1.197663
      ESP Fit Center  495 is at  10.288175  3.330694  1.197663
      ESP Fit Center  496 is at  11.234691  3.877165  1.197663
      ESP Fit Center  497 is at  11.608499  4.904195  0.159365
      ESP Fit Center  498 is at  10.288175  3.330694  0.159365
      ESP Fit Center  499 is at  11.234691  3.877165  0.159365
      ESP Fit Center  500 is at   9.518958  6.490957  1.777472
      ESP Fit Center  501 is at  10.506437  6.490957  1.456621
      ESP Fit Center  502 is at   9.824106  7.430106  1.456621
      ESP Fit Center  503 is at   8.720071  7.071383  1.456621
      ESP Fit Center  504 is at  11.116733  6.490957  0.616621
      ESP Fit Center  505 is at  10.742925  7.517987  0.616621
      ESP Fit Center  506 is at   9.796409  8.064458  0.616621
      ESP Fit Center  507 is at   8.720071  7.874671  0.616621
      ESP Fit Center  508 is at   8.017541  7.037428  0.616621
      ESP Fit Center  509 is at  10.742925  7.517987 -0.421677
      ESP Fit Center  510 is at   9.796409  8.064458 -0.421677
      ESP Fit Center  511 is at   8.720071  7.874671 -0.421677
      ESP Fit Center  512 is at   8.017541  7.037428 -0.421677
      ESP Fit Center  513 is at  -6.192532 -0.506149  3.076270
      ESP Fit Center  514 is at  -5.151211 -0.506149  2.838595
      ESP Fit Center  515 is at  -5.671872  0.395661  2.838595
      ESP Fit Center  516 is at  -6.713192  0.395661  2.838595
      ESP Fit Center  517 is at  -7.233853 -0.506149  2.838595
      ESP Fit Center  518 is at  -6.459571  1.351148  2.172646
      ESP Fit Center  519 is at  -8.300643 -1.521362  1.210320
      ESP Fit Center  520 is at  -4.084421 -1.521362  1.210320
      ESP Fit Center  521 is at  -6.713192  1.775014  0.142220
      ESP Fit Center  522 is at  -6.125953 -1.370016  3.247878
      ESP Fit Center  523 is at  -5.165953 -1.370016  2.990647
      ESP Fit Center  524 is at  -7.085953 -1.370016  2.990647
      ESP Fit Center  525 is at  -6.605953 -2.201400  2.990647
      ESP Fit Center  526 is at  -5.645953 -2.201400  2.990647
      ESP Fit Center  527 is at  -4.463184 -1.370016  2.287878
      ESP Fit Center  528 is at  -7.788722 -1.370016  2.287878
      ESP Fit Center  529 is at  -7.471161 -2.347367  2.287878
      ESP Fit Center  530 is at  -6.639777 -2.951403  2.287878
      ESP Fit Center  531 is at  -5.612129 -2.951403  2.287878
      ESP Fit Center  532 is at  -4.780745 -2.347367  2.287878
      ESP Fit Center  533 is at  -7.788722 -2.330016  1.327878
      ESP Fit Center  534 is at  -7.085953 -3.032785  1.327878
      ESP Fit Center  535 is at  -6.125953 -3.290016  1.327878
      ESP Fit Center  536 is at  -5.165953 -3.032785  1.327878
      ESP Fit Center  537 is at  -4.463184 -2.330016  1.327878
      ESP Fit Center  538 is at  -5.402899  0.185830  2.866556
      ESP Fit Center  539 is at  -4.442899  0.185830  2.609325
      ESP Fit Center  540 is at  -4.922899  1.017214  2.609325
      ESP Fit Center  541 is at  -5.882899  1.017214  2.609325
      ESP Fit Center  542 is at  -3.740130  0.185830  1.906556
      ESP Fit Center  543 is at  -4.057691  1.163181  1.906556
      ESP Fit Center  544 is at  -4.889075  1.767217  1.906556
      ESP Fit Center  545 is at  -5.916723  1.767217  1.906556
      ESP Fit Center  546 is at  -4.057691 -0.791521  1.906556
      ESP Fit Center  547 is at  -3.482899  0.185830  0.946556
      ESP Fit Center  548 is at  -3.740130  1.145830  0.946556
      ESP Fit Center  549 is at  -4.442899  1.848599  0.946556
      ESP Fit Center  550 is at  -5.402899  2.105830  0.946556
      ESP Fit Center  551 is at  -3.740130 -0.774170  0.946556
      ESP Fit Center  552 is at  -4.057691  1.163181 -0.013444
      ESP Fit Center  553 is at  -4.889075  1.767217 -0.013444
      ESP Fit Center  554 is at  -7.628973  0.810904  2.505510
      ESP Fit Center  555 is at  -8.108973 -0.020480  2.505510
      ESP Fit Center  556 is at  -7.662797  1.560907  1.802741
      ESP Fit Center  557 is at  -8.494181  0.956871  1.802741
      ESP Fit Center  558 is at  -8.811742 -0.020480  1.802741
      ESP Fit Center  559 is at  -8.494181 -0.997831  1.802741
      ESP Fit Center  560 is at  -7.148973  1.899520  0.842741
      ESP Fit Center  561 is at  -8.108973  1.642289  0.842741
      ESP Fit Center  562 is at  -8.811742  0.939520  0.842741
      ESP Fit Center  563 is at  -9.068973 -0.020480  0.842741
      ESP Fit Center  564 is at  -8.811742 -0.980480  0.842741
      ESP Fit Center  565 is at  -7.662797  1.560907 -0.117259
      ESP Fit Center  566 is at  -8.494181  0.956871 -0.117259
      ESP Fit Center  567 is at  -8.811742 -0.020480 -0.117259
      ESP Fit Center  568 is at  -8.494181 -0.997831 -0.117259
      ESP Fit Center  569 is at  -8.164129  0.089564 -1.308078
      ESP Fit Center  570 is at  -7.856406 -0.397007 -2.270404
      ESP Fit Center  571 is at  -7.097339 -0.925649 -2.936353
      ESP Fit Center  572 is at  -8.519850 -1.611072 -0.089154
      ESP Fit Center  573 is at  -8.202289 -2.588423 -0.089154
      ESP Fit Center  574 is at  -7.370905 -3.192459 -0.089154
      ESP Fit Center  575 is at  -8.519850 -0.651072 -1.049154
      ESP Fit Center  576 is at  -8.777081 -1.611072 -1.049154
      ESP Fit Center  577 is at  -8.519850 -2.571072 -1.049154
      ESP Fit Center  578 is at  -7.817081 -3.273841 -1.049154
      ESP Fit Center  579 is at  -6.857081 -3.531072 -1.049154
      ESP Fit Center  580 is at  -8.202289 -0.633721 -2.009154
      ESP Fit Center  581 is at  -8.519850 -1.611072 -2.009154
      ESP Fit Center  582 is at  -8.202289 -2.588423 -2.009154
      ESP Fit Center  583 is at  -7.370905 -3.192459 -2.009154
      ESP Fit Center  584 is at  -7.817081 -1.611072 -2.711923
      ESP Fit Center  585 is at  -7.337081 -2.442456 -2.711923
      ESP Fit Center  586 is at  -6.857081 -1.611072 -2.969154
      ESP Fit Center  587 is at  -4.467681  0.900061 -1.430663
      ESP Fit Center  588 is at  -5.170450  1.602830 -1.430663
      ESP Fit Center  589 is at  -6.130450  1.860061 -1.430663
      ESP Fit Center  590 is at  -7.090450  1.602830 -1.430663
      ESP Fit Center  591 is at  -7.793219  0.900061 -1.430663
      ESP Fit Center  592 is at  -4.785242  0.917412 -2.390663
      ESP Fit Center  593 is at  -5.616626  1.521448 -2.390663
      ESP Fit Center  594 is at  -6.644274  1.521448 -2.390663
      ESP Fit Center  595 is at  -7.475658  0.917412 -2.390663
      ESP Fit Center  596 is at  -7.793219 -0.059939 -2.390663
      ESP Fit Center  597 is at  -5.650450  0.771445 -3.093432
      ESP Fit Center  598 is at  -6.610450  0.771445 -3.093432
      ESP Fit Center  599 is at  -7.090450 -0.059939 -3.093432
      ESP Fit Center  600 is at  -3.844233 -1.549513  1.073947
      ESP Fit Center  601 is at  -4.330183 -2.391203  1.073947
      ESP Fit Center  602 is at  -5.357315 -3.215101  0.452394
      ESP Fit Center  603 is at  -4.274951 -3.215101  0.452394
      ESP Fit Center  604 is at  -3.399299 -2.578903  0.452394
      ESP Fit Center  605 is at  -5.590533 -3.591437 -0.445776
      ESP Fit Center  606 is at  -4.830628 -3.856448 -0.744127
      ESP Fit Center  607 is at  -6.363977 -1.470509 -3.736879
      ESP Fit Center  608 is at  -5.604910 -1.999151 -4.402828
      ESP Fit Center  609 is at  -4.116327  0.403219 -1.991889
      ESP Fit Center  610 is at  -3.670151  0.484601 -2.951889
      ESP Fit Center  611 is at  -4.630151  0.741832 -2.951889
      ESP Fit Center  612 is at  -3.284943 -0.200817 -3.911889
      ESP Fit Center  613 is at  -4.116327  0.403219 -3.911889
      ESP Fit Center  614 is at  -5.143975  0.403219 -3.911889
      ESP Fit Center  615 is at  -5.975359 -0.200817 -3.911889
      ESP Fit Center  616 is at  -6.292920 -1.178168 -3.911889
      ESP Fit Center  617 is at  -3.670151 -1.178168 -4.614658
      ESP Fit Center  618 is at  -4.150151 -0.346784 -4.614658
      ESP Fit Center  619 is at  -5.110151 -0.346784 -4.614658
      ESP Fit Center  620 is at  -5.590151 -1.178168 -4.614658
      ESP Fit Center  621 is at  -5.110151 -2.009552 -4.614658
      ESP Fit Center  622 is at  -4.150151 -2.009552 -4.614658
      ESP Fit Center  623 is at  -4.630151 -1.178168 -4.871889
      ESP Fit Center  624 is at  -5.780457 -3.582238 -0.863869
      ESP Fit Center  625 is at  -6.645665 -3.728205 -1.566638
      ESP Fit Center  626 is at  -5.814281 -4.332241 -1.566638
      ESP Fit Center  627 is at  -4.786633 -4.332241 -1.566638
      ESP Fit Center  628 is at  -6.963226 -3.710854 -2.526638
      ESP Fit Center  629 is at  -6.260457 -4.413623 -2.526638
      ESP Fit Center  630 is at  -5.300457 -4.670854 -2.526638
      ESP Fit Center  631 is at  -6.645665 -1.773503 -3.486638
      ESP Fit Center  632 is at  -6.963226 -2.750854 -3.486638
      ESP Fit Center  633 is at  -6.645665 -3.728205 -3.486638
      ESP Fit Center  634 is at  -5.814281 -4.332241 -3.486638
      ESP Fit Center  635 is at  -4.786633 -4.332241 -3.486638
      ESP Fit Center  636 is at  -6.260457 -2.750854 -4.189407
      ESP Fit Center  637 is at  -5.780457 -3.582238 -4.189407
      ESP Fit Center  638 is at  -4.820457 -3.582238 -4.189407
      ESP Fit Center  639 is at  -5.300457 -2.750854 -4.446638
      ESP Fit Center  640 is at  -4.639011 -4.443845 -1.780826
      ESP Fit Center  641 is at  -1.072042 -3.629708 -1.780826
      ESP Fit Center  642 is at  -1.721295 -4.443845 -2.848926
      ESP Fit Center  643 is at  -1.072042 -3.629708 -2.848926
      ESP Fit Center  644 is at  -3.065714 -3.343412  0.403611
      ESP Fit Center  645 is at  -4.025714 -3.343412  0.146380
      ESP Fit Center  646 is at  -3.545714 -4.174796  0.146380
      ESP Fit Center  647 is at  -2.585714 -4.174796  0.146380
      ESP Fit Center  648 is at  -4.410922 -4.320763 -0.556389
      ESP Fit Center  649 is at  -3.579538 -4.924799 -0.556389
      ESP Fit Center  650 is at  -2.551890 -4.924799 -0.556389
      ESP Fit Center  651 is at  -1.720506 -4.320763 -0.556389
      ESP Fit Center  652 is at  -4.728483 -4.303412 -1.516389
      ESP Fit Center  653 is at  -4.025714 -5.006181 -1.516389
      ESP Fit Center  654 is at  -3.065714 -5.263412 -1.516389
      ESP Fit Center  655 is at  -2.105714 -5.006181 -1.516389
      ESP Fit Center  656 is at  -1.402945 -4.303412 -1.516389
      ESP Fit Center  657 is at  -4.048888 -4.797225 -3.261916
      ESP Fit Center  658 is at  -3.088888 -5.054456 -3.261916
      ESP Fit Center  659 is at  -2.128888 -4.797225 -3.261916
      ESP Fit Center  660 is at  -1.426119 -4.094456 -3.261916
      ESP Fit Center  661 is at  -1.426119 -3.134456 -4.221916
      ESP Fit Center  662 is at  -4.434096 -4.111807 -4.221916
      ESP Fit Center  663 is at  -3.602712 -4.715843 -4.221916
      ESP Fit Center  664 is at  -2.575064 -4.715843 -4.221916
      ESP Fit Center  665 is at  -1.743680 -4.111807 -4.221916
      ESP Fit Center  666 is at  -2.128888 -3.134456 -4.924685
      ESP Fit Center  667 is at  -2.608888 -2.303072 -4.924685
      ESP Fit Center  668 is at  -3.568888 -2.303072 -4.924685
      ESP Fit Center  669 is at  -4.048888 -3.134456 -4.924685
      ESP Fit Center  670 is at  -3.568888 -3.965840 -4.924685
      ESP Fit Center  671 is at  -2.608888 -3.965840 -4.924685
      ESP Fit Center  672 is at  -3.088888 -3.134456 -5.181916
      ESP Fit Center  673 is at  -0.905336 -3.474013 -1.785304
      ESP Fit Center  674 is at  -2.920298  0.365175 -2.782198
      ESP Fit Center  675 is at  -0.905336 -3.474013 -2.782198
      ESP Fit Center  676 is at  -0.212205 -2.691629 -2.782198
      ESP Fit Center  677 is at  -0.394595 -1.676749 -3.680368
      ESP Fit Center  678 is at  -0.729064 -0.647359 -3.680368
      ESP Fit Center  679 is at  -1.604716 -0.011161 -3.680368
      ESP Fit Center  680 is at  -2.687080 -0.011161 -3.680368
      ESP Fit Center  681 is at  -0.729064 -2.706139 -3.680368
      ESP Fit Center  682 is at  -1.173998 -1.676749 -4.301921
      ESP Fit Center  683 is at  -1.659948 -0.835059 -4.301921
      ESP Fit Center  684 is at  -2.631848 -0.835059 -4.301921
      ESP Fit Center  685 is at  -2.145898 -1.676749 -4.523751
      ESP Fit Center  686 is at  -1.707050 -1.249974  1.376294
      ESP Fit Center  687 is at  -0.248192 -3.079324 -1.557756
      ESP Fit Center  688 is at  -1.479315 -2.102079  1.532144
      ESP Fit Center  689 is at  -0.519315 -2.102079  1.274913
      ESP Fit Center  690 is at  -2.439315 -2.102079  1.274913
      ESP Fit Center  691 is at  -1.959315 -2.933463  1.274913
      ESP Fit Center  692 is at  -0.999315 -2.933463  1.274913
      ESP Fit Center  693 is at  -2.824523 -3.079430  0.572144
      ESP Fit Center  694 is at  -1.993139 -3.683466  0.572144
      ESP Fit Center  695 is at  -0.965491 -3.683466  0.572144
      ESP Fit Center  696 is at  -0.134107 -3.079430  0.572144
      ESP Fit Center  697 is at  -1.479315 -4.022079 -0.387856
      ESP Fit Center  698 is at  -0.519315 -3.764848 -0.387856
      ESP Fit Center  699 is at   0.183454 -3.062079 -0.387856
      ESP Fit Center  700 is at  -0.965491 -3.683466 -1.347856
      ESP Fit Center  701 is at  -0.134107 -3.079430 -1.347856
      ESP Fit Center  702 is at  -2.454888 -0.649648  1.396500
      ESP Fit Center  703 is at  -1.974888  0.181736  1.139269
      ESP Fit Center  704 is at  -2.934888  0.181736  1.139269
      ESP Fit Center  705 is at  -3.414888 -0.649648  1.139269
      ESP Fit Center  706 is at  -2.934888 -1.481032  1.139269
      ESP Fit Center  707 is at  -2.968712  0.931739  0.436500
      ESP Fit Center  708 is at  -2.454888  1.270352 -0.523500
      ESP Fit Center  709 is at  -3.414888  1.013121 -0.523500
      ESP Fit Center  710 is at  -2.968712  0.931739 -1.483500
      ESP Fit Center  711 is at  -1.909562  1.394324 -0.716621
      ESP Fit Center  712 is at   1.127820  0.579430 -2.747047
      ESP Fit Center  713 is at  -0.450704 -0.435026 -3.650671
      ESP Fit Center  714 is at  -1.188418  1.994589 -0.933454
      ESP Fit Center  715 is at  -2.019802  1.390553 -0.933454
      ESP Fit Center  716 is at  -0.674594  2.333202 -1.893454
      ESP Fit Center  717 is at  -1.634594  2.075971 -1.893454
      ESP Fit Center  718 is at  -2.337363  1.373202 -1.893454
      ESP Fit Center  719 is at   0.670614  1.390553 -2.853454
      ESP Fit Center  720 is at  -0.160770  1.994589 -2.853454
      ESP Fit Center  721 is at  -1.188418  1.994589 -2.853454
      ESP Fit Center  722 is at  -2.019802  1.390553 -2.853454
      ESP Fit Center  723 is at   0.285406  0.413202 -3.556223
      ESP Fit Center  724 is at  -0.194594  1.244586 -3.556223
      ESP Fit Center  725 is at  -1.154594  1.244586 -3.556223
      ESP Fit Center  726 is at  -1.634594  0.413202 -3.556223
      ESP Fit Center  727 is at  -0.674594  0.413202 -3.813454
      ESP Fit Center  728 is at   0.805356 -2.629103 -0.795124
      ESP Fit Center  729 is at   0.291532 -2.967716 -1.755124
      ESP Fit Center  730 is at   1.251532 -2.710485 -1.755124
      ESP Fit Center  731 is at   1.954301 -1.047716 -2.715124
      ESP Fit Center  732 is at   1.636740 -0.070365 -2.715124
      ESP Fit Center  733 is at   0.805356 -2.629103 -2.715124
      ESP Fit Center  734 is at   1.636740 -2.025067 -2.715124
      ESP Fit Center  735 is at   1.251532 -1.047716 -3.417893
      ESP Fit Center  736 is at   0.771532 -0.216332 -3.417893
      ESP Fit Center  737 is at  -0.188468 -1.879100 -3.417893
      ESP Fit Center  738 is at   0.771532 -1.879100 -3.417893
      ESP Fit Center  739 is at   0.291532 -1.047716 -3.675124
      ESP Fit Center  740 is at   0.000000  0.000000  2.240000
      ESP Fit Center  741 is at  -0.485950  0.841690  2.018170
      ESP Fit Center  742 is at  -0.971900  0.000000  2.018170
      ESP Fit Center  743 is at  -0.485950 -0.841690  2.018170
      ESP Fit Center  744 is at   0.485950 -0.841690  2.018170
      ESP Fit Center  745 is at  -1.416834  1.029390  1.396617
      ESP Fit Center  746 is at  -1.751303  0.000000  1.396617
      ESP Fit Center  747 is at  -1.416834 -1.029390  1.396617
      ESP Fit Center  748 is at  -0.541182 -1.665588  1.396617
      ESP Fit Center  749 is at   0.541182 -1.665588  1.396617
      ESP Fit Center  750 is at  -1.634627  1.448153  0.498447
      ESP Fit Center  751 is at   0.263233 -2.167916  0.498447
      ESP Fit Center  752 is at   0.609901 -0.080921  2.162325
      ESP Fit Center  753 is at   1.087085  1.415471  2.822635
      ESP Fit Center  754 is at   2.047085  1.415471  2.565404
      ESP Fit Center  755 is at   1.567085  2.246855  2.565404
      ESP Fit Center  756 is at   0.607085  2.246855  2.565404
      ESP Fit Center  757 is at   0.127085  1.415471  2.565404
      ESP Fit Center  758 is at   0.607085  0.584087  2.565404
      ESP Fit Center  759 is at   1.567085  0.584087  2.565404
      ESP Fit Center  760 is at   1.600909  2.996858  1.862635
      ESP Fit Center  761 is at   0.573261  2.996858  1.862635
      ESP Fit Center  762 is at  -0.258123  2.392822  1.862635
      ESP Fit Center  763 is at  -0.575684  1.415471  1.862635
      ESP Fit Center  764 is at   2.047085  3.078240  0.902635
      ESP Fit Center  765 is at   1.087085  3.335471  0.902635
      ESP Fit Center  766 is at   0.127085  3.078240  0.902635
      ESP Fit Center  767 is at  -0.575684  2.375471  0.902635
      ESP Fit Center  768 is at   1.104574  3.422392 -0.846558
      ESP Fit Center  769 is at   0.144574  3.165161 -0.846558
      ESP Fit Center  770 is at  -0.558195  2.462392 -0.846558
      ESP Fit Center  771 is at   0.590750  3.083779 -1.806558
      ESP Fit Center  772 is at  -0.240634  2.479743 -1.806558
      ESP Fit Center  773 is at   0.624574  2.333776 -2.509327
      ESP Fit Center  774 is at   1.584574  0.671008 -2.509327
      ESP Fit Center  775 is at   1.104574  1.502392 -2.766558
      ESP Fit Center  776 is at   1.522545 -2.302468 -0.871654
      ESP Fit Center  777 is at   2.482545 -2.559699 -0.871654
      ESP Fit Center  778 is at   3.442545 -2.302468 -0.871654
      ESP Fit Center  779 is at   1.968721 -2.221086 -1.831654
      ESP Fit Center  780 is at   2.996369 -2.221086 -1.831654
      ESP Fit Center  781 is at   3.827753 -1.617050 -1.831654
      ESP Fit Center  782 is at   2.002545  0.191685 -2.534423
      ESP Fit Center  783 is at   2.002545 -1.471083 -2.534423
      ESP Fit Center  784 is at   2.962545 -1.471083 -2.534423
      ESP Fit Center  785 is at   2.482545 -0.639699 -2.791654
      ESP Fit Center  786 is at   2.426227 -0.642250  2.791607
      ESP Fit Center  787 is at   3.386227 -0.642250  2.534376
      ESP Fit Center  788 is at   1.946227  0.189134  2.534376
      ESP Fit Center  789 is at   1.466227 -0.642250  2.534376
      ESP Fit Center  790 is at   1.946227 -1.473634  2.534376
      ESP Fit Center  791 is at   2.906227 -1.473634  2.534376
      ESP Fit Center  792 is at   1.081019 -1.619601  1.831607
      ESP Fit Center  793 is at   1.912403 -2.223637  1.831607
      ESP Fit Center  794 is at   2.940051 -2.223637  1.831607
      ESP Fit Center  795 is at   3.771435 -1.619601  1.831607
      ESP Fit Center  796 is at   1.466227 -2.305019  0.871607
      ESP Fit Center  797 is at   2.426227 -2.562250  0.871607
      ESP Fit Center  798 is at   3.386227 -2.305019  0.871607
      ESP Fit Center  799 is at   3.926119  1.007197  2.906662
      ESP Fit Center  800 is at   4.997633  1.007197  2.693525
      ESP Fit Center  801 is at   4.461876  1.935155  2.693525
      ESP Fit Center  802 is at   3.390362  1.935155  2.693525
      ESP Fit Center  803 is at   2.854605  1.007197  2.693525
      ESP Fit Center  804 is at   3.390362  0.079239  2.693525
      ESP Fit Center  805 is at   4.461876  0.079239  2.693525
      ESP Fit Center  806 is at   5.906018  1.007197  2.086561
      ESP Fit Center  807 is at   5.640762  1.997146  2.086561
      ESP Fit Center  808 is at   4.916068  2.721840  2.086561
      ESP Fit Center  809 is at   3.926119  2.987096  2.086561
      ESP Fit Center  810 is at   2.936170  2.721840  2.086561
      ESP Fit Center  811 is at   3.926119 -0.972702  2.086561
      ESP Fit Center  812 is at   4.916068 -0.707446  2.086561
      ESP Fit Center  813 is at   5.640762  0.017248  2.086561
      ESP Fit Center  814 is at   6.512982  1.007197  1.178176
      ESP Fit Center  815 is at   6.289336  2.059369  1.178176
      ESP Fit Center  816 is at   5.657068  2.929611  1.178176
      ESP Fit Center  817 is at   4.725504  3.467450  1.178176
      ESP Fit Center  818 is at   3.655718  3.579889  1.178176
      ESP Fit Center  819 is at   2.632688  3.247486  1.178176
      ESP Fit Center  820 is at   4.725504 -1.453056  1.178176
      ESP Fit Center  821 is at   5.657068 -0.915217  1.178176
      ESP Fit Center  822 is at   6.289336 -0.044975  1.178176
      ESP Fit Center  823 is at   3.159863  3.700309  0.106662
      ESP Fit Center  824 is at   2.238742  3.241645  0.106662
      ESP Fit Center  825 is at   4.184470 -1.780859  0.106662
      ESP Fit Center  826 is at   5.174186 -1.499260  0.106662
      ESP Fit Center  827 is at   5.995344 -0.879151  0.106662
      ESP Fit Center  828 is at   6.537041 -0.004280  0.106662
      ESP Fit Center  829 is at   4.725504 -1.453056 -0.964852
      ESP Fit Center  830 is at   5.657068 -0.915217 -0.964852
      ESP Fit Center  831 is at   2.309417  1.040962 -3.112300
      ESP Fit Center  832 is at   3.068484  1.569604 -3.778249
      ESP Fit Center  833 is at   4.136242 -1.212997 -2.269840
      ESP Fit Center  834 is at   5.096242 -0.955766 -2.269840
      ESP Fit Center  835 is at   5.799011 -0.252997 -2.269840
      ESP Fit Center  836 is at   2.473473  0.707003 -3.229840
      ESP Fit Center  837 is at   2.791034 -0.270348 -3.229840
      ESP Fit Center  838 is at   3.622418 -0.874384 -3.229840
      ESP Fit Center  839 is at   4.650066 -0.874384 -3.229840
      ESP Fit Center  840 is at   5.481450 -0.270348 -3.229840
      ESP Fit Center  841 is at   3.176242  0.707003 -3.932609
      ESP Fit Center  842 is at   3.656242 -0.124381 -3.932609
      ESP Fit Center  843 is at   4.616242 -0.124381 -3.932609
      ESP Fit Center  844 is at   2.753226  3.768125 -0.938206
      ESP Fit Center  845 is at   3.267050  4.106738 -1.898206
      ESP Fit Center  846 is at   2.307050  3.849507 -1.898206
      ESP Fit Center  847 is at   1.604281  3.146738 -1.898206
      ESP Fit Center  848 is at   2.753226  3.768125 -2.858206
      ESP Fit Center  849 is at   1.921842  3.164089 -2.858206
      ESP Fit Center  850 is at   1.604281  2.186738 -2.858206
      ESP Fit Center  851 is at   1.921842  1.209387 -2.858206
      ESP Fit Center  852 is at   2.787050  3.018122 -3.560975
      ESP Fit Center  853 is at   2.307050  2.186738 -3.560975
      ESP Fit Center  854 is at   6.446288  2.366505  0.415214
      ESP Fit Center  855 is at   7.211854  1.742890  0.174279
      ESP Fit Center  856 is at   6.731854  0.911506  0.174279
      ESP Fit Center  857 is at   7.914623  1.742890 -0.528490
      ESP Fit Center  858 is at   7.597062  2.720241 -0.528490
      ESP Fit Center  859 is at   6.765678  0.161503 -0.528490
      ESP Fit Center  860 is at   7.597062  0.765539 -0.528490
      ESP Fit Center  861 is at   8.171854  1.742890 -1.488490
      ESP Fit Center  862 is at   6.251854 -0.177110 -1.488490
      ESP Fit Center  863 is at   7.211854  0.080121 -1.488490
      ESP Fit Center  864 is at   7.914623  0.782890 -1.488490
      ESP Fit Center  865 is at   6.765678  0.161503 -2.448490
      ESP Fit Center  866 is at   7.597062  0.765539 -2.448490
      ESP Fit Center  867 is at   6.345027  3.213088  0.589475
      ESP Fit Center  868 is at   5.865027  4.044472  0.589475
      ESP Fit Center  869 is at   4.905027  4.044472  0.589475
      ESP Fit Center  870 is at   7.047796  3.213088 -0.113294
      ESP Fit Center  871 is at   5.898851  4.794475 -0.113294
      ESP Fit Center  872 is at   4.871203  4.794475 -0.113294
      ESP Fit Center  873 is at   4.039819  4.190439 -0.113294
      ESP Fit Center  874 is at   4.425027  4.875857 -1.073294
      ESP Fit Center  875 is at   3.722258  4.173088 -1.073294
      ESP Fit Center  876 is at   4.294558  5.178763 -2.394182
      ESP Fit Center  877 is at   3.495173  4.458994 -2.394182
      ESP Fit Center  878 is at   3.900612  5.172922 -3.465696
      ESP Fit Center  879 is at   3.207381  4.412484 -3.465696
      ESP Fit Center  880 is at   2.835664  3.452973 -3.465696
      ESP Fit Center  881 is at   5.846340  0.150418 -3.465696
      ESP Fit Center  882 is at   6.836056  0.432017 -3.465696
      ESP Fit Center  883 is at   7.657214  1.052126 -3.465696
      ESP Fit Center  884 is at   4.294558  5.178763 -4.537210
      ESP Fit Center  885 is at   3.495173  4.458994 -4.537210
      ESP Fit Center  886 is at   3.057655  3.476313 -4.537210
      ESP Fit Center  887 is at   3.057655  2.400635 -4.537210
      ESP Fit Center  888 is at   3.495173  1.417954 -4.537210
      ESP Fit Center  889 is at   4.294558  0.698185 -4.537210
      ESP Fit Center  890 is at   5.317588  0.365782 -4.537210
      ESP Fit Center  891 is at   6.387374  0.478221 -4.537210
      ESP Fit Center  892 is at   7.318938  1.016060 -4.537210
      ESP Fit Center  893 is at   5.587989  4.918373 -5.445595
      ESP Fit Center  894 is at   4.598040  4.653117 -5.445595
      ESP Fit Center  895 is at   3.873346  3.928423 -5.445595
      ESP Fit Center  896 is at   3.608090  2.938474 -5.445595
      ESP Fit Center  897 is at   3.873346  1.948525 -5.445595
      ESP Fit Center  898 is at   4.598040  1.223831 -5.445595
      ESP Fit Center  899 is at   5.587989  0.958575 -5.445595
      ESP Fit Center  900 is at   6.577938  1.223831 -5.445595
      ESP Fit Center  901 is at   7.302632  1.948525 -5.445595
      ESP Fit Center  902 is at   6.659503  2.938474 -6.052559
      ESP Fit Center  903 is at   6.123746  3.866432 -6.052559
      ESP Fit Center  904 is at   5.052232  3.866432 -6.052559
      ESP Fit Center  905 is at   4.516475  2.938474 -6.052559
      ESP Fit Center  906 is at   5.052232  2.010516 -6.052559
      ESP Fit Center  907 is at   6.123746  2.010516 -6.052559
      ESP Fit Center  908 is at   5.587989  2.938474 -6.265696
      ESP Fit Center  909 is at   9.206590  3.794696 -5.412491
      ESP Fit Center  910 is at   8.889029  4.772047 -5.412491
      ESP Fit Center  911 is at   7.029997  5.376083 -5.412491
      ESP Fit Center  912 is at   8.057645  2.213309 -5.412491
      ESP Fit Center  913 is at   8.889029  2.817345 -5.412491
      ESP Fit Center  914 is at   8.503821  3.794696 -6.115260
      ESP Fit Center  915 is at   8.023821  4.626080 -6.115260
      ESP Fit Center  916 is at   7.063821  4.626080 -6.115260
      ESP Fit Center  917 is at   6.583821  3.794696 -6.115260
      ESP Fit Center  918 is at   7.063821  2.963312 -6.115260
      ESP Fit Center  919 is at   8.023821  2.963312 -6.115260
      ESP Fit Center  920 is at   7.543821  3.794696 -6.372491
      ESP Fit Center  921 is at   7.926001  3.016420 -1.021943
      ESP Fit Center  922 is at   8.406001  2.185036 -1.279174
      ESP Fit Center  923 is at   8.439825  1.435033 -1.981943
      ESP Fit Center  924 is at   9.271209  2.039069 -1.981943
      ESP Fit Center  925 is at   7.926001  1.096420 -2.941943
      ESP Fit Center  926 is at   8.886001  1.353651 -2.941943
      ESP Fit Center  927 is at   9.588770  2.056420 -2.941943
      ESP Fit Center  928 is at   9.588770  3.016420 -3.901943
      ESP Fit Center  929 is at   8.439825  1.435033 -3.901943
      ESP Fit Center  930 is at   9.271209  2.039069 -3.901943
      ESP Fit Center  931 is at   6.090404  7.332286 -2.319182
      ESP Fit Center  932 is at   5.259020  6.728250 -2.319182
      ESP Fit Center  933 is at   4.941459  5.750899 -2.319182
      ESP Fit Center  934 is at   6.604228  7.670899 -3.279182
      ESP Fit Center  935 is at   5.644228  7.413668 -3.279182
      ESP Fit Center  936 is at   4.941459  6.710899 -3.279182
      ESP Fit Center  937 is at   4.684228  5.750899 -3.279182
      ESP Fit Center  938 is at   6.090404  7.332286 -4.239182
      ESP Fit Center  939 is at   5.259020  6.728250 -4.239182
      ESP Fit Center  940 is at   4.941459  5.750899 -4.239182
      ESP Fit Center  941 is at   7.084228  6.582283 -4.941951
      ESP Fit Center  942 is at   6.124228  6.582283 -4.941951
      ESP Fit Center  943 is at   5.644228  5.750899 -4.941951
      ESP Fit Center  944 is at   6.604228  5.750899 -5.199182
      ESP Fit Center  945 is at   6.436491  5.859196 -0.066069
      ESP Fit Center  946 is at   5.956491  5.027812 -0.066069
      ESP Fit Center  947 is at   6.402667  6.609199 -0.768838
      ESP Fit Center  948 is at   5.571283  6.005163 -0.768838
      ESP Fit Center  949 is at   7.430315  3.446425 -0.768838
      ESP Fit Center  950 is at   5.253722  5.987812 -1.728838
      ESP Fit Center  951 is at   7.912850  7.586157 -0.815689
      ESP Fit Center  952 is at   7.188156  6.861463 -0.815689
      ESP Fit Center  953 is at  10.633748  7.793928 -1.724074
      ESP Fit Center  954 is at   9.702184  8.331767 -1.724074
      ESP Fit Center  955 is at   8.632398  8.444206 -1.724074
      ESP Fit Center  956 is at   7.609368  8.111803 -1.724074
      ESP Fit Center  957 is at   6.809983  7.392034 -1.724074
      ESP Fit Center  958 is at  11.513721  6.882991 -2.795588
      ESP Fit Center  959 is at  10.972024  7.757862 -2.795588
      ESP Fit Center  960 is at  10.150866  8.377971 -2.795588
      ESP Fit Center  961 is at   9.161150  8.659570 -2.795588
      ESP Fit Center  962 is at   8.136543  8.564626 -2.795588
      ESP Fit Center  963 is at   7.215422  8.105962 -2.795588
      ESP Fit Center  964 is at  11.489662  5.871514 -3.867102
      ESP Fit Center  965 is at  11.266016  6.923686 -3.867102
      ESP Fit Center  966 is at  10.633748  7.793928 -3.867102
      ESP Fit Center  967 is at   9.702184  8.331767 -3.867102
      ESP Fit Center  968 is at   8.632398  8.444206 -3.867102
      ESP Fit Center  969 is at   7.609368  8.111803 -3.867102
      ESP Fit Center  970 is at   9.702184  3.411261 -3.867102
      ESP Fit Center  971 is at  10.633748  3.949100 -3.867102
      ESP Fit Center  972 is at  11.266016  4.819342 -3.867102
      ESP Fit Center  973 is at  10.882698  5.871514 -4.775487
      ESP Fit Center  974 is at  10.617442  6.861463 -4.775487
      ESP Fit Center  975 is at   9.892748  7.586157 -4.775487
      ESP Fit Center  976 is at   8.902799  7.851413 -4.775487
      ESP Fit Center  977 is at   7.912850  7.586157 -4.775487
      ESP Fit Center  978 is at   7.188156  6.861463 -4.775487
      ESP Fit Center  979 is at   9.892748  4.156871 -4.775487
      ESP Fit Center  980 is at  10.617442  4.881565 -4.775487
      ESP Fit Center  981 is at   9.974313  5.871514 -5.382451
      ESP Fit Center  982 is at   9.438556  6.799472 -5.382451
      ESP Fit Center  983 is at   8.367042  6.799472 -5.382451
      ESP Fit Center  984 is at   7.831285  5.871514 -5.382451
      ESP Fit Center  985 is at   9.438556  4.943556 -5.382451
      ESP Fit Center  986 is at   8.902799  5.871514 -5.595588
      ESP Fit Center  987 is at   8.378458  2.970652 -0.637725
      ESP Fit Center  988 is at   9.209842  2.366616 -0.637725
      ESP Fit Center  989 is at  10.237490  2.366616 -0.637725
      ESP Fit Center  990 is at  11.068874  2.970652 -0.637725
      ESP Fit Center  991 is at   9.723666  2.028003 -1.597725
      ESP Fit Center  992 is at  10.683666  2.285234 -1.597725
      ESP Fit Center  993 is at  11.386435  2.988003 -1.597725
      ESP Fit Center  994 is at  10.237490  2.366616 -2.557725
      ESP Fit Center  995 is at  11.068874  2.970652 -2.557725
      ESP Fit Center  996 is at  10.203666  3.116619 -3.260494
      ESP Fit Center  997 is at  11.803997  5.275923  0.027708
      ESP Fit Center  998 is at  12.506766  5.275923 -0.675061
      ESP Fit Center  999 is at  12.189205  6.253274 -0.675061
      ESP Fit Center 1000 is at  11.357821  6.857310 -0.675061
      ESP Fit Center 1001 is at  12.189205  4.298572 -0.675061
      ESP Fit Center 1002 is at  12.763997  5.275923 -1.635061
      ESP Fit Center 1003 is at  12.506766  6.235923 -1.635061
      ESP Fit Center 1004 is at  11.803997  6.938692 -1.635061
      ESP Fit Center 1005 is at  11.803997  3.613154 -1.635061
      ESP Fit Center 1006 is at  12.506766  4.315923 -1.635061
      ESP Fit Center 1007 is at  12.506766  5.275923 -2.595061
      ESP Fit Center 1008 is at  12.189205  6.253274 -2.595061
      ESP Fit Center 1009 is at  12.189205  4.298572 -2.595061
      ESP Fit Center 1010 is at  11.803997  5.275923 -3.297830
      ESP Fit Center 1011 is at  11.323997  4.444539 -3.297830
      ESP Fit Center 1012 is at   9.916047  6.326393  2.112300
      ESP Fit Center 1013 is at   8.874727  6.326393  2.112300
      ESP Fit Center 1014 is at   8.354066  5.424583  2.112300
      ESP Fit Center 1015 is at  10.973911  6.439039  1.446351
      ESP Fit Center 1016 is at   8.166609  6.842668  1.446351
      ESP Fit Center 1017 is at  11.503498  6.439796  0.484025
      ESP Fit Center 1018 is at   8.874727  3.143420  0.484025
      ESP Fit Center 1019 is at   7.880602  6.006776  1.820464
      ESP Fit Center 1020 is at   7.400602  5.175392  1.820464
      ESP Fit Center 1021 is at   7.880602  4.344008  1.820464
      ESP Fit Center 1022 is at   7.015394  6.152743  1.117695
      ESP Fit Center 1023 is at   6.697833  5.175392  1.117695
      ESP Fit Center 1024 is at   7.015394  4.198041  1.117695
      ESP Fit Center 1025 is at   7.846778  3.594005  1.117695
      ESP Fit Center 1026 is at   7.400602  6.838161  0.157695
      ESP Fit Center 1027 is at   6.697833  6.135392  0.157695
      ESP Fit Center 1028 is at   6.440602  5.175392  0.157695
      ESP Fit Center 1029 is at   6.697833  4.215392  0.157695
      ESP Fit Center 1030 is at   7.400602  3.512623  0.157695
      ESP Fit Center 1031 is at   8.360602  3.255392  0.157695
      ESP Fit Center 1032 is at   7.846778  3.594005 -0.802305
      ESP Fit Center 1033 is at  10.010724  4.904195  2.598514
      ESP Fit Center 1034 is at  10.970724  4.904195  2.341283
      ESP Fit Center 1035 is at  10.490724  5.735579  2.341283
      ESP Fit Center 1036 is at   9.530724  5.735579  2.341283
      ESP Fit Center 1037 is at   9.050724  4.904195  2.341283
      ESP Fit Center 1038 is at   9.530724  4.072811  2.341283
      ESP Fit Center 1039 is at  10.490724  4.072811  2.341283
      ESP Fit Center 1040 is at  11.673493  4.904195  1.638514
      ESP Fit Center 1041 is at  11.355932  5.881546  1.638514
      ESP Fit Center 1042 is at   9.496900  3.322808  1.638514
      ESP Fit Center 1043 is at  10.524548  3.322808  1.638514
      ESP Fit Center 1044 is at  11.355932  3.926844  1.638514
      ESP Fit Center 1045 is at  11.930724  4.904195  0.678514
      ESP Fit Center 1046 is at  11.673493  5.864195  0.678514
      ESP Fit Center 1047 is at  10.010724  2.984195  0.678514
      ESP Fit Center 1048 is at  10.970724  3.241426  0.678514
[...]
 1410 Fit       0.004507
 1411 Fit      -0.000121
 1412 Fit      -0.001929
 1413 Fit      -0.008651
 1414 Fit      -0.009273
 1415 Fit      -0.002054
 1416 Fit       0.001008
 1417 Fit       0.001945
 1418 Fit      -0.011499
 1419 Fit      -0.013768
 1420 Fit      -0.009878
 1421 Fit      -0.003348
 1422 Fit       0.000922
 1423 Fit      -0.008649
 1424 Fit      -0.007332
 1425 Fit      -0.000914
 1426 Fit      -0.008949
 1427 Fit      -0.013942
 1428 Fit      -0.013507
 1429 Fit      -0.010449
 1430 Fit      -0.008243
 1431 Fit      -0.008542
 1432 Fit      -0.011217
 1433 Fit      -0.014129
 1434 Fit      -0.013526
 1435 Fit      -0.008110
 1436 Fit      -0.001812
 1437 Fit      -0.009246
 1438 Fit      -0.012740
 1439 Fit      -0.012874
 1440 Fit      -0.012924
 1441 Fit      -0.014428
 1442 Fit      -0.015430
 1443 Fit      -0.012437
 1444 Fit      -0.004533
 1445 Fit      -0.001399
 1446 Fit      -0.000528
 1447 Fit      -0.007412
 1448 Fit      -0.011625
 1449 Fit      -0.012955
 1450 Fit      -0.009922
 1451 Fit      -0.007597
 1452 Fit       0.002684
 1453 Fit      -0.003765
 1454 Fit       0.003973
 1455 Fit       0.005178
 1456 Fit       0.001140
 1457 Fit       0.001628
 1458 Fit       0.001594
 1459 Fit       0.001263
 1460 Fit       0.003825
 1461 Fit       0.000385
 1462 Fit       0.002528
 1463 Fit       0.003427
 1464 Fit       0.023495
 1465 Fit       0.020775
 1466 Fit       0.016280
 1467 Fit       0.008723
 1468 Fit       0.011062
 1469 Fit       0.012321
 1470 Fit       0.001349
 1471 Fit       0.004618
 1472 Fit       0.005991
 1473 Fit       0.001871
 1474 Fit       0.003418
 1475 Fit      -0.003246
 1476 Fit       0.001834
 1477 Fit       0.001220
 1478 Fit       0.000896
 1479 Fit       0.002008
 1480 Fit      -0.002342
 1481 Fit       0.001387
 1482 Fit       0.002687
 1483 Fit      -0.001316
 1484 Fit       0.003205
 1485 Fit       0.000715
 1486 Fit       0.005212
 1487 Fit       0.014982
 1488 Fit       0.001602
 1489 Fit       0.006244
 1490 Fit       0.009734
 1491 Fit      -0.001181
 1492 Fit      -0.009306
 1493 Fit      -0.014726
 1494 Fit      -0.014762
 1495 Fit      -0.008894
 1496 Fit      -0.004245
 1497 Fit      -0.011851
 1498 Fit      -0.017208
 1499 Fit      -0.018367
 1500 Fit      -0.014403
 1501 Fit      -0.006101
 1502 Fit      -0.003769
 1503 Fit      -0.009187
 1504 Fit      -0.014492
 1505 Fit      -0.017764
 1506 Fit      -0.017168
 1507 Fit      -0.011939
 1508 Fit      -0.010286
 1509 Fit      -0.011786
 1510 Fit      -0.014384
 1511 Fit      -0.016460
 1512 Fit      -0.015923
 1513 Fit      -0.011435
 1514 Fit      -0.003004
 1515 Fit      -0.004139
 1516 Fit      -0.008808
 1517 Fit      -0.010019
 1518 Fit      -0.016477
 1519 Fit      -0.016675
 1520 Fit      -0.016462
 1521 Fit      -0.014026
 1522 Fit      -0.008111
 1523 Fit       0.000012
 1524 Fit      -0.011236
 1525 Fit      -0.015608
 1526 Fit      -0.016957
 1527 Fit      -0.015433
 1528 Fit      -0.009434
 1529 Fit      -0.002323
 1530 Fit      -0.012453
 1531 Fit      -0.011495
 1532 Fit       0.010957
 1533 Fit       0.010552
 1534 Fit       0.009139
 1535 Fit      -0.000203
 1536 Fit       0.018541
 1537 Fit       0.014768
 1538 Fit       0.012210
 1539 Fit       0.010960
 1540 Fit       0.014400
 1541 Fit       0.010951
 1542 Fit       0.009020
 1543 Fit       0.010544
 1544 Fit       0.006812
 1545 Fit       0.004383
 1546 Fit       0.009657
 1547 Fit       0.008625
 1548 Fit       0.007012
 1549 Fit       0.010034
 1550 Fit       0.008569
 1551 Fit       0.007674
 1552 Fit       0.005421
 1553 Fit       0.008486
 1554 Fit       0.008493
 1555 Fit       0.005749
 1556 Fit       0.004345
 1557 Fit       0.005569
 1558 Fit      -0.000945
 1559 Fit       0.003049
 1560 Fit       0.002465
 1561 Fit       0.003248
 1562 Fit       0.003907
 1563 Fit       0.002080
 1564 Fit       0.005009
 1565 Fit       0.008629
 1566 Fit       0.007798
 1567 Fit      -0.002900
 1568 Fit       0.015818
 1569 Fit       0.005145
 1570 Fit       0.005150
 1571 Fit       0.003554
 1572 Fit       0.007217
 1573 Fit       0.009188
 1574 Fit       0.008617
 1575 Fit       0.007662
 1576 Fit       0.004832
 1577 Fit       0.015360
 1578 Fit       0.005202
 1579 Fit       0.006615
 1580 Fit       0.004426
 1581 Fit       0.005582
 1582 Fit       0.007193
 1583 Fit       0.007618
 1584 Fit       0.005482
 1585 Fit       0.005948
 1586 Fit       0.007522
 1587 Fit       0.008694
 1588 Fit       0.008760
 1589 Fit       0.009026
 1590 Fit       0.010574
 1591 Fit       0.010385
 1592 Fit       0.009946
 1593 Fit       0.003228
 1594 Fit       0.002513
 1595 Fit       0.003923
 1596 Fit       0.003324
 1597 Fit       0.002210
 1598 Fit       0.001114
 1599 Fit       0.004443
 1600 Fit       0.002276
 1601 Fit      -0.000014
 1602 Fit      -0.002345
 1603 Fit      -0.003429
 1604 Fit       0.002989
 1605 Fit      -0.004244
 1606 Fit      -0.001072
 1607 Fit      -0.002910
 1608 Fit      -0.001653
 1609 Fit      -0.000315
 1610 Fit       0.000307
 1611 Fit      -0.005584
 1612 Fit       0.000070
 1613 Fit       0.001626
 1614 Fit       0.000895
 1615 Fit       0.002623
 1616 Fit      -0.011074
 1617 Fit       0.004354
 1618 Fit       0.002429
 1619 Fit       0.003979
 1620 Fit      -0.000501
 1621 Fit      -0.002725
 1622 Fit       0.000749
 1623 Fit       0.000964
 1624 Fit      -0.000732
 1625 Fit      -0.006628
 1626 Fit       0.001914
 1627 Fit       0.002056
 1628 Fit       0.001041
 1629 Fit      -0.001449
 1630 Fit      -0.004683
 1631 Fit       0.003000
 1632 Fit       0.002670
 1633 Fit       0.001141
 1634 Fit      -0.002111
 1635 Fit      -0.006975
 1636 Fit      -0.011938
 1637 Fit       0.003675
 1638 Fit       0.000462
 1639 Fit      -0.006222
 1640 Fit      -0.003927
 1641 Fit      -0.001642
 1642 Fit      -0.006943
 1643 Fit      -0.003400
 1644 Fit      -0.000735
 1645 Fit       0.000230
 1646 Fit      -0.005903
 1647 Fit      -0.001616
 1648 Fit       0.000448
 1649 Fit       0.001167
 1650 Fit      -0.001487
 1651 Fit       0.000919
 1652 Fit       0.000338
 1653 Fit       0.001840
 1654 Fit       0.002289
 1655 Fit       0.002246
 1656 Fit       0.003839
 1657 Fit       0.004389
 1658 Fit       0.003787
 1659 Fit       0.003599
 1660 Fit       0.005139
 1661 Fit       0.005922
 1662 Fit       0.005871
 1663 Fit       0.005128
 1664 Fit       0.004867
 1665 Fit       0.006305
 1666 Fit       0.007145
 1667 Fit       0.007362
 1668 Fit       0.007227
 1669 Fit       0.007972
 1670 Fit       0.008827
 1671 Fit       0.009202
 1672 Fit       0.009268
 1673 Fit       0.008773
 1674 Fit       0.008465
 1675 Fit       0.009101
 1676 Fit       0.005060
 1677 Fit       0.002626
 1678 Fit       0.008025
 1679 Fit       0.007165
 1680 Fit       0.006273
 1681 Fit       0.004690
 1682 Fit       0.009040
 1683 Fit       0.008328
 1684 Fit       0.007983
 1685 Fit       0.007702
 1686 Fit       0.007510
 1687 Fit       0.008546
 1688 Fit       0.008543
 1689 Fit       0.008984
 1690 Fit       0.008992
 1691 Fit       0.000422
 1692 Fit       0.003402
 1693 Fit       0.005401
 1694 Fit       0.007446
 1695 Fit      -0.004306
 1696 Fit       0.001111
 1697 Fit       0.004008
 1698 Fit       0.005851
 1699 Fit       0.007223
 1700 Fit       0.008378
 1701 Fit       0.004162
 1702 Fit       0.005996
 1703 Fit       0.007182
 1704 Fit       0.007989
 1705 Fit       0.007148
 1706 Fit       0.008165
 1707 Fit      -0.010385
 1708 Fit      -0.012614
 1709 Fit      -0.002896
 1710 Fit      -0.005801
 1711 Fit       0.009189
 1712 Fit       0.008405
 1713 Fit       0.008415
 1714 Fit       0.009801
 1715 Fit       0.007284
 1716 Fit      -0.002174
 1717 Fit      -0.009179
 1718 Fit      -0.000598
 1719 Fit       0.004355
 1720 Fit      -0.001302
 1721 Fit       0.003570
 1722 Fit       0.006350
 1723 Fit       0.007730
 1724 Fit       0.000064
 1725 Fit       0.001382
 1726 Fit       0.005050
 1727 Fit       0.007077
 1728 Fit       0.005062
 1729 Fit       0.004325
 1730 Fit       0.003488
 1731 Fit       0.008658
 1732 Fit       0.007409
 1733 Fit       0.007343
 1734 Fit       0.009865
 1735 Fit       0.009130
 1736 Fit       0.008837
 1737 Fit       0.009177
 1738 Fit       0.009147
 1739 Fit       0.009223
 1740 Fit       0.009459
 1741 Fit       0.010279
 1742 Fit       0.009214
 1743 Fit       0.009975
 1744 Fit       0.000540
 1745 Fit       0.008423
 1746 Fit       0.006108
 1747 Fit       0.003216
 1748 Fit      -0.000942
 1749 Fit      -0.006976
 1750 Fit       0.003052
 1751 Fit      -0.002930
 1752 Fit      -0.000003
 1753 Fit       0.000184
 1754 Fit       0.002573
 1755 Fit       0.002820
 1756 Fit       0.004776
 1757 Fit       0.004906
 1758 Fit       0.004250
 1759 Fit       0.003105
 1760 Fit       0.006740
 1761 Fit       0.004910
 1762 Fit       0.002674
 1763 Fit       0.010567
 1764 Fit       0.007989
 1765 Fit       0.005540
 1766 Fit       0.002397
 1767 Fit      -0.002852
 1768 Fit      -0.006142
 1769 Fit       0.011412
 1770 Fit       0.009538
 1771 Fit       0.007349
 1772 Fit       0.004621
 1773 Fit       0.000508
 1774 Fit      -0.000410
 1775 Fit      -0.002014
 1776 Fit       0.003944
 1777 Fit       0.007787
 1778 Fit       0.007163
 1779 Fit       0.004208
 1780 Fit       0.003987
 1781 Fit      -0.005015
 1782 Fit      -0.008297
 1783 Fit      -0.013061
 1784 Fit      -0.012602
 1785 Fit      -0.012888
 1786 Fit      -0.013272
 1787 Fit      -0.012327
 1788 Fit      -0.014260
 1789 Fit      -0.014815
 1790 Fit      -0.010446
 1791 Fit      -0.009850
 1792 Fit      -0.016532
 1793 Fit      -0.013453
 1794 Fit      -0.007542
 1795 Fit      -0.010827
 1796 Fit      -0.010779
 1797 Fit      -0.005756
 1798 Fit      -0.005454
 1799 Fit      -0.004545
 1800 Fit      -0.001003
 1801 Fit      -0.001243
 1802 Fit      -0.004048
 1803 Fit       0.001450
 1804 Fit       0.000260
 1805 Fit      -0.001288
 1806 Fit       0.001841
 1807 Fit       0.000406
 1808 Fit      -0.014717
 1809 Fit      -0.010861
 1810 Fit      -0.009960
 1811 Fit      -0.005593
 1812 Fit      -0.003806
 1813 Fit      -0.004686
 1814 Fit      -0.004586
 1815 Fit       0.006028
 1816 Fit      -0.001874
 1817 Fit      -0.010988
 1818 Fit       0.001062
 1819 Fit      -0.001636
 1820 Fit       0.002405
 1821 Fit      -0.000348
 1822 Fit      -0.004258
 1823 Fit       0.007106
 1824 Fit       0.004676
 1825 Fit       0.001823
 1826 Fit      -0.001587
 1827 Fit      -0.008975
 1828 Fit      -0.000211
 1829 Fit       0.000542
 1830 Fit      -0.002754
 1831 Fit      -0.006154
 1832 Fit       0.001371
 1833 Fit      -0.000230
 1834 Fit       0.004627
 1835 Fit       0.009586
 1836 Fit       0.010327
 1837 Fit      -0.000538
 1838 Fit       0.005059
 1839 Fit       0.001946
 1840 Fit      -0.003098
 1841 Fit      -0.006453
 1842 Fit      -0.012818
 1843 Fit      -0.018065
 1844 Fit      -0.017192
 1845 Fit      -0.010883
 1846 Fit      -0.017025
 1847 Fit      -0.018693
 1848 Fit      -0.018265
 1849 Fit      -0.016073
 1850 Fit      -0.013563
 1851 Fit      -0.010298
 1852 Fit      -0.014027
 1853 Fit      -0.006907
 1854 Fit      -0.007905
 1855 Fit      -0.007756
 1856 Fit       0.000540
 1857 Fit      -0.002134
 1858 Fit       0.000422
 1859 Fit      -0.001980
 1860 Fit      -0.002240
 1861 Fit      -0.001799
 1862 Fit      -0.005115
 1863 Fit      -0.005592
 1864 Fit      -0.000544
 1865 Fit      -0.004108
 1866 Fit      -0.001084
 1867 Fit      -0.002232
 1868 Fit      -0.007322
 1869 Fit      -0.002859
 1870 Fit      -0.000458
 1871 Fit      -0.001903
 1872 Fit      -0.007470
 1873 Fit       0.002359
 1874 Fit       0.002508
 1875 Fit       0.004876
 1876 Fit       0.003486
 1877 Fit       0.007114
 1878 Fit       0.005750
 1879 Fit       0.007490
 1880 Fit       0.008772
 1881 Fit       0.000108
 1882 Fit       0.005297
 1883 Fit       0.005083
 1884 Fit       0.003810
 1885 Fit       0.007401
 1886 Fit       0.007395
 1887 Fit       0.009788
 1888 Fit       0.001069
 1889 Fit       0.000511
 1890 Fit      -0.001884
 1891 Fit       0.000358
 1892 Fit       0.001652
 1893 Fit      -0.003238
 1894 Fit       0.001126
 1895 Fit       0.001675
 1896 Fit      -0.005278
 1897 Fit       0.000501
 1898 Fit       0.001704
 1899 Fit      -0.000333
 1900 Fit      -0.006434
 1901 Fit      -0.008407
 1902 Fit      -0.009120
 1903 Fit      -0.007758
 1904 Fit      -0.003641
 1905 Fit      -0.002297
 1906 Fit      -0.005850
 1907 Fit      -0.008980
 1908 Fit      -0.008501
 1909 Fit      -0.009232
 1910 Fit      -0.010219
 1911 Fit      -0.008698
 1912 Fit      -0.001487
 1913 Fit      -0.006549
 1914 Fit      -0.009025
 1915 Fit      -0.007471
 1916 Fit      -0.005098
 1917 Fit      -0.004574
 1918 Fit      -0.006534
 1919 Fit      -0.009157
 1920 Fit      -0.009245
 1921 Fit      -0.006614
 1922 Fit      -0.009897
 1923 Fit      -0.009813
 1924 Fit      -0.003232
 1925 Fit       0.001104
 1926 Fit       0.003781
 1927 Fit      -0.001256
 1928 Fit      -0.005844
 1929 Fit      -0.006807
 1930 Fit      -0.005438
 1931 Fit      -0.009626
 1932 Fit      -0.010478
 1933 Fit      -0.007891
 1934 Fit      -0.001540
 1935 Fit      -0.001615
 1936 Fit      -0.001953
 1937 Fit      -0.006678
 1938 Fit      -0.009015
 1939 Fit      -0.007799
 1940 Fit      -0.002762
 1941 Fit      -0.001646
 1942 Fit      -0.004925
 1943 Fit      -0.003839
 1944 Fit       0.002270
 1945 Fit       0.000849
 1946 Fit       0.004813
 1947 Fit       0.009701
 1948 Fit       0.005443
 1949 Fit       0.002735
 1950 Fit       0.007017
 1951 Fit       0.007253
 1952 Fit       0.005464
 1953 Fit       0.002024
 1954 Fit       0.001100
 1955 Fit       0.003052
 1956 Fit       0.005568
 1957 Fit       0.004101
 1958 Fit       0.000414
 1959 Fit       0.005645
 1960 Fit       0.008226
 1961 Fit       0.010955
 1962 Fit       0.015004
 1963 Fit       0.005073
 1964 Fit       0.017072
 1965 Fit       0.004811
 1966 Fit       0.010411
 1967 Fit       0.002866
 1968 Fit       0.006131
 1969 Fit       0.011694
 1970 Fit       0.006478
 1971 Fit       0.007769
 1972 Fit       0.001677
 1973 Fit       0.008133
 1974 Fit       0.004117
 1975 Fit       0.003360
 1976 Fit       0.001513
 1977 Fit      -0.002578
 1978 Fit      -0.004569
 1979 Fit      -0.000880
 1980 Fit      -0.007096
 1981 Fit      -0.008588
 1982 Fit      -0.005723
 1983 Fit      -0.001160
 1984 Fit      -0.002441
 1985 Fit       0.000426
 1986 Fit      -0.006585
 1987 Fit      -0.010367
 1988 Fit      -0.009807
 1989 Fit      -0.006616
 1990 Fit      -0.003223
 1991 Fit      -0.001451
 1992 Fit      -0.001077
 1993 Fit      -0.002893
 1994 Fit      -0.006431
 1995 Fit      -0.008048
 1996 Fit      -0.006151
 1997 Fit      -0.001473
 1998 Fit      -0.000029
 1999 Fit      -0.006594
 2000 Fit      -0.010249
 2001 Fit      -0.010517
 2002 Fit      -0.009010
 2003 Fit      -0.007830
 2004 Fit      -0.008043
 2005 Fit      -0.009579
 2006 Fit      -0.011053
 2007 Fit      -0.010226
 2008 Fit      -0.006292
 2009 Fit      -0.002168
 2010 Fit      -0.007130
 2011 Fit      -0.009783
 2012 Fit      -0.010274
 2013 Fit      -0.010457
 2014 Fit      -0.011237
 2015 Fit      -0.011485
 2016 Fit      -0.009163
 2017 Fit      -0.003801
 2018 Fit      -0.002210
 2019 Fit      -0.001685
 2020 Fit      -0.006233
 2021 Fit      -0.009226
 2022 Fit      -0.010004
 2023 Fit      -0.007707
 2024 Fit      -0.006409
 2025 Fit       0.001914
 2026 Fit       0.000799
 2027 Fit       0.000130
 2028 Fit      -0.003003
 2029 Fit       0.001534
 2030 Fit       0.000217
 2031 Fit       0.000697
 2032 Fit       0.000543
 2033 Fit       0.000264
 2034 Fit       0.001969
 2035 Fit       0.001169
 2036 Fit       0.001704
 2037 Fit       0.015430
 2038 Fit       0.010545
 2039 Fit       0.011767
 2040 Fit       0.004738
 2041 Fit       0.007282
 2042 Fit       0.007584
 2043 Fit       0.003605
 2044 Fit      -0.000160
 2045 Fit       0.003406
 2046 Fit      -0.002533
 2047 Fit       0.000677
 2048 Fit      -0.000152
 2049 Fit      -0.000862
 2050 Fit       0.000991
 2051 Fit      -0.000989
 2052 Fit       0.000198
 2053 Fit       0.001164
 2054 Fit      -0.002088
 2055 Fit       0.001606
 2056 Fit       0.003452
 2057 Fit       0.012411
 2058 Fit       0.002424
 2059 Fit       0.005858
 2060 Fit       0.008846
 2061 Fit       0.004335
 2062 Fit      -0.008811
 2063 Fit      -0.009466
 2064 Fit      -0.005590
 2065 Fit      -0.001058
 2066 Fit      -0.006954
 2067 Fit      -0.011469
 2068 Fit      -0.013473
 2069 Fit      -0.012116
 2070 Fit      -0.007525
 2071 Fit       0.000967
 2072 Fit      -0.003946
 2073 Fit      -0.008605
 2074 Fit      -0.012391
 2075 Fit      -0.014386
 2076 Fit      -0.013823
 2077 Fit      -0.010469
 2078 Fit      -0.004680
 2079 Fit      -0.003420
 2080 Fit      -0.005648
 2081 Fit      -0.008786
 2082 Fit      -0.011887
 2083 Fit      -0.013824
 2084 Fit      -0.013514
 2085 Fit      -0.010386
 2086 Fit      -0.004506
 2087 Fit       0.000165
 2088 Fit      -0.002292
 2089 Fit      -0.002692
 2090 Fit      -0.009771
 2091 Fit      -0.010883
 2092 Fit      -0.012415
 2093 Fit      -0.013379
 2094 Fit      -0.012506
 2095 Fit      -0.009024
 2096 Fit      -0.003099
 2097 Fit      -0.003525
 2098 Fit      -0.007529
 2099 Fit      -0.009088
 2100 Fit      -0.013126
 2101 Fit      -0.013520
 2102 Fit      -0.013261
 2103 Fit      -0.011326
 2104 Fit      -0.007079
 2105 Fit      -0.001508
 2106 Fit      -0.008089
 2107 Fit      -0.011899
 2108 Fit      -0.012784
 2109 Fit      -0.012085
 2110 Fit      -0.007893
 2111 Fit      -0.002629
 2112 Fit      -0.009011
 2113 Fit      -0.008824
 2114 Fit       0.010029
 2115 Fit       0.009681
 2116 Fit       0.008602
 2117 Fit       0.007140
 2118 Fit       0.004593
 2119 Fit       0.014922
 2120 Fit       0.012358
 2121 Fit       0.010863
 2122 Fit       0.015222
 2123 Fit       0.011652
 2124 Fit       0.009679
 2125 Fit       0.011562
 2126 Fit       0.008640
 2127 Fit       0.008025
 2128 Fit       0.004605
 2129 Fit       0.008510
 2130 Fit       0.007408
 2131 Fit       0.009397
 2132 Fit       0.007656
 2133 Fit       0.006834
 2134 Fit       0.005221
 2135 Fit       0.007943
 2136 Fit       0.006099
 2137 Fit       0.005142
 2138 Fit       0.002943
 2139 Fit       0.006475
 2140 Fit       0.006286
 2141 Fit       0.002914
 2142 Fit       0.001223
 2143 Fit       0.003081
 2144 Fit       0.003403
 2145 Fit       0.002923
 2146 Fit       0.002355
 2147 Fit       0.002874
 2148 Fit       0.003811
 2149 Fit       0.003681
 2150 Fit       0.001963
 2151 Fit       0.004276
 2152 Fit       0.004497
 2153 Fit       0.002106
 2154 Fit       0.008049
 2155 Fit       0.005861
 2156 Fit       0.010869
 2157 Fit       0.010669
 2158 Fit       0.003921
 2159 Fit       0.004092
 2160 Fit       0.002974
 2161 Fit       0.005120
 2162 Fit       0.006024
 2163 Fit       0.005664
 2164 Fit       0.005712
 2165 Fit       0.002123
 2166 Fit       0.006481
 2167 Fit       0.010508
 2168 Fit       0.010011
 2169 Fit       0.004462
 2170 Fit       0.005507
 2171 Fit       0.004001
 2172 Fit       0.004743
 2173 Fit       0.005889
 2174 Fit       0.006364
 2175 Fit       0.004836
 2176 Fit       0.004919
 2177 Fit       0.006150
 2178 Fit       0.007109
 2179 Fit       0.007200
 2180 Fit       0.007313
 2181 Fit       0.005847
 2182 Fit       0.007950
 2183 Fit       0.008434
 2184 Fit       0.008505
 2185 Fit       0.008164
 2186 Fit       0.010143
 2187 Fit       0.009684
 2188 Fit       0.002723
 2189 Fit       0.002166
 2190 Fit       0.003305
 2191 Fit       0.002664
 2192 Fit       0.001840
 2193 Fit       0.001219
 2194 Fit       0.003833
 2195 Fit       0.002433
 2196 Fit       0.001031
 2197 Fit      -0.000378
 2198 Fit      -0.001223
 2199 Fit       0.004065
 2200 Fit       0.000500
 2201 Fit      -0.002721
 2202 Fit      -0.005789
 2203 Fit      -0.007718
 Job cpu time:       0 days  0 hours  4 minutes 34.2 seconds.
 Normal termination of Gaussian 16 at Sat Jul  8 20:41:56 2023.
