 Copyright (c) 1988-2019, Gaussian, Inc.  All Rights Reserved.
  
 This is part of the Gaussian(R) 16 program.  It is based on
 the Gaussian(R) 09 system (copyright 2009, Gaussian, Inc.),
 the Gaussian(R) 03 system (copyright 2003, Gaussian, Inc.),
 the Gaussian(R) 98 system (copyright 1998, Gaussian, Inc.),
 the Gaussian(R) 94 system (copyright 1995, Gaussian, Inc.),
 the Gaussian 92(TM) system (copyright 1992, Gaussian, Inc.),
 the Gaussian 90(TM) system (copyright 1990, Gaussian, Inc.),
 the Gaussian 88(TM) system (copyright 1988, Gaussian, Inc.),
 the Gaussian 86(TM) system (copyright 1986, Carnegie Mellon
 University), and the Gaussian 82(TM) system (copyright 1983,
 Carnegie Mellon University). Gaussian is a federally registered
 trademark of Gaussian, Inc.
 Cite this work as:
 Gaussian 16, Revision C.01,
 M. J. Frisch, G. W. Trucks, H. B. Schlegel, G. E. Scuseria, 
 M. A. Robb, J. R. Cheeseman, G. Scalmani, V. Barone, 
 G. A. Petersson, H. Nakatsuji, X. Li, M. Caricato, A. V. Marenich, 
 J. Bloino, B. G. Janesko, R. Gomperts, B. Mennucci, H. P. Hratchian, 
 J. V. Ortiz, A. F. Izmaylov, J. L. Sonnenberg, D. Williams-Young, 
 F. Ding, F. Lipparini, F. Egidi, J. Goings, B. Peng, A. Petrone, 
 T. Henderson, D. Ranasinghe, V. G. Zakrzewski, J. Gao, N. Rega, 
 G. Zheng, W. Liang, M. Hada, M. Ehara, K. Toyota, R. Fukuda, 
 J. Hasegawa, M. Ishida, T. Nakajima, Y. Honda, O. Kitao, H. Nakai, 
 T. Vreven, K. Throssell, J. A. Montgomery, Jr., J. E. Peralta, 
 F. Ogliaro, M. J. Bearpark, J. J. Heyd, E. N. Brothers, K. N. Kudin, 
 V. N. Staroverov, T. A. Keith, R. Kobayashi, J. Normand, 
 K. Raghavachari, A. P. Rendell, J. C. Burant, S. S. Iyengar, 
 J. Tomasi, M. Cossi, J. M. Millam, M. Klene, C. Adamo, R. Cammi, 
 J. W. Ochterski, R. L. Martin, K. Morokuma, O. Farkas, 
 J. B. Foresman, and D. J. Fox, Gaussian, Inc., Wallingford CT, 2019.
 
 ******************************************
 Gaussian 16:  EM64L-G16RevC.01  3-Jul-2019
                 8-Jul-2023 
 ******************************************
 ----------------------------------------------------------------------
 #P HF/6-31G(d) SCF(Conver=8,XQC,MaxConventionalCycles=64,MaxCycle=128)
  NoSymm Test Pop=mk IOp(6/33=2) GFInput GFPrint
 ----------------------------------------------------------------------
 1/38=1,172=1/1;
 2/12=2,15=1,17=6,18=5,40=1/2;
 3/5=1,6=6,7=1,11=9,24=110,25=1,30=1/1,2,3;
 4//1;
 5/5=2,6=8,7=128,8=3,13=1,38=5,85=64/2,8;
 6/7=2,8=2,9=2,10=2,15=8,20=1,28=1,33=2/1,2;
 99/5=1,9=1/99;
 -------------------------------------------------
 MEP step - Input generated by PyRED DVE-DMDS-OPLS
 -------------------------------------------------
 Symbolic Z-matrix:
 Charge =  0 Multiplicity = 1
 C                    -5.44689   0.5382   -1.58922 
 H                    -5.06822  -0.4633   -1.77126 
 H                    -6.52494   0.48669  -1.48319 
 H                    -5.21962   1.15235  -2.45362 
 C                    -4.81461   1.12485  -0.34208 
 H                    -5.04633   0.50844   0.52564 
 H                    -3.73709   1.16371  -0.43652 
 O                    -5.34393   2.41432  -0.15852 
 C                    -5.04331   3.05983   1.03921 
 H                    -5.12816   2.37739   1.88251 
 H                    -5.79116   3.83592   1.15894 
 C                    -3.67345   3.71147   1.06069 
 H                    -3.52323   4.25787   0.1323 
 H                    -3.62806   4.42631   1.8837 
 O                    -2.68842   2.73447   1.22138 
 C                    -1.37856   3.19462   1.10911 
 H                    -1.14604   3.88311   1.92201 
 H                    -1.23346   3.7214    0.1693 
 C                    -0.43512   2.0164    1.17021 
 H                    -0.67087   1.41102   2.04278 
 H                     0.58298   2.38433   1.27149 
 O                    -0.57746   1.26686   0. 
 C                     0.        0.        0. 
 H                    -0.36022  -0.4897   -0.89452 
 H                    -0.34367  -0.57335   0.86001 
 C                     1.52782   0.        0. 
 H                     1.85847  -1.02721  -0.09875 
 H                     1.91938   0.38202   0.93557 
 S                     2.18      0.99808  -1.37441 
 C                     3.9513    0.59189  -1.28542 
 H                     4.44923   1.38869  -1.82292 
 H                     4.28404   0.64866  -0.25655 
 C                     4.30955  -0.76536  -1.88853 
 H                     3.97132  -0.82637  -2.9153 
 H                     3.81793  -1.56254  -1.3461 
 S                     6.08388  -1.16369  -1.80981 
 C                     6.7034   -0.207    -3.2303 
 H                     6.26925   0.78556  -3.20414 
 H                     6.37761  -0.67979  -4.14848 
 C                     8.22328  -0.04594  -3.21074 
 H                     8.5124    0.59058  -4.03997 
 H                     8.52572   0.45545  -2.29973 
 S                     9.21821  -1.56332  -3.2658 
 C                     8.83389  -2.19904  -4.92552 
 H                     7.79079  -2.48548  -4.97315 
 H                     9.00258  -1.41206  -5.65221 
 C                     9.71701  -3.40451  -5.23754 
 H                     9.48069  -3.79115  -6.22355 
 H                     10.76711  -3.13545  -5.22156 
 H                     9.55957  -4.20058  -4.51823 
 
 ITRead=  0  0  0  0  0  0  0  0  0  0  0  0  0  0  0  0  0  0  0  0
 ITRead=  0  0  0  0  0  0  0  0  0  0  0  0  0  0  0  0  0  0  0  0
 ITRead=  0  0  0  0  0  0  0  0  0  0
 MicOpt= -1 -1 -1 -1 -1 -1 -1 -1 -1 -1 -1 -1 -1 -1 -1 -1 -1 -1 -1 -1
 MicOpt= -1 -1 -1 -1 -1 -1 -1 -1 -1 -1 -1 -1 -1 -1 -1 -1 -1 -1 -1 -1
 MicOpt= -1 -1 -1 -1 -1 -1 -1 -1 -1 -1
 NAtoms=     50 NQM=       50 NQMF=       0 NMMI=      0 NMMIF=      0
                NMic=       0 NMicF=      0.
                          Input orientation:                          
 ---------------------------------------------------------------------
 Center     Atomic      Atomic             Coordinates (Angstroms)
 Number     Number       Type             X           Y           Z
 ---------------------------------------------------------------------
      1          6           0       -5.446890    0.538198   -1.589215
      2          1           0       -5.068218   -0.463295   -1.771264
      3          1           0       -6.524943    0.486690   -1.483194
      4          1           0       -5.219616    1.152354   -2.453618
      5          6           0       -4.814610    1.124848   -0.342075
      6          1           0       -5.046328    0.508442    0.525639
      7          1           0       -3.737090    1.163710   -0.436522
      8          8           0       -5.343927    2.414324   -0.158521
      9          6           0       -5.043309    3.059830    1.039209
     10          1           0       -5.128161    2.377385    1.882514
     11          1           0       -5.791157    3.835919    1.158937
     12          6           0       -3.673446    3.711474    1.060691
     13          1           0       -3.523226    4.257867    0.132298
     14          1           0       -3.628062    4.426314    1.883699
     15          8           0       -2.688419    2.734467    1.221384
     16          6           0       -1.378560    3.194620    1.109107
     17          1           0       -1.146038    3.883109    1.922006
     18          1           0       -1.233457    3.721403    0.169299
     19          6           0       -0.435121    2.016404    1.170214
     20          1           0       -0.670866    1.411016    2.042780
     21          1           0        0.582980    2.384334    1.271491
     22          8           0       -0.577459    1.266856    0.000000
     23          6           0        0.000000    0.000000    0.000000
     24          1           0       -0.360218   -0.489703   -0.894518
     25          1           0       -0.343672   -0.573353    0.860012
     26          6           0        1.527818    0.000000    0.000000
     27          1           0        1.858472   -1.027214   -0.098753
     28          1           0        1.919381    0.382020    0.935569
     29         16           0        2.179998    0.998083   -1.374406
     30          6           0        3.951295    0.591889   -1.285422
     31          1           0        4.449225    1.388688   -1.822921
     32          1           0        4.284036    0.648658   -0.256547
     33          6           0        4.309552   -0.765361   -1.888533
     34          1           0        3.971315   -0.826373   -2.915299
     35          1           0        3.817930   -1.562540   -1.346098
     36         16           0        6.083884   -1.163685   -1.809811
     37          6           0        6.703397   -0.207001   -3.230305
     38          1           0        6.269252    0.785558   -3.204143
     39          1           0        6.377614   -0.679790   -4.148475
     40          6           0        8.223284   -0.045943   -3.210735
     41          1           0        8.512403    0.590578   -4.039971
     42          1           0        8.525723    0.455446   -2.299733
     43         16           0        9.218207   -1.563316   -3.265800
     44          6           0        8.833887   -2.199039   -4.925516
     45          1           0        7.790788   -2.485483   -4.973147
     46          1           0        9.002583   -1.412060   -5.652213
     47          6           0        9.717015   -3.404510   -5.237539
     48          1           0        9.480688   -3.791152   -6.223550
     49          1           0       10.767108   -3.135452   -5.221564
     50          1           0        9.559570   -4.200583   -4.518226
 ---------------------------------------------------------------------
 Stoichiometry    C14H30O3S3
 Framework group  C1[X(C14H30O3S3)]
 Standard basis: 6-31G(d) (6D, 7F)
   372 basis functions,   752 primitive gaussians,   372 cartesian basis functions
    93 alpha electrons       93 beta electrons
 Requested convergence on RMS density matrix=1.00D-08 within  64 cycles.
 Requested convergence on MAX density matrix=1.00D-06.
 Requested convergence on             energy=1.00D-06.
 SCF Done:  E(RHF) =  -1964.69194032     A.U. after   13 cycles
            NFock= 13  Conv=0.34D-08     -V/T= 2.0006
 Mulliken charges:
     1  C   -0.487927
     2  H    0.150621
     3  H    0.165710
     4  H    0.170713
     5  C    0.011426
     6  H    0.129120
     7  H    0.184237
     8  O   -0.630895
     9  C    0.005877
    10  H    0.150582
    11  H    0.167022
    12  C    0.004851
    13  H    0.156755
    14  H    0.133034
    15  O   -0.626258
    16  C    0.015422
    17  H    0.138027
    18  H    0.164818
    19  C    0.004990
    20  H    0.152706
    21  H    0.152598
    22  O   -0.611751
    23  C    0.006271
    24  H    0.191918
    25  H    0.157787
    26  C   -0.499048
    27  H    0.189817
    28  H    0.189608
    29  S    0.137013
    30  C   -0.479154
    31  H    0.199801
    32  H    0.204304
    33  C   -0.482581
    34  H    0.205418
    35  H    0.200804
    36  S    0.142919
    37  C   -0.460528
    38  H    0.191701
    39  H    0.193788
    40  C   -0.492056
    41  H    0.197919
    42  H    0.214943
    43  S    0.135340
    44  C   -0.461000
    45  H    0.192360
    46  H    0.181982
    47  C   -0.495819
    48  H    0.171961
    49  H    0.180434
    50  H    0.182423
 Sum of Mulliken charges =  -0.00000
 Dipole moment (field-independent basis, Debye):
    X=              0.9470    Y=              0.6012    Z=              0.3496  Tot=              1.1750
 Quadrupole moment (field-independent basis, Debye-Ang):
   XX=           -176.0089   YY=           -143.4202   ZZ=           -132.2570
   XY=             12.9365   XZ=            -20.0948   YZ=              7.7014
 Traceless Quadrupole moment (field-independent basis, Debye-Ang):
   XX=            -25.4469   YY=              7.1418   ZZ=             18.3051
   XY=             12.9365   XZ=            -20.0948   YZ=              7.7014
 Octapole moment (field-independent basis, Debye-Ang**2):
  XXX=          -1184.9440  YYY=           -139.2945  ZZZ=            507.4674  XYY=           -354.0027
  XXY=             12.5500  XXZ=            121.6704  XZZ=           -210.4038  YZZ=            -76.6991
  YYZ=            211.8085  XYZ=            -11.4522
 Hexadecapole moment (field-independent basis, Debye-Ang**3):
 XXXX=         -31672.8824 YYYY=          -3236.4316 ZZZZ=          -4652.8260 XXXY=           3975.6745
 XXXZ=           4236.7791 YYYX=           2940.3956 YYYZ=          -1051.3570 ZZZX=           4247.7456
 ZZZY=          -1000.4046 XXYY=          -5267.2416 XXZZ=          -4584.5055 YYZZ=          -1329.3116
 XXYZ=           -194.4266 YYXZ=           1495.6276 ZZXY=            824.6825
 Merz-Kollman atomic radii used.
 Atom Element Radius
    1     6    1.50
    2     1    1.20
    3     1    1.20
    4     1    1.20
    5     6    1.50
    6     1    1.20
    7     1    1.20
    8     8    1.40
    9     6    1.50
   10     1    1.20
   11     1    1.20
   12     6    1.50
   13     1    1.20
   14     1    1.20
   15     8    1.40
   16     6    1.50
   17     1    1.20
   18     1    1.20
   19     6    1.50
   20     1    1.20
   21     1    1.20
   22     8    1.40
   23     6    1.50
   24     1    1.20
   25     1    1.20
   26     6    1.50
   27     1    1.20
   28     1    1.20
   29    16    1.75
   30     6    1.50
   31     1    1.20
   32     1    1.20
   33     6    1.50
   34     1    1.20
   35     1    1.20
   36    16    1.75
   37     6    1.50
   38     1    1.20
   39     1    1.20
   40     6    1.50
   41     1    1.20
   42     1    1.20
   43    16    1.75
   44     6    1.50
   45     1    1.20
   46     1    1.20
   47     6    1.50
   48     1    1.20
   49     1    1.20
   50     1    1.20
 Generate VDW surfaces: Layer= 4 Dens= 1 Start= 1.400 Inc= 0.200
            Electrostatic Properties Using The SCF Density.


       Atomic Center    1 is at  -5.446890  0.538198 -1.589215
       Atomic Center    2 is at  -5.068218 -0.463295 -1.771264
       Atomic Center    3 is at  -6.524943  0.486690 -1.483194
       Atomic Center    4 is at  -5.219616  1.152354 -2.453618
       Atomic Center    5 is at  -4.814610  1.124848 -0.342075
       Atomic Center    6 is at  -5.046328  0.508442  0.525639
       Atomic Center    7 is at  -3.737090  1.163710 -0.436522
       Atomic Center    8 is at  -5.343927  2.414324 -0.158521
       Atomic Center    9 is at  -5.043309  3.059830  1.039209
       Atomic Center   10 is at  -5.128161  2.377385  1.882514
       Atomic Center   11 is at  -5.791157  3.835919  1.158937
       Atomic Center   12 is at  -3.673446  3.711474  1.060691
       Atomic Center   13 is at  -3.523226  4.257867  0.132298
       Atomic Center   14 is at  -3.628062  4.426314  1.883699
       Atomic Center   15 is at  -2.688419  2.734467  1.221384
       Atomic Center   16 is at  -1.378560  3.194620  1.109107
       Atomic Center   17 is at  -1.146038  3.883109  1.922006
       Atomic Center   18 is at  -1.233457  3.721403  0.169299
       Atomic Center   19 is at  -0.435121  2.016404  1.170214
       Atomic Center   20 is at  -0.670866  1.411016  2.042780
       Atomic Center   21 is at   0.582980  2.384334  1.271491
       Atomic Center   22 is at  -0.577459  1.266856  0.000000
       Atomic Center   23 is at   0.000000  0.000000  0.000000
       Atomic Center   24 is at  -0.360218 -0.489703 -0.894518
       Atomic Center   25 is at  -0.343672 -0.573353  0.860012
       Atomic Center   26 is at   1.527818  0.000000  0.000000
       Atomic Center   27 is at   1.858472 -1.027214 -0.098753
       Atomic Center   28 is at   1.919381  0.382020  0.935569
       Atomic Center   29 is at   2.179998  0.998083 -1.374406
       Atomic Center   30 is at   3.951295  0.591889 -1.285422
       Atomic Center   31 is at   4.449225  1.388688 -1.822921
       Atomic Center   32 is at   4.284036  0.648658 -0.256547
       Atomic Center   33 is at   4.309552 -0.765361 -1.888533
       Atomic Center   34 is at   3.971315 -0.826373 -2.915299
       Atomic Center   35 is at   3.817930 -1.562540 -1.346098
       Atomic Center   36 is at   6.083884 -1.163685 -1.809811
       Atomic Center   37 is at   6.703397 -0.207001 -3.230305
       Atomic Center   38 is at   6.269252  0.785558 -3.204143
       Atomic Center   39 is at   6.377614 -0.679790 -4.148475
       Atomic Center   40 is at   8.223284 -0.045943 -3.210735
       Atomic Center   41 is at   8.512403  0.590578 -4.039971
       Atomic Center   42 is at   8.525723  0.455446 -2.299733
       Atomic Center   43 is at   9.218207 -1.563316 -3.265800
       Atomic Center   44 is at   8.833887 -2.199039 -4.925516
       Atomic Center   45 is at   7.790788 -2.485483 -4.973147
       Atomic Center   46 is at   9.002583 -1.412060 -5.652213
       Atomic Center   47 is at   9.717015 -3.404510 -5.237539
       Atomic Center   48 is at   9.480688 -3.791152 -6.223550
       Atomic Center   49 is at  10.767108 -3.135452 -5.221564
       Atomic Center   50 is at   9.559570 -4.200583 -4.518226
      ESP Fit Center   51 is at  -3.628237  0.538198 -2.639215
      ESP Fit Center   52 is at  -6.637855 -0.836248 -2.639215
      ESP Fit Center   53 is at  -6.496890  0.538198 -3.407868
      ESP Fit Center   54 is at  -5.971890 -0.371129 -3.407868
      ESP Fit Center   55 is at  -4.763070 -1.402444 -0.412115
      ESP Fit Center   56 is at  -3.470443 -0.463295 -1.252115
      ESP Fit Center   57 is at  -5.867105 -1.847009 -1.252115
      ESP Fit Center   58 is at  -4.790767 -2.036796 -1.252115
      ESP Fit Center   59 is at  -3.844251 -1.490325 -1.252115
      ESP Fit Center   60 is at  -3.470443 -0.463295 -2.290413
      ESP Fit Center   61 is at  -5.867105 -1.847009 -2.290413
      ESP Fit Center   62 is at  -4.790767 -2.036796 -2.290413
      ESP Fit Center   63 is at  -3.844251 -1.490325 -2.290413
      ESP Fit Center   64 is at  -4.080739 -0.463295 -3.130413
      ESP Fit Center   65 is at  -5.867105 -1.043721 -3.130413
      ESP Fit Center   66 is at  -4.763070 -1.402444 -3.130413
      ESP Fit Center   67 is at  -5.068218 -0.463295 -3.451264
      ESP Fit Center   68 is at  -7.323830  1.067116 -0.124045
      ESP Fit Center   69 is at  -7.323830 -0.093736 -0.124045
      ESP Fit Center   70 is at  -7.323830  1.870404 -0.964045
      ESP Fit Center   71 is at  -8.026360  1.033161 -0.964045
      ESP Fit Center   72 is at  -8.026360 -0.059781 -0.964045
      ESP Fit Center   73 is at  -7.323830 -0.897024 -0.964045
      ESP Fit Center   74 is at  -7.323830  1.870404 -2.002343
      ESP Fit Center   75 is at  -8.026360  1.033161 -2.002343
      ESP Fit Center   76 is at  -8.026360 -0.059781 -2.002343
      ESP Fit Center   77 is at  -7.323830 -0.897024 -2.002343
      ESP Fit Center   78 is at  -7.323830  1.067116 -2.842343
      ESP Fit Center   79 is at  -7.323830 -0.093736 -2.842343
      ESP Fit Center   80 is at  -3.621841  1.152354 -2.972767
      ESP Fit Center   81 is at  -3.995649  2.179384 -2.972767
      ESP Fit Center   82 is at  -4.942165  2.725855 -2.972767
      ESP Fit Center   83 is at  -6.018503  2.536068 -2.972767
      ESP Fit Center   84 is at  -6.721033  1.698825 -2.972767
      ESP Fit Center   85 is at  -4.232137  1.152354 -3.812767
      ESP Fit Center   86 is at  -4.914468  2.091503 -3.812767
      ESP Fit Center   87 is at  -6.018503  1.732780 -3.812767
      ESP Fit Center   88 is at  -6.018503  0.571928 -3.812767
      ESP Fit Center   89 is at  -4.914468  0.213205 -3.812767
      ESP Fit Center   90 is at  -5.219616  1.152354 -4.133618
      ESP Fit Center   91 is at  -3.621674 -0.603418 -0.342075
      ESP Fit Center   92 is at  -5.046328  0.508442  2.205639
      ESP Fit Center   93 is at  -4.058849  0.508442  1.884788
      ESP Fit Center   94 is at  -5.845215 -0.071984  1.884788
      ESP Fit Center   95 is at  -4.741180 -0.430707  1.884788
      ESP Fit Center   96 is at  -6.547745  1.054913  1.044788
      ESP Fit Center   97 is at  -6.547745 -0.038029  1.044788
      ESP Fit Center   98 is at  -5.845215 -0.875272  1.044788
      ESP Fit Center   99 is at  -4.768877 -1.065059  1.044788
      ESP Fit Center  100 is at  -3.822361 -0.518588  1.044788
      ESP Fit Center  101 is at  -5.845215 -0.875272  0.006490
      ESP Fit Center  102 is at  -4.768877 -1.065059  0.006490
      ESP Fit Center  103 is at  -2.513123  0.136680  0.082627
      ESP Fit Center  104 is at  -2.513123  2.190740 -0.955671
      ESP Fit Center  105 is at  -3.459639  2.737211 -0.955671
      ESP Fit Center  106 is at  -3.459639 -0.409791 -0.955671
      ESP Fit Center  107 is at  -2.513123  0.136680 -0.955671
      ESP Fit Center  108 is at  -2.749611  1.163710 -1.795671
      ESP Fit Center  109 is at  -3.431942  2.102859 -1.795671
      ESP Fit Center  110 is at  -7.041337  2.414324  0.821479
      ESP Fit Center  111 is at  -6.717160  1.416612  0.821479
      ESP Fit Center  112 is at  -7.041337  3.394324 -0.158521
      ESP Fit Center  113 is at  -7.303927  2.414324 -0.158521
      ESP Fit Center  114 is at  -7.041337  1.434324 -0.158521
      ESP Fit Center  115 is at  -4.819399  4.028657 -1.138521
      ESP Fit Center  116 is at  -5.868455  4.028657 -1.138521
      ESP Fit Center  117 is at  -6.717160  3.412036 -1.138521
      ESP Fit Center  118 is at  -7.041337  2.414324 -1.138521
      ESP Fit Center  119 is at  -4.853927  3.263029 -1.855931
      ESP Fit Center  120 is at  -5.833927  3.263029 -1.855931
      ESP Fit Center  121 is at  -5.568309  3.969157  2.857862
      ESP Fit Center  122 is at  -6.788294  2.547456  2.089209
      ESP Fit Center  123 is at  -7.082287  2.557267  1.039209
      ESP Fit Center  124 is at  -5.128161  2.377385  3.562514
      ESP Fit Center  125 is at  -4.140682  2.377385  3.241663
      ESP Fit Center  126 is at  -4.823013  3.316534  3.241663
      ESP Fit Center  127 is at  -5.927048  2.957811  3.241663
      ESP Fit Center  128 is at  -5.927048  1.796959  3.241663
      ESP Fit Center  129 is at  -4.823013  1.438236  3.241663
      ESP Fit Center  130 is at  -6.629578  1.830914  2.401663
      ESP Fit Center  131 is at  -5.927048  0.993671  2.401663
      ESP Fit Center  132 is at  -4.850710  0.803884  2.401663
      ESP Fit Center  133 is at  -3.904194  1.350355  2.401663
      ESP Fit Center  134 is at  -5.486009  4.775068  2.518086
      ESP Fit Center  135 is at  -6.590044  4.416345  2.518086
      ESP Fit Center  136 is at  -6.590044  3.255493  2.518086
      ESP Fit Center  137 is at  -5.513706  5.409420  1.678086
      ESP Fit Center  138 is at  -6.590044  5.219633  1.678086
      ESP Fit Center  139 is at  -7.292574  4.382390  1.678086
      ESP Fit Center  140 is at  -7.292574  3.289448  1.678086
      ESP Fit Center  141 is at  -5.513706  5.409420  0.639788
      ESP Fit Center  142 is at  -6.590044  5.219633  0.639788
      ESP Fit Center  143 is at  -7.292574  4.382390  0.639788
      ESP Fit Center  144 is at  -7.292574  3.289448  0.639788
      ESP Fit Center  145 is at  -5.486009  4.775068 -0.200212
      ESP Fit Center  146 is at  -6.590044  4.416345 -0.200212
      ESP Fit Center  147 is at  -2.480510  5.439740  1.060691
      ESP Fit Center  148 is at  -4.418116  5.675008  1.060691
      ESP Fit Center  149 is at  -3.148446  2.802147 -0.757962
      ESP Fit Center  150 is at  -2.299259  5.284897  0.651447
      ESP Fit Center  151 is at  -3.245775  5.831368  0.651447
      ESP Fit Center  152 is at  -2.299259  5.284897 -0.386851
      ESP Fit Center  153 is at  -3.245775  5.831368 -0.386851
      ESP Fit Center  154 is at  -4.322113  5.641581 -0.386851
      ESP Fit Center  155 is at  -5.024643  4.804338 -0.386851
      ESP Fit Center  156 is at  -2.535747  4.257867 -1.226851
      ESP Fit Center  157 is at  -3.218078  5.197016 -1.226851
      ESP Fit Center  158 is at  -4.322113  4.838293 -1.226851
      ESP Fit Center  159 is at  -3.218078  3.318718 -1.226851
      ESP Fit Center  160 is at  -3.523226  4.257867 -1.547702
      ESP Fit Center  161 is at  -3.628062  4.426314  3.563699
      ESP Fit Center  162 is at  -2.640583  4.426314  3.242848
      ESP Fit Center  163 is at  -3.322914  5.365463  3.242848
      ESP Fit Center  164 is at  -4.426949  5.006740  3.242848
      ESP Fit Center  165 is at  -4.426949  3.845888  3.242848
      ESP Fit Center  166 is at  -3.322914  3.487165  3.242848
      ESP Fit Center  167 is at  -2.404095  5.453344  2.402848
      ESP Fit Center  168 is at  -3.350611  5.999815  2.402848
      ESP Fit Center  169 is at  -4.426949  5.810028  2.402848
      ESP Fit Center  170 is at  -5.129479  4.972785  2.402848
      ESP Fit Center  171 is at  -2.404095  5.453344  1.364550
      ESP Fit Center  172 is at  -3.350611  5.999815  1.364550
      ESP Fit Center  173 is at  -4.426949  5.810028  1.364550
      ESP Fit Center  174 is at  -2.688419  2.734467  3.181384
      ESP Fit Center  175 is at  -3.178419  1.885762  2.918794
      ESP Fit Center  176 is at  -2.198419  1.885762  2.918794
      ESP Fit Center  177 is at  -3.212947  1.120134  2.201384
      ESP Fit Center  178 is at  -2.688419  0.774467  1.221384
      ESP Fit Center  179 is at  -2.688419  2.734467 -0.738616
      ESP Fit Center  180 is at   0.480898  4.170539  1.109107
      ESP Fit Center  181 is at  -2.123230  5.158154  1.109107
      ESP Fit Center  182 is at  -1.146038  3.883109  3.602006
      ESP Fit Center  183 is at  -0.158559  3.883109  3.281155
      ESP Fit Center  184 is at  -0.840890  4.822258  3.281155
      ESP Fit Center  185 is at  -1.944925  4.463535  3.281155
      ESP Fit Center  186 is at  -1.944925  3.302683  3.281155
      ESP Fit Center  187 is at  -0.840890  2.943960  3.281155
      ESP Fit Center  188 is at   0.451737  3.883109  2.441155
      ESP Fit Center  189 is at   0.077929  4.910139  2.441155
      ESP Fit Center  190 is at  -0.868587  5.456610  2.441155
      ESP Fit Center  191 is at  -1.944925  5.266823  2.441155
      ESP Fit Center  192 is at   0.077929  4.910139  1.402857
      ESP Fit Center  193 is at  -0.868587  5.456610  1.402857
      ESP Fit Center  194 is at  -1.944925  5.266823  1.402857
      ESP Fit Center  195 is at  -0.009490  4.748433  0.688448
      ESP Fit Center  196 is at  -0.956006  5.294904  0.688448
      ESP Fit Center  197 is at   0.364318  3.721403 -0.349850
      ESP Fit Center  198 is at  -0.009490  4.748433 -0.349850
      ESP Fit Center  199 is at  -0.956006  5.294904 -0.349850
      ESP Fit Center  200 is at  -2.032344  5.105117 -0.349850
      ESP Fit Center  201 is at  -0.245978  3.721403 -1.189850
      ESP Fit Center  202 is at  -0.928309  4.660552 -1.189850
      ESP Fit Center  203 is at  -2.032344  4.301829 -1.189850
      ESP Fit Center  204 is at  -2.032344  3.140977 -1.189850
      ESP Fit Center  205 is at  -1.233457  3.721403 -1.510701
      ESP Fit Center  206 is at   0.614879  2.016404  2.988867
      ESP Fit Center  207 is at   0.089879  2.925731  2.988867
      ESP Fit Center  208 is at  -0.670866  1.411016  3.722780
      ESP Fit Center  209 is at   0.316613  1.411016  3.401929
      ESP Fit Center  210 is at  -0.365718  2.350165  3.401929
      ESP Fit Center  211 is at  -1.469753  1.991442  3.401929
      ESP Fit Center  212 is at  -1.469753  0.830590  3.401929
      ESP Fit Center  213 is at  -0.365718  0.471867  3.401929
      ESP Fit Center  214 is at  -2.172283  0.864545  2.561929
      ESP Fit Center  215 is at  -1.469753  0.027302  2.561929
      ESP Fit Center  216 is at  -0.393415 -0.162485  2.561929
      ESP Fit Center  217 is at   0.553101  0.383986  2.561929
      ESP Fit Center  218 is at  -2.172283  0.864545  1.523631
      ESP Fit Center  219 is at   1.570459  2.384334  2.630640
      ESP Fit Center  220 is at   0.888128  3.323483  2.630640
      ESP Fit Center  221 is at   2.180755  2.384334  1.790640
      ESP Fit Center  222 is at   1.806947  3.411364  1.790640
      ESP Fit Center  223 is at   0.860431  3.957835  1.790640
      ESP Fit Center  224 is at   2.180755  2.384334  0.752342
      ESP Fit Center  225 is at   1.806947  3.411364  0.752342
      ESP Fit Center  226 is at   0.860431  3.957835  0.752342
      ESP Fit Center  227 is at   0.888128  3.323483 -0.087658
      ESP Fit Center  228 is at  -1.950692  0.269144  0.980000
      ESP Fit Center  229 is at  -2.274869  0.286856  0.000000
      ESP Fit Center  230 is at  -0.052931  2.881189 -0.980000
      ESP Fit Center  231 is at  -1.950692  2.264568 -0.980000
      ESP Fit Center  232 is at  -1.950692  0.269144 -0.980000
      ESP Fit Center  233 is at  -0.087459  2.115561 -1.697410
      ESP Fit Center  234 is at  -1.067459  2.115561 -1.697410
      ESP Fit Center  235 is at  -1.557459  1.266856 -1.697410
      ESP Fit Center  236 is at  -0.577459  1.266856 -1.960000
      ESP Fit Center  237 is at  -2.038978 -0.502563  0.000000
      ESP Fit Center  238 is at  -1.571873 -1.392558  0.000000
      ESP Fit Center  239 is at  -0.744670 -1.963534  0.000000
      ESP Fit Center  240 is at   0.253127 -2.084689  0.000000
      ESP Fit Center  241 is at  -1.861635 -1.036174 -0.375369
      ESP Fit Center  242 is at  -1.159105 -1.873417 -0.375369
      ESP Fit Center  243 is at  -1.861635  0.056768 -1.413667
      ESP Fit Center  244 is at  -1.861635 -1.036174 -1.413667
      ESP Fit Center  245 is at  -1.159105 -1.873417 -1.413667
      ESP Fit Center  246 is at  -0.082767 -2.063204 -1.413667
      ESP Fit Center  247 is at   0.863749 -1.516733 -1.413667
      ESP Fit Center  248 is at  -0.055070  0.449446 -2.253667
      ESP Fit Center  249 is at  -1.159105  0.090723 -2.253667
      ESP Fit Center  250 is at  -1.159105 -1.070129 -2.253667
      ESP Fit Center  251 is at  -0.055070 -1.428852 -2.253667
      ESP Fit Center  252 is at  -0.360218 -0.489703 -2.574518
      ESP Fit Center  253 is at  -0.343672 -0.573353  2.540012
      ESP Fit Center  254 is at   0.643807 -0.573353  2.219161
      ESP Fit Center  255 is at  -1.142559 -1.153779  2.219161
      ESP Fit Center  256 is at  -0.038524 -1.512502  2.219161
      ESP Fit Center  257 is at  -1.845089 -0.026882  1.379161
      ESP Fit Center  258 is at  -1.845089 -1.119824  1.379161
      ESP Fit Center  259 is at  -1.142559 -1.957067  1.379161
      ESP Fit Center  260 is at  -0.066221 -2.146854  1.379161
      ESP Fit Center  261 is at   0.880295 -1.600383  1.379161
      ESP Fit Center  262 is at  -1.845089 -1.119824  0.340863
      ESP Fit Center  263 is at  -1.142559 -1.957067  0.340863
      ESP Fit Center  264 is at  -0.066221 -2.146854  0.340863
      ESP Fit Center  265 is at   1.002818 -0.909327  1.818653
      ESP Fit Center  266 is at   2.163620 -1.966363  1.260396
      ESP Fit Center  267 is at   3.456247 -1.027214  0.420396
      ESP Fit Center  268 is at   1.059585 -2.410928  0.420396
      ESP Fit Center  269 is at   2.135923 -2.600715  0.420396
      ESP Fit Center  270 is at   3.082439 -2.054244  0.420396
      ESP Fit Center  271 is at   1.059585 -2.410928 -0.617902
      ESP Fit Center  272 is at   2.135923 -2.600715 -0.617902
      ESP Fit Center  273 is at   1.059585 -1.607640 -1.457902
      ESP Fit Center  274 is at   2.163620 -1.966363 -1.457902
      ESP Fit Center  275 is at   1.919381  0.382020  2.615569
      ESP Fit Center  276 is at   2.906860  0.382020  2.294718
      ESP Fit Center  277 is at   2.224529  1.321169  2.294718
      ESP Fit Center  278 is at   1.120494  0.962446  2.294718
      ESP Fit Center  279 is at   1.120494 -0.198406  2.294718
      ESP Fit Center  280 is at   2.224529 -0.557129  2.294718
      ESP Fit Center  281 is at   3.517156  0.382020  1.454718
      ESP Fit Center  282 is at   3.143348  1.409050  1.454718
      ESP Fit Center  283 is at   3.143348 -0.645010  1.454718
      ESP Fit Center  284 is at   2.711506  1.918681  0.832968
      ESP Fit Center  285 is at   2.975720  2.740471  0.153144
      ESP Fit Center  286 is at   1.907396  2.894073  0.153144
      ESP Fit Center  287 is at   3.669249  2.865545 -0.829230
      ESP Fit Center  288 is at   2.711506  3.326770 -0.829230
      ESP Fit Center  289 is at   1.648490  3.326770 -0.829230
      ESP Fit Center  290 is at   0.690747  2.865545 -0.829230
      ESP Fit Center  291 is at   2.711506  3.326770 -1.919582
      ESP Fit Center  292 is at   1.648490  3.326770 -1.919582
      ESP Fit Center  293 is at   0.690747  2.865545 -1.919582
      ESP Fit Center  294 is at   0.027968  2.034446 -1.919582
      ESP Fit Center  295 is at  -0.208575  0.998083 -1.919582
      ESP Fit Center  296 is at   1.648490 -1.330604 -1.919582
      ESP Fit Center  297 is at   2.975720  2.740471 -2.901956
      ESP Fit Center  298 is at   1.907396  2.894073 -2.901956
      ESP Fit Center  299 is at   0.925621  2.445712 -2.901956
      ESP Fit Center  300 is at   0.342102  1.537738 -2.901956
      ESP Fit Center  301 is at   0.342102  0.458428 -2.901956
      ESP Fit Center  302 is at   0.925621 -0.449546 -2.901956
      ESP Fit Center  303 is at   1.907396 -0.897907 -2.901956
      ESP Fit Center  304 is at   3.243013  0.998083 -3.581780
      ESP Fit Center  305 is at   2.711506  1.918681 -3.581780
      ESP Fit Center  306 is at   1.648490  1.918681 -3.581780
      ESP Fit Center  307 is at   1.116983  0.998083 -3.581780
      ESP Fit Center  308 is at   1.648490  0.077485 -3.581780
      ESP Fit Center  309 is at   2.711506  0.077485 -3.581780
      ESP Fit Center  310 is at   2.179998  0.998083 -3.824406
      ESP Fit Center  311 is at   6.047000  1.388688 -1.303772
      ESP Fit Center  312 is at   5.673192  2.415718 -1.303772
      ESP Fit Center  313 is at   4.726676  2.962189 -1.303772
      ESP Fit Center  314 is at   5.673192  2.415718 -2.342070
      ESP Fit Center  315 is at   4.726676  2.962189 -2.342070
      ESP Fit Center  316 is at   3.650338  2.772402 -2.342070
      ESP Fit Center  317 is at   4.754373  2.327837 -3.182070
      ESP Fit Center  318 is at   3.650338  1.969114 -3.182070
      ESP Fit Center  319 is at   4.449225  1.388688 -3.502921
      ESP Fit Center  320 is at   4.284036  0.648658  1.423453
      ESP Fit Center  321 is at   5.271515  0.648658  1.102602
      ESP Fit Center  322 is at   4.589184  1.587807  1.102602
      ESP Fit Center  323 is at   3.485149  1.229084  1.102602
      ESP Fit Center  324 is at   4.589184 -0.290491  1.102602
      ESP Fit Center  325 is at   5.881811  0.648658  0.262602
      ESP Fit Center  326 is at   5.508003  1.675688  0.262602
      ESP Fit Center  327 is at   4.561487  2.222159  0.262602
      ESP Fit Center  328 is at   4.561487 -0.924843  0.262602
      ESP Fit Center  329 is at   4.050731 -2.565503 -2.938533
      ESP Fit Center  330 is at   4.248766  0.747128 -3.434448
      ESP Fit Center  331 is at   2.469898 -1.372844 -3.434448
      ESP Fit Center  332 is at   3.172428 -2.210087 -3.434448
      ESP Fit Center  333 is at   4.248766 -2.399874 -3.434448
      ESP Fit Center  334 is at   4.276463  0.112776 -4.274448
      ESP Fit Center  335 is at   3.172428 -0.245947 -4.274448
      ESP Fit Center  336 is at   3.172428 -1.406799 -4.274448
      ESP Fit Center  337 is at   4.276463 -1.765522 -4.274448
      ESP Fit Center  338 is at   3.971315 -0.826373 -4.595299
      ESP Fit Center  339 is at   3.817930 -1.562540  0.333902
      ESP Fit Center  340 is at   4.123078 -2.501689  0.013051
      ESP Fit Center  341 is at   3.019043 -2.946254 -0.826949
      ESP Fit Center  342 is at   4.095381 -3.136041 -0.826949
      ESP Fit Center  343 is at   2.316513 -2.109011 -1.865247
      ESP Fit Center  344 is at   3.019043 -2.946254 -1.865247
      ESP Fit Center  345 is at   4.095381 -3.136041 -1.865247
      ESP Fit Center  346 is at   6.083884 -1.163685  0.640189
      ESP Fit Center  347 is at   7.146899 -1.163685  0.397563
      ESP Fit Center  348 is at   6.615392 -0.243087  0.397563
      ESP Fit Center  349 is at   5.552376 -0.243087  0.397563
      ESP Fit Center  350 is at   5.020869 -1.163685  0.397563
      ESP Fit Center  351 is at   5.552376 -2.084283  0.397563
      ESP Fit Center  352 is at   6.615392 -2.084283  0.397563
      ESP Fit Center  353 is at   7.999371 -1.163685 -0.282261
      ESP Fit Center  354 is at   7.695294 -0.128094 -0.282261
      ESP Fit Center  355 is at   6.879606  0.578703 -0.282261
      ESP Fit Center  356 is at   4.829507 -2.611314 -0.282261
      ESP Fit Center  357 is at   5.811282 -3.059675 -0.282261
      ESP Fit Center  358 is at   6.879606 -2.906073 -0.282261
      ESP Fit Center  359 is at   7.695294 -2.199276 -0.282261
      ESP Fit Center  360 is at   6.615392  1.165002 -1.264635
      ESP Fit Center  361 is at   5.552376 -3.492372 -1.264635
      ESP Fit Center  362 is at   6.615392 -3.492372 -1.264635
      ESP Fit Center  363 is at   7.573135 -3.031147 -1.264635
      ESP Fit Center  364 is at   4.594633 -3.031147 -2.354987
      ESP Fit Center  365 is at   5.552376 -3.492372 -2.354987
      ESP Fit Center  366 is at   6.615392 -3.492372 -2.354987
      ESP Fit Center  367 is at   4.829507 -2.611314 -3.337361
      ESP Fit Center  368 is at   5.811282 -3.059675 -3.337361
      ESP Fit Center  369 is at   6.879606 -2.906073 -3.337361
      ESP Fit Center  370 is at   4.958412  0.305373 -4.280305
      ESP Fit Center  371 is at   6.574400  1.724707 -1.844994
      ESP Fit Center  372 is at   6.546703  2.359059 -2.684994
      ESP Fit Center  373 is at   6.546703  2.359059 -3.723292
      ESP Fit Center  374 is at   5.470365  2.169272 -3.723292
      ESP Fit Center  375 is at   4.767835  1.332029 -3.723292
      ESP Fit Center  376 is at   6.574400  1.724707 -4.563292
      ESP Fit Center  377 is at   5.470365  1.365984 -4.563292
      ESP Fit Center  378 is at   4.876197 -0.133319 -4.667624
      ESP Fit Center  379 is at   4.876197 -1.226261 -4.667624
      ESP Fit Center  380 is at   5.578727 -2.063504 -4.667624
      ESP Fit Center  381 is at   7.365093 -0.679790 -5.507624
      ESP Fit Center  382 is at   6.682762  0.259359 -5.507624
      ESP Fit Center  383 is at   5.578727 -0.099364 -5.507624
      ESP Fit Center  384 is at   5.578727 -1.260216 -5.507624
      ESP Fit Center  385 is at   6.377614 -0.679790 -5.828475
      ESP Fit Center  386 is at  10.082742  0.929976 -3.210735
      ESP Fit Center  387 is at   9.736370  1.617608 -3.520822
      ESP Fit Center  388 is at   8.789854  2.164079 -3.520822
      ESP Fit Center  389 is at   7.713516  1.974292 -3.520822
      ESP Fit Center  390 is at  10.110178  0.590578 -4.559120
      ESP Fit Center  391 is at   9.736370  1.617608 -4.559120
      ESP Fit Center  392 is at   8.789854  2.164079 -4.559120
      ESP Fit Center  393 is at   7.713516  1.974292 -4.559120
      ESP Fit Center  394 is at   9.499882  0.590578 -5.399120
      ESP Fit Center  395 is at   8.817551  1.529727 -5.399120
      ESP Fit Center  396 is at   7.713516  1.171004 -5.399120
      ESP Fit Center  397 is at   7.713516  0.010152 -5.399120
      ESP Fit Center  398 is at   8.512403  0.590578 -5.719971
      ESP Fit Center  399 is at   8.525723  0.455446 -0.619733
      ESP Fit Center  400 is at   9.513202  0.455446 -0.940584
      ESP Fit Center  401 is at   8.830871  1.394595 -0.940584
      ESP Fit Center  402 is at   7.726836  1.035872 -0.940584
      ESP Fit Center  403 is at   8.830871 -0.483703 -0.940584
      ESP Fit Center  404 is at  10.123498  0.455446 -1.780584
      ESP Fit Center  405 is at   9.749690  1.482476 -1.780584
      ESP Fit Center  406 is at   8.803174  2.028947 -1.780584
      ESP Fit Center  407 is at   7.726836  1.839160 -1.780584
      ESP Fit Center  408 is at   9.749690  1.482476 -2.818882
      ESP Fit Center  409 is at   8.803174  2.028947 -2.818882
      ESP Fit Center  410 is at   9.218207 -1.563316 -0.815800
      ESP Fit Center  411 is at  10.281222 -1.563316 -1.058426
      ESP Fit Center  412 is at   9.749715 -0.642718 -1.058426
      ESP Fit Center  413 is at   8.686699 -2.483914 -1.058426
      ESP Fit Center  414 is at   9.749715 -2.483914 -1.058426
      ESP Fit Center  415 is at  11.133694 -1.563316 -1.738250
      ESP Fit Center  416 is at  10.829617 -0.527725 -1.738250
      ESP Fit Center  417 is at   7.963830 -3.010945 -1.738250
      ESP Fit Center  418 is at   8.945605 -3.459306 -1.738250
      ESP Fit Center  419 is at  10.013929 -3.305704 -1.738250
      ESP Fit Center  420 is at  10.829617 -2.598907 -1.738250
      ESP Fit Center  421 is at  11.606780 -1.563316 -2.720624
      ESP Fit Center  422 is at  11.370237 -0.526953 -2.720624
      ESP Fit Center  423 is at  10.707458  0.304146 -2.720624
      ESP Fit Center  424 is at   7.728956 -3.430778 -2.720624
      ESP Fit Center  425 is at   8.686699 -3.892003 -2.720624
      ESP Fit Center  426 is at   9.749715 -3.892003 -2.720624
      ESP Fit Center  427 is at  10.707458 -3.430778 -2.720624
      ESP Fit Center  428 is at  11.370237 -2.599679 -2.720624
      ESP Fit Center  429 is at  11.606780 -1.563316 -3.810976
      ESP Fit Center  430 is at  11.370237 -0.526953 -3.810976
      ESP Fit Center  431 is at  10.707458  0.304146 -3.810976
      ESP Fit Center  432 is at  10.829617 -0.527725 -4.793350
      ESP Fit Center  433 is at  10.013929  0.179072 -4.793350
      ESP Fit Center  434 is at   7.783887 -2.199039 -6.744169
      ESP Fit Center  435 is at   6.991901 -3.065909 -3.613998
      ESP Fit Center  436 is at   6.289371 -3.031954 -4.453998
      ESP Fit Center  437 is at   6.991901 -3.869197 -4.453998
      ESP Fit Center  438 is at   6.289371 -1.939012 -5.492296
      ESP Fit Center  439 is at   6.289371 -3.031954 -5.492296
      ESP Fit Center  440 is at   6.991901 -3.869197 -5.492296
      ESP Fit Center  441 is at   6.991901 -1.905057 -6.332296
      ESP Fit Center  442 is at   6.991901 -3.065909 -6.332296
      ESP Fit Center  443 is at  10.600358 -1.412060 -6.171362
      ESP Fit Center  444 is at  10.226550 -0.385030 -6.171362
      ESP Fit Center  445 is at   9.280034  0.161441 -6.171362
      ESP Fit Center  446 is at   8.203696 -0.028346 -6.171362
      ESP Fit Center  447 is at   7.501166 -0.865589 -6.171362
      ESP Fit Center  448 is at   9.990062 -1.412060 -7.011362
      ESP Fit Center  449 is at   9.307731 -0.472911 -7.011362
      ESP Fit Center  450 is at   8.203696 -0.831634 -7.011362
      ESP Fit Center  451 is at   8.203696 -1.992486 -7.011362
      ESP Fit Center  452 is at   9.002583 -1.412060 -7.332213
      ESP Fit Center  453 is at  11.246964 -4.387748 -4.187539
      ESP Fit Center  454 is at   8.145142 -4.797068 -5.237539
      ESP Fit Center  455 is at  10.909951 -5.132776 -5.237539
      ESP Fit Center  456 is at  11.246964 -4.387748 -6.287539
      ESP Fit Center  457 is at  10.242015 -2.495183 -7.056192
      ESP Fit Center  458 is at   8.681801 -5.174866 -5.704401
      ESP Fit Center  459 is at   7.979271 -3.244681 -6.742699
      ESP Fit Center  460 is at   7.979271 -4.337623 -6.742699
      ESP Fit Center  461 is at   8.681801 -5.174866 -6.742699
      ESP Fit Center  462 is at   9.758139 -5.364653 -6.742699
      ESP Fit Center  463 is at  10.704655 -4.818182 -6.742699
      ESP Fit Center  464 is at  10.468167 -3.791152 -7.582699
      ESP Fit Center  465 is at   9.785836 -2.852003 -7.582699
      ESP Fit Center  466 is at   8.681801 -3.210726 -7.582699
      ESP Fit Center  467 is at   8.681801 -4.371578 -7.582699
      ESP Fit Center  468 is at   9.785836 -4.730301 -7.582699
      ESP Fit Center  469 is at   9.480688 -3.791152 -7.903550
      ESP Fit Center  470 is at  11.754587 -3.135452 -3.862415
      ESP Fit Center  471 is at  12.364883 -3.135452 -4.702415
      ESP Fit Center  472 is at  11.991075 -2.108422 -4.702415
      ESP Fit Center  473 is at  11.991075 -4.162482 -4.702415
      ESP Fit Center  474 is at  12.364883 -3.135452 -5.740713
      ESP Fit Center  475 is at  11.991075 -2.108422 -5.740713
      ESP Fit Center  476 is at  11.044559 -1.561951 -5.740713
      ESP Fit Center  477 is at  11.991075 -4.162482 -5.740713
      ESP Fit Center  478 is at  11.754587 -3.135452 -6.580713
      ESP Fit Center  479 is at  11.072256 -2.196303 -6.580713
      ESP Fit Center  480 is at   9.559570 -4.200583 -2.838226
      ESP Fit Center  481 is at  10.547049 -4.200583 -3.159077
      ESP Fit Center  482 is at   8.760683 -4.781009 -3.159077
      ESP Fit Center  483 is at   9.864718 -5.139732 -3.159077
      ESP Fit Center  484 is at   8.058153 -4.747054 -3.999077
      ESP Fit Center  485 is at   8.760683 -5.584297 -3.999077
      ESP Fit Center  486 is at   9.837021 -5.774084 -3.999077
      ESP Fit Center  487 is at  10.783537 -5.227613 -3.999077
      ESP Fit Center  488 is at   8.058153 -4.747054 -5.037375
      ESP Fit Center  489 is at   8.760683 -5.584297 -5.037375
      ESP Fit Center  490 is at   9.837021 -5.774084 -5.037375
      ESP Fit Center  491 is at  10.783537 -5.227613 -5.037375
      ESP Fit Center  492 is at  -6.675668 -0.879887 -0.092839
      ESP Fit Center  493 is at  -5.713929 -1.319099 -0.092839
      ESP Fit Center  494 is at  -6.905748  2.367548 -2.123265
      ESP Fit Center  495 is at  -6.905748 -1.291152 -2.123265
      ESP Fit Center  496 is at  -6.675668 -0.879887 -3.085591
      ESP Fit Center  497 is at  -5.967550 -0.363612 -3.751540
      ESP Fit Center  498 is at  -4.926230 -0.363612 -3.751540
      ESP Fit Center  499 is at  -4.588218 -1.294679 -0.108495
      ESP Fit Center  500 is at  -5.582042 -2.044682 -0.811264
      ESP Fit Center  501 is at  -4.554394 -2.044682 -0.811264
      ESP Fit Center  502 is at  -3.723010 -1.440646 -0.811264
      ESP Fit Center  503 is at  -3.148218 -0.463295 -1.771264
      ESP Fit Center  504 is at  -6.028218 -2.126064 -1.771264
      ESP Fit Center  505 is at  -5.068218 -2.383295 -1.771264
      ESP Fit Center  506 is at  -4.108218 -2.126064 -1.771264
      ESP Fit Center  507 is at  -3.405449 -1.423295 -1.771264
      ESP Fit Center  508 is at  -3.405449 -0.463295 -2.731264
      ESP Fit Center  509 is at  -6.413426 -1.440646 -2.731264
      ESP Fit Center  510 is at  -5.582042 -2.044682 -2.731264
      ESP Fit Center  511 is at  -4.554394 -2.044682 -2.731264
      ESP Fit Center  512 is at  -3.723010 -1.440646 -2.731264
      ESP Fit Center  513 is at  -4.108218 -0.463295 -3.434033
      ESP Fit Center  514 is at  -5.548218 -1.294679 -3.434033
      ESP Fit Center  515 is at  -4.588218 -1.294679 -3.434033
      ESP Fit Center  516 is at  -7.484943  0.486690  0.179575
      ESP Fit Center  517 is at  -7.004943 -0.344694  0.179575
      ESP Fit Center  518 is at  -7.870151  1.464041 -0.523194
      ESP Fit Center  519 is at  -8.187712  0.486690 -0.523194
      ESP Fit Center  520 is at  -7.870151 -0.490661 -0.523194
      ESP Fit Center  521 is at  -7.038767 -1.094697 -0.523194
      ESP Fit Center  522 is at  -7.484943  2.149459 -1.483194
      ESP Fit Center  523 is at  -8.187712  1.446690 -1.483194
      ESP Fit Center  524 is at  -8.444943  0.486690 -1.483194
      ESP Fit Center  525 is at  -8.187712 -0.473310 -1.483194
      ESP Fit Center  526 is at  -7.484943 -1.176079 -1.483194
      ESP Fit Center  527 is at  -7.870151  1.464041 -2.443194
      ESP Fit Center  528 is at  -8.187712  0.486690 -2.443194
      ESP Fit Center  529 is at  -7.870151 -0.490661 -2.443194
      ESP Fit Center  530 is at  -7.038767 -1.094697 -2.443194
      ESP Fit Center  531 is at  -7.484943  0.486690 -3.145963
      ESP Fit Center  532 is at  -3.556847  2.112354 -2.453618
      ESP Fit Center  533 is at  -4.259616  2.815123 -2.453618
      ESP Fit Center  534 is at  -5.219616  3.072354 -2.453618
      ESP Fit Center  535 is at  -6.179616  2.815123 -2.453618
      ESP Fit Center  536 is at  -3.556847  1.152354 -3.413618
      ESP Fit Center  537 is at  -3.874408  2.129705 -3.413618
      ESP Fit Center  538 is at  -4.705792  2.733741 -3.413618
      ESP Fit Center  539 is at  -5.733440  2.733741 -3.413618
      ESP Fit Center  540 is at  -6.564824  2.129705 -3.413618
      ESP Fit Center  541 is at  -6.882385  1.152354 -3.413618
      ESP Fit Center  542 is at  -3.874408  0.175003 -3.413618
      ESP Fit Center  543 is at  -4.259616  1.152354 -4.116387
      ESP Fit Center  544 is at  -4.739616  1.983738 -4.116387
      ESP Fit Center  545 is at  -5.699616  1.983738 -4.116387
      ESP Fit Center  546 is at  -6.179616  1.152354 -4.116387
      ESP Fit Center  547 is at  -5.699616  0.320970 -4.116387
      ESP Fit Center  548 is at  -4.739616  0.320970 -4.116387
      ESP Fit Center  549 is at  -5.219616  1.152354 -4.373618
      ESP Fit Center  550 is at  -3.236086  0.110392  1.154301
      ESP Fit Center  551 is at  -3.355752 -0.704502  0.191975
      ESP Fit Center  552 is at  -3.355752 -0.704502 -0.876125
      ESP Fit Center  553 is at  -5.046328  0.508442  2.445639
      ESP Fit Center  554 is at  -4.086328  0.508442  2.188408
      ESP Fit Center  555 is at  -6.006328  0.508442  2.188408
      ESP Fit Center  556 is at  -5.526328 -0.322942  2.188408
      ESP Fit Center  557 is at  -4.566328 -0.322942  2.188408
      ESP Fit Center  558 is at  -3.383559  0.508442  1.485639
      ESP Fit Center  559 is at  -6.709097  0.508442  1.485639
      ESP Fit Center  560 is at  -6.391536 -0.468909  1.485639
      ESP Fit Center  561 is at  -5.560152 -1.072945  1.485639
      ESP Fit Center  562 is at  -4.532504 -1.072945  1.485639
      ESP Fit Center  563 is at  -3.701120 -0.468909  1.485639
      ESP Fit Center  564 is at  -6.966328  0.508442  0.525639
      ESP Fit Center  565 is at  -6.709097 -0.451558  0.525639
      ESP Fit Center  566 is at  -6.006328 -1.154327  0.525639
      ESP Fit Center  567 is at  -5.046328 -1.411558  0.525639
      ESP Fit Center  568 is at  -4.086328 -1.154327  0.525639
      ESP Fit Center  569 is at  -2.777090 -0.499059 -0.436522
      ESP Fit Center  570 is at  -2.391882  2.141061 -1.396522
      ESP Fit Center  571 is at  -3.223266  2.745097 -1.396522
      ESP Fit Center  572 is at  -2.391882  0.186359 -1.396522
      ESP Fit Center  573 is at  -2.777090  1.163710 -2.099291
      ESP Fit Center  574 is at  -3.257090  1.995094 -2.099291
      ESP Fit Center  575 is at  -6.760761  1.384934  1.238096
      ESP Fit Center  576 is at  -7.464307  2.936951  0.339926
      ESP Fit Center  577 is at  -7.464307  1.891697  0.339926
      ESP Fit Center  578 is at  -6.118327  4.456248 -0.656968
      ESP Fit Center  579 is at  -6.978554  3.862477 -0.656968
      ESP Fit Center  580 is at  -7.464307  2.936951 -0.656968
      ESP Fit Center  581 is at  -4.802745  4.079912 -1.555138
      ESP Fit Center  582 is at  -5.885109  4.079912 -1.555138
      ESP Fit Center  583 is at  -6.760761  3.443714 -1.555138
      ESP Fit Center  584 is at  -7.095230  2.414324 -1.555138
      ESP Fit Center  585 is at  -4.857977  3.256014 -2.176691
      ESP Fit Center  586 is at  -5.829877  3.256014 -2.176691
      ESP Fit Center  587 is at  -5.563969  3.961640  3.201534
      ESP Fit Center  588 is at  -7.151420  2.044617  1.573259
      ESP Fit Center  589 is at  -5.310348  4.917127 -0.457167
      ESP Fit Center  590 is at  -5.128161  2.377385  3.802514
      ESP Fit Center  591 is at  -4.168161  2.377385  3.545283
      ESP Fit Center  592 is at  -4.648161  3.208769  3.545283
      ESP Fit Center  593 is at  -5.608161  3.208769  3.545283
      ESP Fit Center  594 is at  -6.088161  2.377385  3.545283
      ESP Fit Center  595 is at  -5.608161  1.546001  3.545283
      ESP Fit Center  596 is at  -4.648161  1.546001  3.545283
      ESP Fit Center  597 is at  -6.790930  2.377385  2.842514
      ESP Fit Center  598 is at  -6.473369  1.400034  2.842514
      ESP Fit Center  599 is at  -5.641985  0.795998  2.842514
      ESP Fit Center  600 is at  -4.614337  0.795998  2.842514
      ESP Fit Center  601 is at  -3.782953  1.400034  2.842514
      ESP Fit Center  602 is at  -6.790930  1.417385  1.882514
      ESP Fit Center  603 is at  -5.311157  4.667303  2.821706
      ESP Fit Center  604 is at  -6.271157  4.667303  2.821706
      ESP Fit Center  605 is at  -6.751157  3.835919  2.821706
      ESP Fit Center  606 is at  -5.277333  5.417306  2.118937
      ESP Fit Center  607 is at  -6.304981  5.417306  2.118937
      ESP Fit Center  608 is at  -7.136365  4.813270  2.118937
      ESP Fit Center  609 is at  -7.453926  3.835919  2.118937
      ESP Fit Center  610 is at  -5.791157  5.755919  1.158937
      ESP Fit Center  611 is at  -6.751157  5.498688  1.158937
      ESP Fit Center  612 is at  -7.453926  4.795919  1.158937
      ESP Fit Center  613 is at  -7.711157  3.835919  1.158937
      ESP Fit Center  614 is at  -7.453926  2.875919  1.158937
      ESP Fit Center  615 is at  -5.277333  5.417306  0.198937
      ESP Fit Center  616 is at  -6.304981  5.417306  0.198937
      ESP Fit Center  617 is at  -7.136365  4.813270  0.198937
      ESP Fit Center  618 is at  -7.453926  3.835919  0.198937
      ESP Fit Center  619 is at  -6.271157  4.667303 -0.503832
      ESP Fit Center  620 is at  -5.132304  5.540824  0.526641
      ESP Fit Center  621 is at  -2.563226  5.920636  0.132298
      ESP Fit Center  622 is at  -3.523226  6.177867  0.132298
      ESP Fit Center  623 is at  -4.483226  5.920636  0.132298
      ESP Fit Center  624 is at  -2.178018  5.235218 -0.827702
      ESP Fit Center  625 is at  -3.009402  5.839254 -0.827702
      ESP Fit Center  626 is at  -4.037050  5.839254 -0.827702
      ESP Fit Center  627 is at  -4.868434  5.235218 -0.827702
      ESP Fit Center  628 is at  -2.563226  4.257867 -1.530471
      ESP Fit Center  629 is at  -3.043226  5.089251 -1.530471
      ESP Fit Center  630 is at  -4.003226  5.089251 -1.530471
      ESP Fit Center  631 is at  -4.483226  4.257867 -1.530471
      ESP Fit Center  632 is at  -3.043226  3.426483 -1.530471
      ESP Fit Center  633 is at  -3.523226  4.257867 -1.787702
      ESP Fit Center  634 is at  -3.628062  4.426314  3.803699
      ESP Fit Center  635 is at  -2.668062  4.426314  3.546468
      ESP Fit Center  636 is at  -3.148062  5.257698  3.546468
      ESP Fit Center  637 is at  -4.108062  5.257698  3.546468
      ESP Fit Center  638 is at  -4.588062  4.426314  3.546468
      ESP Fit Center  639 is at  -4.108062  3.594930  3.546468
      ESP Fit Center  640 is at  -3.148062  3.594930  3.546468
      ESP Fit Center  641 is at  -2.282854  5.403665  2.843699
      ESP Fit Center  642 is at  -3.114238  6.007701  2.843699
      ESP Fit Center  643 is at  -4.141886  6.007701  2.843699
      ESP Fit Center  644 is at  -4.973270  5.403665  2.843699
      ESP Fit Center  645 is at  -2.668062  6.089083  1.883699
      ESP Fit Center  646 is at  -3.628062  6.346314  1.883699
      ESP Fit Center  647 is at  -4.588062  6.089083  1.883699
      ESP Fit Center  648 is at  -2.688419  2.734467  3.461384
      ESP Fit Center  649 is at  -3.174369  1.892777  3.239554
      ESP Fit Center  650 is at  -2.202469  1.892777  3.239554
      ESP Fit Center  651 is at  -3.229601  1.068879  2.618001
      ESP Fit Center  652 is at  -3.462819  0.692543  1.719831
      ESP Fit Center  653 is at  -2.425186  0.566551  1.719831
      ESP Fit Center  654 is at  -2.688419  2.734467 -1.018616
      ESP Fit Center  655 is at  -1.899220  2.292810  3.271432
      ESP Fit Center  656 is at   0.729551  4.209833  0.575057
      ESP Fit Center  657 is at  -1.146038  3.883109  3.842006
      ESP Fit Center  658 is at  -0.186038  3.883109  3.584775
      ESP Fit Center  659 is at  -0.666038  4.714493  3.584775
      ESP Fit Center  660 is at  -1.626038  4.714493  3.584775
      ESP Fit Center  661 is at  -2.106038  3.883109  3.584775
      ESP Fit Center  662 is at  -1.626038  3.051725  3.584775
      ESP Fit Center  663 is at  -0.666038  3.051725  3.584775
      ESP Fit Center  664 is at   0.516731  3.883109  2.882006
      ESP Fit Center  665 is at   0.199170  4.860460  2.882006
      ESP Fit Center  666 is at  -0.632214  5.464496  2.882006
      ESP Fit Center  667 is at  -1.659862  5.464496  2.882006
      ESP Fit Center  668 is at   0.516731  4.843109  1.922006
      ESP Fit Center  669 is at  -0.186038  5.545878  1.922006
      ESP Fit Center  670 is at  -1.146038  5.803109  1.922006
      ESP Fit Center  671 is at   0.429312  4.681403  0.169299
      ESP Fit Center  672 is at  -0.273457  5.384172  0.169299
      ESP Fit Center  673 is at  -1.233457  5.641403  0.169299
      ESP Fit Center  674 is at   0.429312  3.721403 -0.790701
      ESP Fit Center  675 is at   0.111751  4.698754 -0.790701
      ESP Fit Center  676 is at  -0.719633  5.302790 -0.790701
      ESP Fit Center  677 is at  -1.747281  5.302790 -0.790701
      ESP Fit Center  678 is at  -0.273457  3.721403 -1.493470
      ESP Fit Center  679 is at  -0.753457  4.552787 -1.493470
      ESP Fit Center  680 is at  -1.713457  4.552787 -1.493470
      ESP Fit Center  681 is at  -2.193457  3.721403 -1.493470
      ESP Fit Center  682 is at  -1.713457  2.890019 -1.493470
      ESP Fit Center  683 is at  -1.233457  3.721403 -1.750701
      ESP Fit Center  684 is at   0.085539  2.918214  3.332539
      ESP Fit Center  685 is at   1.143403  1.001948  2.666590
      ESP Fit Center  686 is at  -0.670866  1.411016  3.962780
      ESP Fit Center  687 is at   0.289134  1.411016  3.705549
      ESP Fit Center  688 is at  -0.190866  2.242400  3.705549
      ESP Fit Center  689 is at  -1.150866  2.242400  3.705549
      ESP Fit Center  690 is at  -1.630866  1.411016  3.705549
      ESP Fit Center  691 is at  -1.150866  0.579632  3.705549
      ESP Fit Center  692 is at  -0.190866  0.579632  3.705549
      ESP Fit Center  693 is at   0.991903  1.411016  3.002780
      ESP Fit Center  694 is at  -2.333635  1.411016  3.002780
      ESP Fit Center  695 is at  -2.016074  0.433665  3.002780
      ESP Fit Center  696 is at  -1.184690 -0.170371  3.002780
      ESP Fit Center  697 is at  -0.157042 -0.170371  3.002780
      ESP Fit Center  698 is at   0.674342  0.433665  3.002780
      ESP Fit Center  699 is at  -2.333635  0.451016  2.042780
      ESP Fit Center  700 is at   1.542980  2.384334  2.934260
      ESP Fit Center  701 is at   1.062980  3.215718  2.934260
      ESP Fit Center  702 is at   2.245749  2.384334  2.231491
      ESP Fit Center  703 is at   1.928188  3.361685  2.231491
      ESP Fit Center  704 is at   1.096804  3.965721  2.231491
      ESP Fit Center  705 is at   2.502980  2.384334  1.271491
      ESP Fit Center  706 is at   2.245749  3.344334  1.271491
      ESP Fit Center  707 is at   1.542980  4.047103  1.271491
      ESP Fit Center  708 is at   1.928188  3.361685  0.311491
      ESP Fit Center  709 is at   1.096804  3.965721  0.311491
      ESP Fit Center  710 is at  -0.036277  2.932444 -1.396617
      ESP Fit Center  711 is at  -1.994293  2.296246 -1.396617
      ESP Fit Center  712 is at  -1.063409  2.108546 -2.018170
      ESP Fit Center  713 is at  -1.549359  1.266856 -2.018170
      ESP Fit Center  714 is at  -0.577459  1.266856 -2.240000
      ESP Fit Center  715 is at   0.520660 -2.281163  0.534050
      ESP Fit Center  716 is at  -2.280218 -0.489703 -0.894518
      ESP Fit Center  717 is at  -2.022987 -1.449703 -0.894518
      ESP Fit Center  718 is at  -1.320218 -2.152472 -0.894518
      ESP Fit Center  719 is at  -0.360218 -2.409703 -0.894518
      ESP Fit Center  720 is at  -1.705426  0.487648 -1.854518
      ESP Fit Center  721 is at  -2.022987 -0.489703 -1.854518
      ESP Fit Center  722 is at  -1.705426 -1.467054 -1.854518
      ESP Fit Center  723 is at  -0.874042 -2.071090 -1.854518
      ESP Fit Center  724 is at   0.153606 -2.071090 -1.854518
      ESP Fit Center  725 is at  -0.840218  0.341681 -2.557287
      ESP Fit Center  726 is at  -1.320218 -0.489703 -2.557287
      ESP Fit Center  727 is at  -0.840218 -1.321087 -2.557287
      ESP Fit Center  728 is at   0.119782 -1.321087 -2.557287
      ESP Fit Center  729 is at  -0.360218 -0.489703 -2.814518
      ESP Fit Center  730 is at  -0.343672 -0.573353  2.780012
      ESP Fit Center  731 is at   0.616328 -0.573353  2.522781
      ESP Fit Center  732 is at  -1.303672 -0.573353  2.522781
      ESP Fit Center  733 is at  -0.823672 -1.404737  2.522781
      ESP Fit Center  734 is at   0.136328 -1.404737  2.522781
      ESP Fit Center  735 is at  -2.006441 -0.573353  1.820012
      ESP Fit Center  736 is at  -1.688880 -1.550704  1.820012
      ESP Fit Center  737 is at  -0.857496 -2.154740  1.820012
      ESP Fit Center  738 is at   0.170152 -2.154740  1.820012
      ESP Fit Center  739 is at   1.001536 -1.550704  1.820012
      ESP Fit Center  740 is at  -2.263672 -0.573353  0.860012
      ESP Fit Center  741 is at  -2.006441 -1.533353  0.860012
      ESP Fit Center  742 is at  -1.303672 -2.236122  0.860012
      ESP Fit Center  743 is at  -0.343672 -2.493353  0.860012
      ESP Fit Center  744 is at   0.616328 -2.236122  0.860012
      ESP Fit Center  745 is at   1.378472 -1.858598  1.564016
      ESP Fit Center  746 is at   2.338472 -1.858598  1.564016
      ESP Fit Center  747 is at   3.521241 -1.027214  0.861247
      ESP Fit Center  748 is at   1.344648 -2.608601  0.861247
      ESP Fit Center  749 is at   2.372296 -2.608601  0.861247
      ESP Fit Center  750 is at   3.203680 -2.004565  0.861247
      ESP Fit Center  751 is at   0.898472 -2.689983 -0.098753
      ESP Fit Center  752 is at   1.858472 -2.947214 -0.098753
      ESP Fit Center  753 is at   2.818472 -2.689983 -0.098753
      ESP Fit Center  754 is at   1.344648 -2.608601 -1.058753
      ESP Fit Center  755 is at   1.378472 -1.858598 -1.761522
      ESP Fit Center  756 is at   1.919381  0.382020  2.855569
      ESP Fit Center  757 is at   2.879381  0.382020  2.598338
      ESP Fit Center  758 is at   2.399381  1.213404  2.598338
      ESP Fit Center  759 is at   1.439381  1.213404  2.598338
      ESP Fit Center  760 is at   0.959381  0.382020  2.598338
      ESP Fit Center  761 is at   1.439381 -0.449364  2.598338
      ESP Fit Center  762 is at   2.399381 -0.449364  2.598338
      ESP Fit Center  763 is at   3.582150  0.382020  1.895569
      ESP Fit Center  764 is at   3.264589  1.359371  1.895569
      ESP Fit Center  765 is at   2.433205  1.963407  1.895569
      ESP Fit Center  766 is at   2.433205 -1.199367  1.895569
      ESP Fit Center  767 is at   3.264589 -0.595331  1.895569
      ESP Fit Center  768 is at   3.169947  2.712726  0.605493
      ESP Fit Center  769 is at   3.910947  2.920497 -0.302892
      ESP Fit Center  770 is at   2.979383  3.458336 -0.302892
      ESP Fit Center  771 is at   1.909597  3.570775 -0.302892
      ESP Fit Center  772 is at   3.428065  3.504540 -1.374406
      ESP Fit Center  773 is at   2.438349  3.786139 -1.374406
      ESP Fit Center  774 is at   1.413742  3.691195 -1.374406
      ESP Fit Center  775 is at   0.492621  3.232531 -1.374406
      ESP Fit Center  776 is at   2.979383  3.458336 -2.445920
      ESP Fit Center  777 is at   1.909597  3.570775 -2.445920
      ESP Fit Center  778 is at   0.886567  3.238372 -2.445920
      ESP Fit Center  779 is at   0.087182  2.518603 -2.445920
      ESP Fit Center  780 is at  -0.350336  1.535922 -2.445920
      ESP Fit Center  781 is at   0.886567 -1.242206 -2.445920
      ESP Fit Center  782 is at   1.909597 -1.574609 -2.445920
      ESP Fit Center  783 is at   3.169947  2.712726 -3.354305
      ESP Fit Center  784 is at   2.179998  2.977982 -3.354305
      ESP Fit Center  785 is at   1.190049  2.712726 -3.354305
      ESP Fit Center  786 is at   0.465355  1.988032 -3.354305
      ESP Fit Center  787 is at   0.200099  0.998083 -3.354305
      ESP Fit Center  788 is at   0.465355  0.008134 -3.354305
      ESP Fit Center  789 is at   1.190049 -0.716560 -3.354305
      ESP Fit Center  790 is at   3.251512  0.998083 -3.961269
      ESP Fit Center  791 is at   2.715755  1.926041 -3.961269
      ESP Fit Center  792 is at   1.644241  1.926041 -3.961269
      ESP Fit Center  793 is at   1.108484  0.998083 -3.961269
      ESP Fit Center  794 is at   1.644241  0.070125 -3.961269
      ESP Fit Center  795 is at   2.179998  0.998083 -4.174406
      ESP Fit Center  796 is at   6.059406  1.607102 -0.751372
      ESP Fit Center  797 is at   5.794433  2.366039 -0.862921
      ESP Fit Center  798 is at   4.963049  2.970075 -0.862921
      ESP Fit Center  799 is at   6.111994  2.348688 -1.822921
      ESP Fit Center  800 is at   5.409225  3.051457 -1.822921
      ESP Fit Center  801 is at   4.449225  3.308688 -1.822921
      ESP Fit Center  802 is at   4.963049  2.970075 -2.782921
      ESP Fit Center  803 is at   3.935401  2.970075 -2.782921
      ESP Fit Center  804 is at   4.929225  2.220072 -3.485690
      ESP Fit Center  805 is at   3.969225  2.220072 -3.485690
      ESP Fit Center  806 is at   4.449225  1.388688 -3.742921
      ESP Fit Center  807 is at   4.284036  0.648658  1.663453
      ESP Fit Center  808 is at   5.244036  0.648658  1.406222
      ESP Fit Center  809 is at   4.764036  1.480042  1.406222
      ESP Fit Center  810 is at   3.804036  1.480042  1.406222
      ESP Fit Center  811 is at   3.804036 -0.182726  1.406222
      ESP Fit Center  812 is at   4.764036 -0.182726  1.406222
      ESP Fit Center  813 is at   5.946805  0.648658  0.703453
      ESP Fit Center  814 is at   5.629244  1.626009  0.703453
      ESP Fit Center  815 is at   4.797860  2.230045  0.703453
      ESP Fit Center  816 is at   3.770212  2.230045  0.703453
      ESP Fit Center  817 is at   3.770212 -0.932729  0.703453
      ESP Fit Center  818 is at   4.797860 -0.932729  0.703453
      ESP Fit Center  819 is at   5.946805  1.608658 -0.256547
      ESP Fit Center  820 is at   2.201441 -1.780574 -2.422583
      ESP Fit Center  821 is at   2.308546 -1.786373 -2.915299
      ESP Fit Center  822 is at   3.457491  0.755014 -3.875299
      ESP Fit Center  823 is at   2.308546 -0.826373 -3.875299
      ESP Fit Center  824 is at   2.626107 -1.803724 -3.875299
      ESP Fit Center  825 is at   3.457491 -2.407760 -3.875299
      ESP Fit Center  826 is at   4.485139 -2.407760 -3.875299
      ESP Fit Center  827 is at   4.451315  0.005011 -4.578068
      ESP Fit Center  828 is at   3.491315  0.005011 -4.578068
      ESP Fit Center  829 is at   3.011315 -0.826373 -4.578068
      ESP Fit Center  830 is at   3.491315 -1.657757 -4.578068
      ESP Fit Center  831 is at   4.451315 -1.657757 -4.578068
      ESP Fit Center  832 is at   3.971315 -0.826373 -4.835299
      ESP Fit Center  833 is at   3.817930 -1.562540  0.573902
      ESP Fit Center  834 is at   3.337930 -2.393924  0.316671
      ESP Fit Center  835 is at   4.297930 -2.393924  0.316671
      ESP Fit Center  836 is at   3.304106 -3.143927 -0.386098
      ESP Fit Center  837 is at   4.331754 -3.143927 -0.386098
      ESP Fit Center  838 is at   2.155161 -2.522540 -1.346098
      ESP Fit Center  839 is at   2.857930 -3.225309 -1.346098
      ESP Fit Center  840 is at   3.817930 -3.482540 -1.346098
      ESP Fit Center  841 is at   2.472722 -2.539891 -2.306098
      ESP Fit Center  842 is at   3.304106 -3.143927 -2.306098
      ESP Fit Center  843 is at   6.083884 -1.163685  0.990189
      ESP Fit Center  844 is at   7.155398 -1.163685  0.777052
      ESP Fit Center  845 is at   6.619641 -0.235727  0.777052
      ESP Fit Center  846 is at   5.012370 -1.163685  0.777052
      ESP Fit Center  847 is at   5.548127 -2.091643  0.777052
      ESP Fit Center  848 is at   6.619641 -2.091643  0.777052
      ESP Fit Center  849 is at   8.063783 -1.163685  0.170088
      ESP Fit Center  850 is at   7.798527 -0.173736  0.170088
      ESP Fit Center  851 is at   7.073833  0.550958  0.170088
      ESP Fit Center  852 is at   5.093935 -2.878328  0.170088
      ESP Fit Center  853 is at   6.083884 -3.143584  0.170088
      ESP Fit Center  854 is at   7.073833 -2.878328  0.170088
      ESP Fit Center  855 is at   7.798527 -2.153634  0.170088
      ESP Fit Center  856 is at   6.883269  1.296568 -0.738297
      ESP Fit Center  857 is at   4.790453 -3.403974 -0.738297
      ESP Fit Center  858 is at   5.813483 -3.736377 -0.738297
      ESP Fit Center  859 is at   6.883269 -3.623938 -0.738297
      ESP Fit Center  860 is at   7.814833 -3.086099 -0.738297
      ESP Fit Center  861 is at   4.396507 -3.398133 -1.809811
      ESP Fit Center  862 is at   5.317628 -3.856797 -1.809811
      ESP Fit Center  863 is at   6.342235 -3.951741 -1.809811
      ESP Fit Center  864 is at   7.331951 -3.670142 -1.809811
      ESP Fit Center  865 is at   4.790453 -3.403974 -2.881325
      ESP Fit Center  866 is at   5.813483 -3.736377 -2.881325
      ESP Fit Center  867 is at   6.883269 -3.623938 -2.881325
      ESP Fit Center  868 is at   5.093935 -2.878328 -3.789710
      ESP Fit Center  869 is at   6.083884 -3.143584 -3.789710
      ESP Fit Center  870 is at   6.749252  1.616942 -1.541374
      ESP Fit Center  871 is at   6.783076  2.366945 -2.244143
      ESP Fit Center  872 is at   7.229252  2.448327 -3.204143
      ESP Fit Center  873 is at   6.269252  2.705558 -3.204143
      ESP Fit Center  874 is at   5.309252  2.448327 -3.204143
      ESP Fit Center  875 is at   6.783076  2.366945 -4.164143
      ESP Fit Center  876 is at   5.755428  2.366945 -4.164143
      ESP Fit Center  877 is at   4.924044  1.762909 -4.164143
      ESP Fit Center  878 is at   4.606483  0.785558 -4.164143
      ESP Fit Center  879 is at   6.749252  1.616942 -4.866912
      ESP Fit Center  880 is at   5.789252  1.616942 -4.866912
      ESP Fit Center  881 is at   5.032406  0.297561 -5.108475
      ESP Fit Center  882 is at   4.714845 -0.679790 -5.108475
      ESP Fit Center  883 is at   5.032406 -1.657141 -5.108475
      ESP Fit Center  884 is at   5.863790 -2.261177 -5.108475
      ESP Fit Center  885 is at   6.857614  0.151594 -5.811244
      ESP Fit Center  886 is at   5.897614  0.151594 -5.811244
      ESP Fit Center  887 is at   5.417614 -0.679790 -5.811244
      ESP Fit Center  888 is at   5.897614 -1.511174 -5.811244
      ESP Fit Center  889 is at   6.377614 -0.679790 -6.068475
      ESP Fit Center  890 is at   7.702624  2.235220 -2.676685
      ESP Fit Center  891 is at  10.175172  1.550578 -4.039971
      ESP Fit Center  892 is at   9.472403  2.253347 -4.039971
      ESP Fit Center  893 is at   8.512403  2.510578 -4.039971
      ESP Fit Center  894 is at   7.552403  2.253347 -4.039971
      ESP Fit Center  895 is at  10.175172  0.590578 -4.999971
      ESP Fit Center  896 is at   9.857611  1.567929 -4.999971
      ESP Fit Center  897 is at   9.026227  2.171965 -4.999971
      ESP Fit Center  898 is at   7.998579  2.171965 -4.999971
      ESP Fit Center  899 is at   7.167195  1.567929 -4.999971
      ESP Fit Center  900 is at   9.472403  0.590578 -5.702740
      ESP Fit Center  901 is at   8.992403  1.421962 -5.702740
      ESP Fit Center  902 is at   8.032403  1.421962 -5.702740
      ESP Fit Center  903 is at   7.552403  0.590578 -5.702740
      ESP Fit Center  904 is at   8.512403  0.590578 -5.959971
      ESP Fit Center  905 is at   8.525723  0.455446 -0.379733
      ESP Fit Center  906 is at   9.485723  0.455446 -0.636964
      ESP Fit Center  907 is at   9.005723  1.286830 -0.636964
      ESP Fit Center  908 is at   8.045723  1.286830 -0.636964
      ESP Fit Center  909 is at   9.005723 -0.375938 -0.636964
      ESP Fit Center  910 is at  10.188492  0.455446 -1.339733
      ESP Fit Center  911 is at   9.870931  1.432797 -1.339733
      ESP Fit Center  912 is at   9.039547  2.036833 -1.339733
      ESP Fit Center  913 is at   8.011899  2.036833 -1.339733
      ESP Fit Center  914 is at   7.180515  1.432797 -1.339733
      ESP Fit Center  915 is at  10.188492  1.415446 -2.299733
      ESP Fit Center  916 is at   9.485723  2.118215 -2.299733
      ESP Fit Center  917 is at   8.525723  2.375446 -2.299733
      ESP Fit Center  918 is at   7.565723  2.118215 -2.299733
      ESP Fit Center  919 is at   9.218207 -1.563316 -0.465800
      ESP Fit Center  920 is at  10.289721 -1.563316 -0.678937
      ESP Fit Center  921 is at   9.753964 -0.635358 -0.678937
      ESP Fit Center  922 is at   8.682450 -0.635358 -0.678937
      ESP Fit Center  923 is at   8.682450 -2.491274 -0.678937
      ESP Fit Center  924 is at   9.753964 -2.491274 -0.678937
      ESP Fit Center  925 is at  11.198106 -1.563316 -1.285901
      ESP Fit Center  926 is at  10.932850 -0.573367 -1.285901
      ESP Fit Center  927 is at  10.208156  0.151327 -1.285901
      ESP Fit Center  928 is at   8.228258 -3.277959 -1.285901
      ESP Fit Center  929 is at   9.218207 -3.543215 -1.285901
      ESP Fit Center  930 is at  10.208156 -3.277959 -1.285901
      ESP Fit Center  931 is at  10.932850 -2.553265 -1.285901
      ESP Fit Center  932 is at  11.805070 -1.563316 -2.194286
      ESP Fit Center  933 is at  11.581424 -0.511144 -2.194286
      ESP Fit Center  934 is at  10.949156  0.359098 -2.194286
      ESP Fit Center  935 is at   7.924776 -3.803605 -2.194286
      ESP Fit Center  936 is at   8.947806 -4.136008 -2.194286
      ESP Fit Center  937 is at  10.017592 -4.023569 -2.194286
      ESP Fit Center  938 is at  10.949156 -3.485730 -2.194286
      ESP Fit Center  939 is at  11.581424 -2.615488 -2.194286
      ESP Fit Center  940 is at  12.018207 -1.563316 -3.265800
      ESP Fit Center  941 is at  11.829129 -0.551839 -3.265800
      ESP Fit Center  942 is at  11.287432  0.323032 -3.265800
      ESP Fit Center  943 is at  10.466274  0.943141 -3.265800
      ESP Fit Center  944 is at   7.530830 -3.797764 -3.265800
      ESP Fit Center  945 is at  11.287432 -3.449664 -3.265800
      ESP Fit Center  946 is at  11.829129 -2.574793 -3.265800
      ESP Fit Center  947 is at  11.805070 -1.563316 -4.337314
      ESP Fit Center  948 is at  11.581424 -0.511144 -4.337314
      ESP Fit Center  949 is at  10.949156  0.359098 -4.337314
      ESP Fit Center  950 is at  10.932850 -0.573367 -5.245699
      ESP Fit Center  951 is at  10.208156  0.151327 -5.245699
      ESP Fit Center  952 is at  10.941998 -1.183826 -5.459566
      ESP Fit Center  953 is at   7.792566 -2.199039 -7.087841
      ESP Fit Center  954 is at   6.445580 -3.462834 -4.013147
      ESP Fit Center  955 is at   7.276964 -4.066870 -4.013147
      ESP Fit Center  956 is at   5.870788 -2.485483 -4.973147
      ESP Fit Center  957 is at   6.128019 -3.445483 -4.973147
      ESP Fit Center  958 is at   6.830788 -4.148252 -4.973147
      ESP Fit Center  959 is at   6.445580 -1.508132 -5.933147
      ESP Fit Center  960 is at   6.128019 -2.485483 -5.933147
      ESP Fit Center  961 is at   6.445580 -3.462834 -5.933147
      ESP Fit Center  962 is at   7.276964 -4.066870 -5.933147
      ESP Fit Center  963 is at   6.830788 -2.485483 -6.635916
      ESP Fit Center  964 is at   7.310788 -3.316867 -6.635916
      ESP Fit Center  965 is at  10.665352 -0.452060 -5.652213
      ESP Fit Center  966 is at   9.962583  0.250709 -5.652213
      ESP Fit Center  967 is at  10.665352 -1.412060 -6.612213
      ESP Fit Center  968 is at  10.347791 -0.434709 -6.612213
      ESP Fit Center  969 is at   9.516407  0.169327 -6.612213
      ESP Fit Center  970 is at   8.488759  0.169327 -6.612213
      ESP Fit Center  971 is at   7.657375 -0.434709 -6.612213
      ESP Fit Center  972 is at   9.962583 -1.412060 -7.314982
      ESP Fit Center  973 is at   9.482583 -0.580676 -7.314982
      ESP Fit Center  974 is at   8.522583 -0.580676 -7.314982
      ESP Fit Center  975 is at   8.042583 -1.412060 -7.314982
      ESP Fit Center  976 is at   8.522583 -2.243444 -7.314982
      ESP Fit Center  977 is at   9.002583 -1.412060 -7.572213
      ESP Fit Center  978 is at   7.608904 -4.419723 -4.703489
      ESP Fit Center  979 is at  11.175873 -5.233860 -4.703489
      ESP Fit Center  980 is at   7.608904 -4.419723 -5.771589
      ESP Fit Center  981 is at   8.258157 -5.233860 -5.771589
      ESP Fit Center  982 is at   9.196355 -5.685673 -5.771589
      ESP Fit Center  983 is at  10.237675 -5.685673 -5.771589
      ESP Fit Center  984 is at  11.175873 -5.233860 -5.771589
      ESP Fit Center  985 is at  11.295539 -4.418966 -6.733915
      ESP Fit Center  986 is at   7.817919 -4.751152 -6.223550
      ESP Fit Center  987 is at   8.520688 -5.453921 -6.223550
      ESP Fit Center  988 is at   9.480688 -5.711152 -6.223550
      ESP Fit Center  989 is at  11.143457 -3.791152 -7.183550
      ESP Fit Center  990 is at   8.135480 -2.813801 -7.183550
      ESP Fit Center  991 is at   7.817919 -3.791152 -7.183550
      ESP Fit Center  992 is at   8.135480 -4.768503 -7.183550
      ESP Fit Center  993 is at   8.966864 -5.372539 -7.183550
      ESP Fit Center  994 is at   9.994512 -5.372539 -7.183550
      ESP Fit Center  995 is at  10.825896 -4.768503 -7.183550
      ESP Fit Center  996 is at  10.440688 -3.791152 -7.886319
      ESP Fit Center  997 is at   9.960688 -2.959768 -7.886319
      ESP Fit Center  998 is at   9.000688 -2.959768 -7.886319
      ESP Fit Center  999 is at   8.520688 -3.791152 -7.886319
      ESP Fit Center 1000 is at   9.000688 -4.622536 -7.886319
      ESP Fit Center 1001 is at   9.960688 -4.622536 -7.886319
      ESP Fit Center 1002 is at   9.480688 -3.791152 -8.143550
      ESP Fit Center 1003 is at  11.727108 -3.135452 -3.558795
      ESP Fit Center 1004 is at  12.429877 -3.135452 -4.261564
      ESP Fit Center 1005 is at  12.112316 -2.158101 -4.261564
      ESP Fit Center 1006 is at  12.112316 -4.112803 -4.261564
      ESP Fit Center 1007 is at  12.687108 -3.135452 -5.221564
      ESP Fit Center 1008 is at  12.429877 -2.175452 -5.221564
      ESP Fit Center 1009 is at  11.727108 -1.472683 -5.221564
      ESP Fit Center 1010 is at  11.727108 -4.798221 -5.221564
      ESP Fit Center 1011 is at  12.429877 -4.095452 -5.221564
      ESP Fit Center 1012 is at  12.429877 -3.135452 -6.181564
      ESP Fit Center 1013 is at  12.112316 -2.158101 -6.181564
      ESP Fit Center 1014 is at  11.280932 -1.554065 -6.181564
      ESP Fit Center 1015 is at  12.112316 -4.112803 -6.181564
      ESP Fit Center 1016 is at  11.727108 -3.135452 -6.884333
      ESP Fit Center 1017 is at  11.247108 -2.304068 -6.884333
      ESP Fit Center 1018 is at  10.519570 -4.200583 -2.855457
      ESP Fit Center 1019 is at   9.079570 -5.031967 -2.855457
      ESP Fit Center 1020 is at  10.039570 -5.031967 -2.855457
      ESP Fit Center 1021 is at   7.896801 -4.200583 -3.558226
      ESP Fit Center 1022 is at   8.214362 -5.177934 -3.558226
      ESP Fit Center 1023 is at   9.045746 -5.781970 -3.558226
      ESP Fit Center 1024 is at  10.073394 -5.781970 -3.558226
      ESP Fit Center 1025 is at  10.904778 -5.177934 -3.558226
      ESP Fit Center 1026 is at   7.896801 -5.160583 -4.518226
      ESP Fit Center 1027 is at   8.599570 -5.863352 -4.518226
      ESP Fit Center 1028 is at   9.559570 -6.120583 -4.518226
      ESP Fit Center 1029 is at  10.519570 -5.863352 -4.518226
      ESP Fit Center 1030 is at  11.222339 -5.160583 -4.518226
      ESP Fit Center 1031 is at   9.045746 -5.781970 -5.478226
      ESP Fit Center 1032 is at  10.073394 -5.781970 -5.478226
      ESP Fit Center 1033 is at  -6.697142 -0.904670  0.319973
      ESP Fit Center 1034 is at  -7.002170 -1.412061 -0.555970
      ESP Fit Center 1035 is at  -2.952415  0.538198 -2.622460
      ESP Fit Center 1036 is at  -7.002170  2.488457 -2.622460
      ESP Fit Center 1037 is at  -7.002170 -1.412061 -2.622460
      ESP Fit Center 1038 is at  -7.278743  1.076079 -3.498403
      ESP Fit Center 1039 is at  -7.278743  0.000317 -3.498403
      ESP Fit Center 1040 is at  -6.697142 -0.904670 -3.498403
      ESP Fit Center 1041 is at  -5.963513 -0.356619 -4.083690
      ESP Fit Center 1042 is at  -4.930267 -0.356619 -4.083690
      ESP Fit Center 1043 is at  -6.293210 -1.877011 -0.691264
      ESP Fit Center 1044 is at  -5.334434 -2.314870 -0.691264
      ESP Fit Center 1045 is at  -4.291136 -2.164866 -0.691264
      ESP Fit Center 1046 is at  -3.494557 -1.474626 -0.691264
      ESP Fit Center 1047 is at  -2.908218 -0.463295 -1.771264
      ESP Fit Center 1048 is at  -6.685001 -1.895640 -1.771264
[...]
 1311 Fit      -0.009395
 1312 Fit      -0.016196
 1313 Fit      -0.019894
 1314 Fit      -0.019737
 1315 Fit      -0.016533
 1316 Fit      -0.012241
 1317 Fit       0.003983
 1318 Fit      -0.003398
 1319 Fit      -0.012914
 1320 Fit      -0.016504
 1321 Fit      -0.012429
 1322 Fit      -0.008552
 1323 Fit       0.001025
 1324 Fit       0.006333
 1325 Fit       0.002965
 1326 Fit       0.007585
 1327 Fit       0.007122
 1328 Fit       0.012589
 1329 Fit       0.007764
 1330 Fit       0.015371
 1331 Fit       0.008509
 1332 Fit       0.010496
 1333 Fit       0.013264
 1334 Fit       0.006110
 1335 Fit       0.009421
 1336 Fit       0.013637
 1337 Fit       0.008714
 1338 Fit      -0.004533
 1339 Fit       0.003632
 1340 Fit       0.006565
 1341 Fit       0.005248
 1342 Fit       0.016702
 1343 Fit       0.001151
 1344 Fit       0.005851
 1345 Fit       0.001679
 1346 Fit      -0.000322
 1347 Fit       0.005141
 1348 Fit       0.005371
 1349 Fit       0.008381
 1350 Fit       0.005625
 1351 Fit       0.008821
 1352 Fit       0.013074
 1353 Fit       0.012835
 1354 Fit       0.017072
 1355 Fit       0.009710
 1356 Fit       0.011075
 1357 Fit       0.014652
 1358 Fit       0.009733
 1359 Fit       0.002237
 1360 Fit       0.007674
 1361 Fit       0.003529
 1362 Fit      -0.008081
 1363 Fit      -0.015925
 1364 Fit      -0.011696
 1365 Fit       0.004267
 1366 Fit      -0.003523
 1367 Fit      -0.013071
 1368 Fit      -0.018638
 1369 Fit      -0.015196
 1370 Fit      -0.011490
 1371 Fit      -0.000351
 1372 Fit      -0.010850
 1373 Fit      -0.017756
 1374 Fit      -0.020393
 1375 Fit      -0.004045
 1376 Fit      -0.004503
 1377 Fit      -0.014689
 1378 Fit      -0.021553
 1379 Fit      -0.025992
 1380 Fit      -0.025874
 1381 Fit       0.008656
 1382 Fit      -0.003459
 1383 Fit      -0.014548
 1384 Fit      -0.022241
 1385 Fit      -0.029157
 1386 Fit      -0.007118
 1387 Fit      -0.016331
 1388 Fit      -0.022722
 1389 Fit      -0.000498
 1390 Fit      -0.009154
 1391 Fit      -0.014521
 1392 Fit       0.000656
 1393 Fit       0.014914
 1394 Fit       0.016560
 1395 Fit       0.016530
 1396 Fit       0.018409
 1397 Fit       0.017350
 1398 Fit       0.016192
 1399 Fit       0.015947
 1400 Fit       0.015936
 1401 Fit       0.015472
 1402 Fit       0.014859
 1403 Fit       0.014612
 1404 Fit       0.012645
 1405 Fit       0.017882
 1406 Fit       0.015248
 1407 Fit       0.014776
 1408 Fit       0.015649
 1409 Fit       0.016317
 1410 Fit       0.004607
 1411 Fit       0.009508
 1412 Fit       0.013117
 1413 Fit       0.003353
 1414 Fit       0.008664
 1415 Fit       0.011954
 1416 Fit       0.015707
 1417 Fit       0.008682
 1418 Fit       0.012033
 1419 Fit       0.014571
 1420 Fit       0.017389
 1421 Fit       0.014224
 1422 Fit       0.016398
 1423 Fit       0.018908
 1424 Fit      -0.004166
 1425 Fit      -0.000227
 1426 Fit       0.004012
 1427 Fit       0.001650
 1428 Fit       0.003836
 1429 Fit       0.007324
 1430 Fit       0.008939
 1431 Fit       0.008192
 1432 Fit       0.001575
 1433 Fit       0.006900
 1434 Fit       0.010181
 1435 Fit       0.013858
 1436 Fit      -0.018353
 1437 Fit      -0.016154
 1438 Fit      -0.009407
 1439 Fit      -0.026687
 1440 Fit      -0.021575
 1441 Fit      -0.017112
 1442 Fit      -0.012018
 1443 Fit      -0.003147
 1444 Fit      -0.031586
 1445 Fit      -0.025345
 1446 Fit      -0.021397
 1447 Fit      -0.019320
 1448 Fit      -0.018784
 1449 Fit      -0.016233
 1450 Fit      -0.009203
 1451 Fit      -0.027060
 1452 Fit      -0.020662
 1453 Fit      -0.017514
 1454 Fit      -0.017125
 1455 Fit      -0.018234
 1456 Fit      -0.018808
 1457 Fit      -0.018550
 1458 Fit      -0.013400
 1459 Fit      -0.003875
 1460 Fit      -0.020100
 1461 Fit      -0.009756
 1462 Fit      -0.012375
 1463 Fit      -0.015789
 1464 Fit      -0.015083
 1465 Fit      -0.016774
 1466 Fit      -0.012679
 1467 Fit      -0.003328
 1468 Fit      -0.010123
 1469 Fit      -0.005752
 1470 Fit       0.012825
 1471 Fit       0.011182
 1472 Fit      -0.006748
 1473 Fit       0.007679
 1474 Fit       0.004328
 1475 Fit       0.003466
 1476 Fit       0.014863
 1477 Fit       0.010600
 1478 Fit       0.008290
 1479 Fit       0.011466
 1480 Fit       0.010483
 1481 Fit       0.007602
 1482 Fit       0.006669
 1483 Fit       0.007969
 1484 Fit       0.011577
 1485 Fit       0.014870
 1486 Fit       0.015575
 1487 Fit       0.014491
 1488 Fit       0.009334
 1489 Fit       0.011175
 1490 Fit       0.012592
 1491 Fit       0.011740
 1492 Fit       0.010943
 1493 Fit       0.002375
 1494 Fit       0.000769
 1495 Fit       0.000057
 1496 Fit       0.002246
 1497 Fit       0.001496
 1498 Fit       0.004670
 1499 Fit       0.003328
 1500 Fit       0.002567
 1501 Fit       0.010727
 1502 Fit       0.008518
 1503 Fit       0.006732
 1504 Fit       0.005531
 1505 Fit       0.004515
 1506 Fit       0.003641
 1507 Fit       0.005980
 1508 Fit       0.007600
 1509 Fit       0.009736
 1510 Fit       0.009336
 1511 Fit       0.007913
 1512 Fit       0.006578
 1513 Fit       0.008204
 1514 Fit      -0.003581
 1515 Fit      -0.008843
 1516 Fit      -0.002378
 1517 Fit       0.000911
 1518 Fit      -0.000613
 1519 Fit      -0.003766
 1520 Fit       0.000239
 1521 Fit       0.000918
 1522 Fit       0.002875
 1523 Fit       0.002781
 1524 Fit       0.003321
 1525 Fit       0.002270
 1526 Fit       0.003417
 1527 Fit       0.004683
 1528 Fit      -0.007438
 1529 Fit      -0.005758
 1530 Fit      -0.007049
 1531 Fit      -0.002320
 1532 Fit      -0.000497
 1533 Fit      -0.000841
 1534 Fit      -0.002880
 1535 Fit       0.000939
 1536 Fit       0.000800
 1537 Fit       0.001371
 1538 Fit       0.001292
 1539 Fit       0.000355
 1540 Fit       0.001924
 1541 Fit      -0.003054
 1542 Fit      -0.004080
 1543 Fit      -0.004642
 1544 Fit      -0.005224
 1545 Fit      -0.010796
 1546 Fit      -0.013919
 1547 Fit      -0.005978
 1548 Fit      -0.004894
 1549 Fit      -0.009427
 1550 Fit      -0.007558
 1551 Fit      -0.006253
 1552 Fit      -0.006129
 1553 Fit      -0.007697
 1554 Fit      -0.006641
 1555 Fit      -0.006314
 1556 Fit      -0.000217
 1557 Fit       0.001179
 1558 Fit      -0.002867
 1559 Fit      -0.000560
 1560 Fit       0.001040
 1561 Fit       0.001681
 1562 Fit       0.000594
 1563 Fit      -0.003238
 1564 Fit      -0.001028
 1565 Fit       0.000361
 1566 Fit       0.000631
 1567 Fit      -0.000847
 1568 Fit      -0.004130
 1569 Fit      -0.002022
 1570 Fit      -0.001276
 1571 Fit      -0.002553
 1572 Fit      -0.004814
 1573 Fit      -0.003978
 1574 Fit      -0.008707
 1575 Fit      -0.010595
 1576 Fit      -0.005809
 1577 Fit      -0.004178
 1578 Fit      -0.011593
 1579 Fit      -0.006602
 1580 Fit      -0.004505
 1581 Fit      -0.004026
 1582 Fit      -0.017575
 1583 Fit      -0.010301
 1584 Fit      -0.006437
 1585 Fit      -0.004790
 1586 Fit      -0.004570
 1587 Fit      -0.013198
 1588 Fit      -0.008645
 1589 Fit      -0.006278
 1590 Fit      -0.005766
 1591 Fit      -0.014253
 1592 Fit      -0.014525
 1593 Fit      -0.017204
 1594 Fit      -0.019612
 1595 Fit      -0.018906
 1596 Fit      -0.009056
 1597 Fit      -0.009599
 1598 Fit      -0.010065
 1599 Fit      -0.011076
 1600 Fit      -0.011253
 1601 Fit      -0.010262
 1602 Fit      -0.006880
 1603 Fit      -0.007306
 1604 Fit      -0.007755
 1605 Fit      -0.007494
 1606 Fit      -0.006790
 1607 Fit      -0.006432
 1608 Fit      -0.006465
 1609 Fit      -0.003915
 1610 Fit       0.000773
 1611 Fit       0.000350
 1612 Fit      -0.000378
 1613 Fit      -0.001829
 1614 Fit      -0.002458
 1615 Fit      -0.000825
 1616 Fit      -0.000015
 1617 Fit      -0.000666
 1618 Fit      -0.004950
 1619 Fit      -0.003746
 1620 Fit      -0.001612
 1621 Fit      -0.000179
 1622 Fit       0.000413
 1623 Fit      -0.000770
 1624 Fit      -0.019010
 1625 Fit      -0.014163
 1626 Fit      -0.019760
 1627 Fit      -0.018741
 1628 Fit      -0.014081
 1629 Fit      -0.018680
 1630 Fit      -0.022430
 1631 Fit      -0.023780
 1632 Fit      -0.018418
 1633 Fit      -0.018384
 1634 Fit      -0.021014
 1635 Fit      -0.023887
 1636 Fit      -0.025431
 1637 Fit       0.005701
 1638 Fit       0.002708
 1639 Fit      -0.002534
 1640 Fit      -0.008111
 1641 Fit      -0.008795
 1642 Fit       0.002441
 1643 Fit      -0.000651
 1644 Fit       0.003950
 1645 Fit       0.004239
 1646 Fit       0.002430
 1647 Fit       0.001577
 1648 Fit      -0.000151
 1649 Fit       0.001485
 1650 Fit       0.000301
 1651 Fit       0.000459
 1652 Fit       0.000119
 1653 Fit      -0.002995
 1654 Fit      -0.003211
 1655 Fit      -0.001579
 1656 Fit       0.005811
 1657 Fit       0.003304
 1658 Fit       0.006921
 1659 Fit       0.004354
 1660 Fit       0.001864
 1661 Fit      -0.000476
 1662 Fit       0.005157
 1663 Fit       0.002773
 1664 Fit       0.000150
 1665 Fit      -0.003033
 1666 Fit       0.002138
 1667 Fit      -0.000595
 1668 Fit      -0.004024
 1669 Fit      -0.008954
 1670 Fit      -0.003175
 1671 Fit      -0.007090
 1672 Fit      -0.013564
 1673 Fit       0.006229
 1674 Fit       0.005434
 1675 Fit       0.005048
 1676 Fit       0.004600
 1677 Fit       0.003639
 1678 Fit       0.002673
 1679 Fit       0.000769
 1680 Fit       0.000940
 1681 Fit      -0.000444
 1682 Fit      -0.004617
 1683 Fit      -0.007428
 1684 Fit      -0.003788
 1685 Fit      -0.007020
 1686 Fit      -0.015602
 1687 Fit      -0.011137
 1688 Fit       0.005506
 1689 Fit       0.006136
 1690 Fit       0.007239
 1691 Fit       0.007018
 1692 Fit       0.006380
 1693 Fit       0.003677
 1694 Fit       0.001588
 1695 Fit       0.008005
 1696 Fit       0.007554
 1697 Fit       0.007631
 1698 Fit       0.008054
 1699 Fit       0.008626
 1700 Fit       0.007451
 1701 Fit       0.007249
 1702 Fit       0.007774
 1703 Fit       0.006660
 1704 Fit       0.006566
 1705 Fit      -0.002654
 1706 Fit      -0.007102
 1707 Fit      -0.008187
 1708 Fit      -0.011168
 1709 Fit       0.000504
 1710 Fit       0.005329
 1711 Fit       0.006119
 1712 Fit       0.006495
 1713 Fit       0.007829
 1714 Fit       0.010425
 1715 Fit       0.009223
 1716 Fit       0.008020
 1717 Fit       0.004933
 1718 Fit       0.009802
 1719 Fit       0.012544
 1720 Fit       0.010387
 1721 Fit       0.009321
 1722 Fit       0.008968
 1723 Fit       0.010503
 1724 Fit       0.009079
 1725 Fit       0.008582
 1726 Fit       0.008871
 1727 Fit       0.007895
 1728 Fit       0.007617
 1729 Fit      -0.001279
 1730 Fit       0.002503
 1731 Fit       0.003921
 1732 Fit       0.004806
 1733 Fit      -0.005119
 1734 Fit      -0.000295
 1735 Fit       0.001124
 1736 Fit      -0.015748
 1737 Fit      -0.005881
 1738 Fit      -0.004747
 1739 Fit      -0.011389
 1740 Fit      -0.012916
 1741 Fit       0.011712
 1742 Fit       0.013442
 1743 Fit       0.008217
 1744 Fit       0.011181
 1745 Fit       0.010538
 1746 Fit       0.006384
 1747 Fit       0.003069
 1748 Fit       0.006637
 1749 Fit       0.010214
 1750 Fit      -0.004392
 1751 Fit       0.003209
 1752 Fit       0.009227
 1753 Fit       0.012813
 1754 Fit       0.014199
 1755 Fit       0.001302
 1756 Fit       0.012873
 1757 Fit       0.012795
 1758 Fit       0.012587
 1759 Fit       0.010703
 1760 Fit       0.011723
 1761 Fit       0.010607
 1762 Fit       0.007219
 1763 Fit       0.007687
 1764 Fit       0.001221
 1765 Fit      -0.025753
 1766 Fit      -0.022034
 1767 Fit       0.001995
 1768 Fit       0.014603
 1769 Fit       0.001783
 1770 Fit       0.009948
 1771 Fit       0.013677
 1772 Fit       0.001364
 1773 Fit       0.005033
 1774 Fit       0.007858
 1775 Fit       0.010688
 1776 Fit      -0.010023
 1777 Fit      -0.001745
 1778 Fit       0.002801
 1779 Fit       0.005111
 1780 Fit       0.005306
 1781 Fit      -0.014208
 1782 Fit      -0.005568
 1783 Fit      -0.000455
 1784 Fit      -0.002446
 1785 Fit      -0.008413
 1786 Fit       0.015767
 1787 Fit       0.010186
 1788 Fit       0.013043
 1789 Fit       0.003822
 1790 Fit       0.007946
 1791 Fit       0.010890
 1792 Fit       0.013564
 1793 Fit      -0.004973
 1794 Fit       0.003065
 1795 Fit       0.007210
 1796 Fit       0.010311
 1797 Fit       0.013511
 1798 Fit       0.006799
 1799 Fit       0.010493
 1800 Fit       0.016148
 1801 Fit       0.015184
 1802 Fit       0.013716
 1803 Fit       0.013580
 1804 Fit       0.014387
 1805 Fit       0.013539
 1806 Fit       0.013479
 1807 Fit       0.014229
 1808 Fit       0.014112
 1809 Fit       0.013607
 1810 Fit       0.011928
 1811 Fit       0.014656
 1812 Fit       0.013385
 1813 Fit       0.014404
 1814 Fit       0.015203
 1815 Fit       0.013541
 1816 Fit       0.013043
 1817 Fit       0.012977
 1818 Fit       0.013518
 1819 Fit       0.013495
 1820 Fit       0.012692
 1821 Fit       0.006005
 1822 Fit       0.002931
 1823 Fit      -0.001145
 1824 Fit      -0.001408
 1825 Fit      -0.006068
 1826 Fit      -0.007354
 1827 Fit      -0.004537
 1828 Fit      -0.009284
 1829 Fit      -0.011478
 1830 Fit       0.002767
 1831 Fit      -0.005569
 1832 Fit      -0.010974
 1833 Fit      -0.014527
 1834 Fit      -0.018822
 1835 Fit       0.003835
 1836 Fit      -0.001001
 1837 Fit      -0.008392
 1838 Fit      -0.013493
 1839 Fit      -0.017412
 1840 Fit      -0.019850
 1841 Fit      -0.017632
 1842 Fit      -0.011544
 1843 Fit      -0.006933
 1844 Fit      -0.003825
 1845 Fit       0.009618
 1846 Fit       0.000791
 1847 Fit      -0.007019
 1848 Fit      -0.012575
 1849 Fit      -0.015670
 1850 Fit      -0.015566
 1851 Fit      -0.012739
 1852 Fit      -0.008606
 1853 Fit       0.003956
 1854 Fit      -0.002180
 1855 Fit      -0.009623
 1856 Fit      -0.012125
 1857 Fit      -0.008287
 1858 Fit      -0.005646
 1859 Fit       0.003848
 1860 Fit       0.010126
 1861 Fit       0.009361
 1862 Fit       0.006075
 1863 Fit       0.013706
 1864 Fit       0.009006
 1865 Fit       0.014376
 1866 Fit       0.007865
 1867 Fit       0.011826
 1868 Fit       0.005804
 1869 Fit       0.008605
 1870 Fit       0.007999
 1871 Fit      -0.002020
 1872 Fit       0.003638
 1873 Fit       0.006282
 1874 Fit       0.006577
 1875 Fit       0.013749
 1876 Fit      -0.000080
 1877 Fit       0.004816
 1878 Fit       0.004230
 1879 Fit      -0.000344
 1880 Fit       0.004257
 1881 Fit       0.000522
 1882 Fit       0.004696
 1883 Fit       0.005566
 1884 Fit       0.007690
 1885 Fit       0.005322
 1886 Fit       0.007990
 1887 Fit       0.011396
 1888 Fit       0.010164
 1889 Fit       0.013656
 1890 Fit       0.007999
 1891 Fit       0.009026
 1892 Fit       0.004880
 1893 Fit      -0.005335
 1894 Fit      -0.011690
 1895 Fit      -0.007671
 1896 Fit       0.004114
 1897 Fit      -0.002377
 1898 Fit      -0.009810
 1899 Fit      -0.014769
 1900 Fit      -0.011651
 1901 Fit      -0.007851
 1902 Fit       0.009117
 1903 Fit      -0.000017
 1904 Fit      -0.008226
 1905 Fit      -0.013797
 1906 Fit      -0.016053
 1907 Fit      -0.015482
 1908 Fit      -0.009122
 1909 Fit      -0.005484
 1910 Fit      -0.003235
 1911 Fit      -0.002631
 1912 Fit      -0.010826
 1913 Fit      -0.016604
 1914 Fit      -0.020280
 1915 Fit      -0.020459
 1916 Fit       0.004576
 1917 Fit      -0.004044
 1918 Fit      -0.012068
 1919 Fit      -0.018052
 1920 Fit      -0.023553
 1921 Fit      -0.003463
 1922 Fit      -0.010936
 1923 Fit      -0.016584
 1924 Fit      -0.021810
 1925 Fit      -0.000026
 1926 Fit      -0.007083
 1927 Fit      -0.012571
 1928 Fit      -0.016497
 1929 Fit       0.001480
 1930 Fit      -0.004187
 1931 Fit      -0.007005
 1932 Fit       0.004233
 1933 Fit       0.015057
 1934 Fit       0.013560
 1935 Fit       0.012069
 1936 Fit       0.014081
 1937 Fit       0.014558
 1938 Fit       0.014552
 1939 Fit       0.015876
 1940 Fit       0.014159
 1941 Fit       0.013353
 1942 Fit       0.013191
 1943 Fit       0.014131
 1944 Fit       0.013285
 1945 Fit       0.012678
 1946 Fit       0.012498
 1947 Fit       0.011889
 1948 Fit       0.016138
 1949 Fit       0.013860
 1950 Fit       0.013190
 1951 Fit       0.013963
 1952 Fit       0.014689
 1953 Fit       0.002860
 1954 Fit       0.007391
 1955 Fit       0.010406
 1956 Fit       0.006326
 1957 Fit       0.009660
 1958 Fit       0.003419
 1959 Fit       0.007770
 1960 Fit       0.010533
 1961 Fit       0.013140
 1962 Fit       0.008510
 1963 Fit       0.011023
 1964 Fit       0.013133
 1965 Fit       0.015376
 1966 Fit       0.012938
 1967 Fit       0.014748
 1968 Fit       0.017056
 1969 Fit      -0.002033
 1970 Fit       0.001752
 1971 Fit      -0.000523
 1972 Fit       0.002282
 1973 Fit       0.005258
 1974 Fit       0.006371
 1975 Fit       0.000533
 1976 Fit       0.005024
 1977 Fit       0.007782
 1978 Fit       0.010082
 1979 Fit      -0.016319
 1980 Fit      -0.013981
 1981 Fit      -0.009515
 1982 Fit      -0.018142
 1983 Fit      -0.014088
 1984 Fit      -0.010118
 1985 Fit      -0.004064
 1986 Fit      -0.021213
 1987 Fit      -0.018134
 1988 Fit      -0.016218
 1989 Fit      -0.014942
 1990 Fit      -0.012428
 1991 Fit      -0.006969
 1992 Fit      -0.023694
 1993 Fit      -0.018654
 1994 Fit      -0.016065
 1995 Fit      -0.015282
 1996 Fit      -0.015370
 1997 Fit      -0.015150
 1998 Fit      -0.014220
 1999 Fit      -0.010288
 2000 Fit      -0.003440
 2001 Fit      -0.018284
 2002 Fit      -0.012951
 2003 Fit      -0.010650
 2004 Fit      -0.011004
 2005 Fit      -0.012289
 2006 Fit      -0.014004
 2007 Fit      -0.013437
 2008 Fit      -0.013904
 2009 Fit      -0.011376
 2010 Fit      -0.005881
 2011 Fit      -0.010503
 2012 Fit      -0.008297
 2013 Fit      -0.010939
 2014 Fit      -0.008860
 2015 Fit      -0.010578
 2016 Fit      -0.008076
 2017 Fit      -0.001670
 2018 Fit      -0.004545
 2019 Fit      -0.001300
 2020 Fit       0.011426
 2021 Fit       0.010191
 2022 Fit       0.010248
 2023 Fit       0.010156
 2024 Fit       0.000227
 2025 Fit      -0.000686
 2026 Fit       0.011308
 2027 Fit       0.006856
 2028 Fit       0.005010
 2029 Fit       0.012644
 2030 Fit       0.009624
 2031 Fit       0.007951
 2032 Fit       0.010487
 2033 Fit       0.003378
 2034 Fit       0.007093
 2035 Fit       0.007591
 2036 Fit       0.010181
 2037 Fit       0.012592
 2038 Fit       0.013319
 2039 Fit       0.012667
 2040 Fit       0.008520
 2041 Fit       0.009845
 2042 Fit       0.011058
 2043 Fit       0.010674
 2044 Fit       0.009848
 2045 Fit       0.001046
 2046 Fit      -0.000802
 2047 Fit       0.004250
 2048 Fit       0.002610
 2049 Fit       0.002005
 2050 Fit       0.001496
 2051 Fit       0.000889
 2052 Fit       0.000606
 2053 Fit       0.001928
 2054 Fit       0.002047
 2055 Fit       0.003406
 2056 Fit       0.004453
 2057 Fit       0.007325
 2058 Fit       0.006275
 2059 Fit       0.004581
 2060 Fit       0.003644
 2061 Fit       0.002958
 2062 Fit       0.003767
 2063 Fit       0.009519
 2064 Fit       0.007774
 2065 Fit       0.006304
 2066 Fit       0.005267
 2067 Fit       0.004438
 2068 Fit       0.003823
 2069 Fit       0.005623
 2070 Fit       0.007006
 2071 Fit       0.008599
 2072 Fit       0.008175
 2073 Fit       0.006934
 2074 Fit       0.005896
 2075 Fit       0.007203
 2076 Fit      -0.006089
 2077 Fit      -0.004145
 2078 Fit      -0.001459
 2079 Fit      -0.003677
 2080 Fit      -0.000900
 2081 Fit      -0.000826
 2082 Fit       0.001213
 2083 Fit       0.000546
 2084 Fit      -0.000515
 2085 Fit       0.001181
 2086 Fit       0.002536
 2087 Fit       0.002757
 2088 Fit       0.003930
 2089 Fit       0.002166
 2090 Fit       0.003353
 2091 Fit      -0.009826
 2092 Fit      -0.007792
 2093 Fit      -0.004857
 2094 Fit      -0.002558
 2095 Fit      -0.002582
 2096 Fit      -0.004343
 2097 Fit      -0.002379
 2098 Fit      -0.000721
 2099 Fit       0.000102
 2100 Fit       0.000030
 2101 Fit      -0.000831
 2102 Fit       0.001386
 2103 Fit       0.001327
 2104 Fit       0.001006
 Job cpu time:       0 days  0 hours  4 minutes 46.6 seconds.
 Normal termination of Gaussian 16 at Sat Jul  8 20:49:09 2023.
