 Copyright (c) 1988-2019, Gaussian, Inc.  All Rights Reserved.
  
 This is part of the Gaussian(R) 16 program.  It is based on
 the Gaussian(R) 09 system (copyright 2009, Gaussian, Inc.),
 the Gaussian(R) 03 system (copyright 2003, Gaussian, Inc.),
 the Gaussian(R) 98 system (copyright 1998, Gaussian, Inc.),
 the Gaussian(R) 94 system (copyright 1995, Gaussian, Inc.),
 the Gaussian 92(TM) system (copyright 1992, Gaussian, Inc.),
 the Gaussian 90(TM) system (copyright 1990, Gaussian, Inc.),
 the Gaussian 88(TM) system (copyright 1988, Gaussian, Inc.),
 the Gaussian 86(TM) system (copyright 1986, Carnegie Mellon
 University), and the Gaussian 82(TM) system (copyright 1983,
 Carnegie Mellon University). Gaussian is a federally registered
 trademark of Gaussian, Inc.
 Cite this work as:
 Gaussian 16, Revision C.01,
 M. J. Frisch, G. W. Trucks, H. B. Schlegel, G. E. Scuseria, 
 M. A. Robb, J. R. Cheeseman, G. Scalmani, V. Barone, 
 G. A. Petersson, H. Nakatsuji, X. Li, M. Caricato, A. V. Marenich, 
 J. Bloino, B. G. Janesko, R. Gomperts, B. Mennucci, H. P. Hratchian, 
 J. V. Ortiz, A. F. Izmaylov, J. L. Sonnenberg, D. Williams-Young, 
 F. Ding, F. Lipparini, F. Egidi, J. Goings, B. Peng, A. Petrone, 
 T. Henderson, D. Ranasinghe, V. G. Zakrzewski, J. Gao, N. Rega, 
 G. Zheng, W. Liang, M. Hada, M. Ehara, K. Toyota, R. Fukuda, 
 J. Hasegawa, M. Ishida, T. Nakajima, Y. Honda, O. Kitao, H. Nakai, 
 T. Vreven, K. Throssell, J. A. Montgomery, Jr., J. E. Peralta, 
 F. Ogliaro, M. J. Bearpark, J. J. Heyd, E. N. Brothers, K. N. Kudin, 
 V. N. Staroverov, T. A. Keith, R. Kobayashi, J. Normand, 
 K. Raghavachari, A. P. Rendell, J. C. Burant, S. S. Iyengar, 
 J. Tomasi, M. Cossi, J. M. Millam, M. Klene, C. Adamo, R. Cammi, 
 J. W. Ochterski, R. L. Martin, K. Morokuma, O. Farkas, 
 J. B. Foresman, and D. J. Fox, Gaussian, Inc., Wallingford CT, 2019.
 
 ******************************************
 Gaussian 16:  EM64L-G16RevC.01  3-Jul-2019
                 8-Jul-2023 
 ******************************************
 ----------------------------------------------------------------------
 #P HF/6-31G(d) SCF(Conver=8,XQC,MaxConventionalCycles=64,MaxCycle=128)
  NoSymm Test Pop=mk IOp(6/33=2) GFInput GFPrint
 ----------------------------------------------------------------------
 1/38=1,172=1/1;
 2/12=2,15=1,17=6,18=5,40=1/2;
 3/5=1,6=6,7=1,11=9,24=110,25=1,30=1/1,2,3;
 4//1;
 5/5=2,6=8,7=128,8=3,13=1,38=5,85=64/2,8;
 6/7=2,8=2,9=2,10=2,15=8,20=1,28=1,33=2/1,2;
 99/5=1,9=1/99;
 -------------------------------------------------
 MEP step - Input generated by PyRED DVE-DMDS-OPLS
 -------------------------------------------------
 Symbolic Z-matrix:
 Charge =  0 Multiplicity = 1
 C                    -3.94943   6.73535  -3.03898 
 H                    -3.78132   6.67753  -1.96897 
 H                    -3.09286   7.2224   -3.49209 
 H                    -4.82419   7.3577   -3.20293 
 C                    -4.16307   5.36131  -3.65984 
 H                    -5.01265   4.86237  -3.19611 
 H                    -4.38373   5.46748  -4.71441 
 O                    -3.02997   4.54054  -3.58998 
 C                    -2.77107   3.94153  -2.35724 
 H                    -3.64381   3.38712  -2.01487 
 H                    -2.52548   4.67434  -1.59363 
 C                    -1.58318   3.01327  -2.55552 
 H                    -1.81266   2.27892  -3.32199 
 H                    -0.73637   3.59421  -2.89536 
 O                    -1.20657   2.39283  -1.35765 
 C                    -1.85819   1.19434  -1.04856 
 H                    -1.76592   0.48814  -1.86997 
 H                    -2.91876   1.36538  -0.86955 
 C                    -1.24957   0.59105   0.20246 
 H                    -1.90151  -0.2018    0.5506 
 H                    -1.19562   1.35018   0.97928 
 O                     0.        0.        0. 
 C                     1.11592   0.84772   0. 
 H                     1.1086    1.4601    0.90176 
 H                     1.10228   1.51     -0.85435 
 C                     2.3757    0.        0. 
 H                     2.35222  -0.69869   0.82786 
 H                     3.23163   0.6498    0.14424 
 S                     2.72663  -0.9015   -1.53888 
 C                     1.62115  -2.34635  -1.41406 
 H                     1.80144  -2.83163  -0.46285 
 H                     0.59335  -2.02261  -1.43787 
 C                     1.91396  -3.29447  -2.57339 
 H                     2.95215  -3.59967  -2.57822 
 H                     1.7295   -2.79408  -3.51635 
 S                     0.83893  -4.75926  -2.62677 
 C                     1.36921  -5.72541  -1.18057 
 H                     0.69783  -6.57505  -1.1675 
 H                     1.18272  -5.1578   -0.27689 
 C                     2.81766  -6.21217  -1.16303 
 H                     3.50063  -5.37289  -1.14635 
 H                     2.96708  -6.77014  -0.24436 
 S                     3.20128  -7.30894  -2.5639 
 C                     4.69992  -8.13284  -1.94698 
 H                     4.4832   -8.58816  -0.98684 
 H                     4.87367  -8.94122  -2.64754 
 C                     5.93814  -7.24512  -1.85834 
 H                     5.80504  -6.44022  -1.14364 
 H                     6.79442  -7.83154  -1.53695 
 H                     6.16823  -6.80461  -2.82151 
 
 ITRead=  0  0  0  0  0  0  0  0  0  0  0  0  0  0  0  0  0  0  0  0
 ITRead=  0  0  0  0  0  0  0  0  0  0  0  0  0  0  0  0  0  0  0  0
 ITRead=  0  0  0  0  0  0  0  0  0  0
 MicOpt= -1 -1 -1 -1 -1 -1 -1 -1 -1 -1 -1 -1 -1 -1 -1 -1 -1 -1 -1 -1
 MicOpt= -1 -1 -1 -1 -1 -1 -1 -1 -1 -1 -1 -1 -1 -1 -1 -1 -1 -1 -1 -1
 MicOpt= -1 -1 -1 -1 -1 -1 -1 -1 -1 -1
 NAtoms=     50 NQM=       50 NQMF=       0 NMMI=      0 NMMIF=      0
                NMic=       0 NMicF=      0.
                          Input orientation:                          
 ---------------------------------------------------------------------
 Center     Atomic      Atomic             Coordinates (Angstroms)
 Number     Number       Type             X           Y           Z
 ---------------------------------------------------------------------
      1          6           0       -3.949434    6.735352   -3.038982
      2          1           0       -3.781315    6.677534   -1.968972
      3          1           0       -3.092856    7.222398   -3.492095
      4          1           0       -4.824186    7.357700   -3.202928
      5          6           0       -4.163065    5.361311   -3.659836
      6          1           0       -5.012649    4.862371   -3.196112
      7          1           0       -4.383729    5.467483   -4.714405
      8          8           0       -3.029970    4.540537   -3.589979
      9          6           0       -2.771067    3.941529   -2.357243
     10          1           0       -3.643809    3.387115   -2.014869
     11          1           0       -2.525481    4.674340   -1.593627
     12          6           0       -1.583175    3.013265   -2.555520
     13          1           0       -1.812660    2.278917   -3.321990
     14          1           0       -0.736367    3.594210   -2.895355
     15          8           0       -1.206572    2.392830   -1.357648
     16          6           0       -1.858190    1.194343   -1.048563
     17          1           0       -1.765915    0.488140   -1.869971
     18          1           0       -2.918758    1.365375   -0.869548
     19          6           0       -1.249571    0.591053    0.202463
     20          1           0       -1.901513   -0.201803    0.550601
     21          1           0       -1.195617    1.350183    0.979280
     22          8           0        0.000000    0.000000    0.000000
     23          6           0        1.115918    0.847721    0.000000
     24          1           0        1.108604    1.460104    0.901757
     25          1           0        1.102280    1.509998   -0.854345
     26          6           0        2.375696    0.000000    0.000000
     27          1           0        2.352218   -0.698694    0.827856
     28          1           0        3.231627    0.649797    0.144243
     29         16           0        2.726632   -0.901500   -1.538884
     30          6           0        1.621153   -2.346347   -1.414064
     31          1           0        1.801442   -2.831628   -0.462854
     32          1           0        0.593353   -2.022609   -1.437872
     33          6           0        1.913958   -3.294472   -2.573393
     34          1           0        2.952147   -3.599665   -2.578216
     35          1           0        1.729499   -2.794079   -3.516354
     36         16           0        0.838934   -4.759258   -2.626770
     37          6           0        1.369206   -5.725405   -1.180569
     38          1           0        0.697834   -6.575054   -1.167496
     39          1           0        1.182720   -5.157800   -0.276892
     40          6           0        2.817656   -6.212174   -1.163028
     41          1           0        3.500635   -5.372894   -1.146349
     42          1           0        2.967084   -6.770143   -0.244356
     43         16           0        3.201277   -7.308939   -2.563895
     44          6           0        4.699923   -8.132840   -1.946978
     45          1           0        4.483198   -8.588157   -0.986838
     46          1           0        4.873669   -8.941223   -2.647541
     47          6           0        5.938139   -7.245124   -1.858341
     48          1           0        5.805038   -6.440224   -1.143642
     49          1           0        6.794420   -7.831543   -1.536945
     50          1           0        6.168227   -6.804611   -2.821507
 ---------------------------------------------------------------------
 Stoichiometry    C14H30O3S3
 Framework group  C1[X(C14H30O3S3)]
 Standard basis: 6-31G(d) (6D, 7F)
   372 basis functions,   752 primitive gaussians,   372 cartesian basis functions
    93 alpha electrons       93 beta electrons
 Requested convergence on RMS density matrix=1.00D-08 within  64 cycles.
 Requested convergence on MAX density matrix=1.00D-06.
 Requested convergence on             energy=1.00D-06.
 SCF Done:  E(RHF) =  -1964.69116702     A.U. after   13 cycles
            NFock= 13  Conv=0.56D-08     -V/T= 2.0006
 Mulliken charges:
     1  C   -0.504573
     2  H    0.163210
     3  H    0.176228
     4  H    0.160220
     5  C    0.016256
     6  H    0.138925
     7  H    0.173591
     8  O   -0.633488
     9  C    0.008024
    10  H    0.136255
    11  H    0.152378
    12  C    0.001388
    13  H    0.159850
    14  H    0.185999
    15  O   -0.642290
    16  C    0.001459
    17  H    0.162127
    18  H    0.136852
    19  C    0.001068
    20  H    0.172733
    21  H    0.155310
    22  O   -0.635408
    23  C    0.032140
    24  H    0.141587
    25  H    0.189303
    26  C   -0.498550
    27  H    0.195908
    28  H    0.197752
    29  S    0.106722
    30  C   -0.449953
    31  H    0.179690
    32  H    0.233273
    33  C   -0.505253
    34  H    0.211927
    35  H    0.216044
    36  S    0.137869
    37  C   -0.487983
    38  H    0.215832
    39  H    0.198972
    40  C   -0.463333
    41  H    0.195059
    42  H    0.189432
    43  S    0.140307
    44  C   -0.480523
    45  H    0.184559
    46  H    0.198619
    47  C   -0.476451
    48  H    0.163581
    49  H    0.165944
    50  H    0.181412
 Sum of Mulliken charges =  -0.00000
 Dipole moment (field-independent basis, Debye):
    X=             -1.2992    Y=              1.7602    Z=              4.1111  Tot=              4.6569
 Quadrupole moment (field-independent basis, Debye-Ang):
   XX=           -132.4763   YY=           -143.4192   ZZ=           -163.1076
   XY=            -18.0793   XZ=              8.8068   YZ=            -17.6915
 Traceless Quadrupole moment (field-independent basis, Debye-Ang):
   XX=             13.8581   YY=              2.9151   ZZ=            -16.7732
   XY=            -18.0793   XZ=              8.8068   YZ=            -17.6915
 Octapole moment (field-independent basis, Debye-Ang**2):
  XXX=           -342.9095  YYY=            649.2848  ZZZ=            845.6430  XYY=            -53.9763
  XXY=            184.5666  XXZ=            248.9589  XZZ=           -133.3225  YZZ=            272.4458
  YYZ=            356.3525  XYZ=             11.2989
 Hexadecapole moment (field-independent basis, Debye-Ang**3):
 XXXX=          -7082.1179 YYYY=         -19214.3498 ZZZZ=          -4329.8742 XXXY=           4620.7760
 XXXZ=            322.5895 YYYX=           4164.4542 YYYZ=          -1636.8355 ZZZX=            284.9191
 ZZZY=          -1070.1512 XXYY=          -3601.6311 XXZZ=          -1897.9945 YYZZ=          -4388.6978
 XXYZ=           -356.9999 YYXZ=            222.7122 ZZXY=           1773.1484
 Merz-Kollman atomic radii used.
 Atom Element Radius
    1     6    1.50
    2     1    1.20
    3     1    1.20
    4     1    1.20
    5     6    1.50
    6     1    1.20
    7     1    1.20
    8     8    1.40
    9     6    1.50
   10     1    1.20
   11     1    1.20
   12     6    1.50
   13     1    1.20
   14     1    1.20
   15     8    1.40
   16     6    1.50
   17     1    1.20
   18     1    1.20
   19     6    1.50
   20     1    1.20
   21     1    1.20
   22     8    1.40
   23     6    1.50
   24     1    1.20
   25     1    1.20
   26     6    1.50
   27     1    1.20
   28     1    1.20
   29    16    1.75
   30     6    1.50
   31     1    1.20
   32     1    1.20
   33     6    1.50
   34     1    1.20
   35     1    1.20
   36    16    1.75
   37     6    1.50
   38     1    1.20
   39     1    1.20
   40     6    1.50
   41     1    1.20
   42     1    1.20
   43    16    1.75
   44     6    1.50
   45     1    1.20
   46     1    1.20
   47     6    1.50
   48     1    1.20
   49     1    1.20
   50     1    1.20
 Generate VDW surfaces: Layer= 4 Dens= 1 Start= 1.400 Inc= 0.200
            Electrostatic Properties Using The SCF Density.


       Atomic Center    1 is at  -3.949434  6.735352 -3.038982
       Atomic Center    2 is at  -3.781315  6.677534 -1.968972
       Atomic Center    3 is at  -3.092856  7.222398 -3.492095
       Atomic Center    4 is at  -4.824186  7.357700 -3.202928
       Atomic Center    5 is at  -4.163065  5.361311 -3.659836
       Atomic Center    6 is at  -5.012649  4.862371 -3.196112
       Atomic Center    7 is at  -4.383729  5.467483 -4.714405
       Atomic Center    8 is at  -3.029970  4.540537 -3.589979
       Atomic Center    9 is at  -2.771067  3.941529 -2.357243
       Atomic Center   10 is at  -3.643809  3.387115 -2.014869
       Atomic Center   11 is at  -2.525481  4.674340 -1.593627
       Atomic Center   12 is at  -1.583175  3.013265 -2.555520
       Atomic Center   13 is at  -1.812660  2.278917 -3.321990
       Atomic Center   14 is at  -0.736367  3.594210 -2.895355
       Atomic Center   15 is at  -1.206572  2.392830 -1.357648
       Atomic Center   16 is at  -1.858190  1.194343 -1.048563
       Atomic Center   17 is at  -1.765915  0.488140 -1.869971
       Atomic Center   18 is at  -2.918758  1.365375 -0.869548
       Atomic Center   19 is at  -1.249571  0.591053  0.202463
       Atomic Center   20 is at  -1.901513 -0.201803  0.550601
       Atomic Center   21 is at  -1.195617  1.350183  0.979280
       Atomic Center   22 is at   0.000000  0.000000  0.000000
       Atomic Center   23 is at   1.115918  0.847721  0.000000
       Atomic Center   24 is at   1.108604  1.460104  0.901757
       Atomic Center   25 is at   1.102280  1.509998 -0.854345
       Atomic Center   26 is at   2.375696  0.000000  0.000000
       Atomic Center   27 is at   2.352218 -0.698694  0.827856
       Atomic Center   28 is at   3.231627  0.649797  0.144243
       Atomic Center   29 is at   2.726632 -0.901500 -1.538884
       Atomic Center   30 is at   1.621153 -2.346347 -1.414064
       Atomic Center   31 is at   1.801442 -2.831628 -0.462854
       Atomic Center   32 is at   0.593353 -2.022609 -1.437872
       Atomic Center   33 is at   1.913958 -3.294472 -2.573393
       Atomic Center   34 is at   2.952147 -3.599665 -2.578216
       Atomic Center   35 is at   1.729499 -2.794079 -3.516354
       Atomic Center   36 is at   0.838934 -4.759258 -2.626770
       Atomic Center   37 is at   1.369206 -5.725405 -1.180569
       Atomic Center   38 is at   0.697834 -6.575054 -1.167496
       Atomic Center   39 is at   1.182720 -5.157800 -0.276892
       Atomic Center   40 is at   2.817656 -6.212174 -1.163028
       Atomic Center   41 is at   3.500635 -5.372894 -1.146349
       Atomic Center   42 is at   2.967084 -6.770143 -0.244356
       Atomic Center   43 is at   3.201277 -7.308939 -2.563895
       Atomic Center   44 is at   4.699923 -8.132840 -1.946978
       Atomic Center   45 is at   4.483198 -8.588157 -0.986838
       Atomic Center   46 is at   4.873669 -8.941223 -2.647541
       Atomic Center   47 is at   5.938139 -7.245124 -1.858341
       Atomic Center   48 is at   5.805038 -6.440224 -1.143642
       Atomic Center   49 is at   6.794420 -7.831543 -1.536945
       Atomic Center   50 is at   6.168227 -6.804611 -2.821507
      ESP Fit Center   51 is at  -2.419485  7.718590 -1.988982
      ESP Fit Center   52 is at  -3.193938  8.389657 -1.988982
      ESP Fit Center   53 is at  -4.208255  8.535494 -1.988982
      ESP Fit Center   54 is at  -5.694419  6.222978 -1.988982
      ESP Fit Center   55 is at  -3.696307  8.820041 -3.038982
      ESP Fit Center   56 is at  -4.474434  7.644679 -4.857635
      ESP Fit Center   57 is at  -3.781315  6.677534 -0.288972
      ESP Fit Center   58 is at  -2.793836  6.677534 -0.609823
      ESP Fit Center   59 is at  -3.476167  7.616683 -0.609823
      ESP Fit Center   60 is at  -4.580202  7.257960 -0.609823
      ESP Fit Center   61 is at  -4.580202  6.097108 -0.609823
      ESP Fit Center   62 is at  -3.476167  5.738385 -0.609823
      ESP Fit Center   63 is at  -2.183540  6.677534 -1.449823
      ESP Fit Center   64 is at  -2.557348  7.704564 -1.449823
      ESP Fit Center   65 is at  -3.503864  8.251035 -1.449823
      ESP Fit Center   66 is at  -4.580202  8.061248 -1.449823
      ESP Fit Center   67 is at  -5.282732  7.224005 -1.449823
      ESP Fit Center   68 is at  -5.282732  6.131063 -1.449823
      ESP Fit Center   69 is at  -4.580202  5.293820 -1.449823
      ESP Fit Center   70 is at  -2.105377  7.222398 -2.132946
      ESP Fit Center   71 is at  -1.495081  7.222398 -2.972946
      ESP Fit Center   72 is at  -1.868889  8.249428 -2.972946
      ESP Fit Center   73 is at  -2.815405  8.795899 -2.972946
      ESP Fit Center   74 is at  -1.868889  6.195368 -2.972946
      ESP Fit Center   75 is at  -1.495081  7.222398 -4.011244
      ESP Fit Center   76 is at  -1.868889  8.249428 -4.011244
      ESP Fit Center   77 is at  -2.815405  8.795899 -4.011244
      ESP Fit Center   78 is at  -3.891743  8.606112 -4.011244
      ESP Fit Center   79 is at  -1.868889  6.195368 -4.011244
      ESP Fit Center   80 is at  -2.105377  7.222398 -4.851244
      ESP Fit Center   81 is at  -2.787708  8.161547 -4.851244
      ESP Fit Center   82 is at  -3.891743  7.802824 -4.851244
      ESP Fit Center   83 is at  -3.092856  7.222398 -5.172095
      ESP Fit Center   84 is at  -5.623073  7.938126 -1.843779
      ESP Fit Center   85 is at  -4.546735  8.931201 -2.683779
      ESP Fit Center   86 is at  -5.623073  8.741414 -2.683779
      ESP Fit Center   87 is at  -6.325603  7.904171 -2.683779
      ESP Fit Center   88 is at  -6.325603  6.811229 -2.683779
      ESP Fit Center   89 is at  -4.546735  8.931201 -3.722077
      ESP Fit Center   90 is at  -5.623073  8.741414 -3.722077
      ESP Fit Center   91 is at  -6.325603  7.904171 -3.722077
      ESP Fit Center   92 is at  -6.325603  6.811229 -3.722077
      ESP Fit Center   93 is at  -4.519038  8.296849 -4.562077
      ESP Fit Center   94 is at  -5.623073  7.938126 -4.562077
      ESP Fit Center   95 is at  -5.623073  6.777274 -4.562077
      ESP Fit Center   96 is at  -4.824186  7.357700 -4.882928
      ESP Fit Center   97 is at  -5.354030  3.986865 -4.709836
      ESP Fit Center   98 is at  -4.421886  3.561169 -4.709836
      ESP Fit Center   99 is at  -5.012649  4.862371 -1.516112
      ESP Fit Center  100 is at  -5.811536  5.442797 -1.836963
      ESP Fit Center  101 is at  -5.811536  4.281945 -1.836963
      ESP Fit Center  102 is at  -6.514066  5.408842 -2.676963
      ESP Fit Center  103 is at  -6.514066  4.315900 -2.676963
      ESP Fit Center  104 is at  -5.811536  3.478657 -2.676963
      ESP Fit Center  105 is at  -6.514066  5.408842 -3.715261
      ESP Fit Center  106 is at  -6.514066  4.315900 -3.715261
      ESP Fit Center  107 is at  -5.811536  3.478657 -3.715261
      ESP Fit Center  108 is at  -4.735198  3.288870 -3.715261
      ESP Fit Center  109 is at  -5.811536  4.281945 -4.555261
      ESP Fit Center  110 is at  -3.159762  6.494513 -5.233554
      ESP Fit Center  111 is at  -4.106278  7.040984 -5.233554
      ESP Fit Center  112 is at  -5.182616  6.851197 -5.233554
      ESP Fit Center  113 is at  -5.885146  6.013954 -5.233554
      ESP Fit Center  114 is at  -5.885146  4.921012 -5.233554
      ESP Fit Center  115 is at  -5.182616  4.083769 -5.233554
      ESP Fit Center  116 is at  -4.106278  3.893982 -5.233554
      ESP Fit Center  117 is at  -3.396250  5.467483 -6.073554
      ESP Fit Center  118 is at  -4.078581  6.406632 -6.073554
      ESP Fit Center  119 is at  -5.182616  6.047909 -6.073554
      ESP Fit Center  120 is at  -5.182616  4.887057 -6.073554
      ESP Fit Center  121 is at  -4.078581  4.528334 -6.073554
      ESP Fit Center  122 is at  -4.383729  5.467483 -6.394405
      ESP Fit Center  123 is at  -1.332560  5.520537 -3.589979
      ESP Fit Center  124 is at  -1.332560  4.540537 -4.569979
      ESP Fit Center  125 is at  -1.656737  5.538249 -4.569979
      ESP Fit Center  126 is at  -3.554498  2.926204 -4.569979
      ESP Fit Center  127 is at  -2.049970  4.540537 -5.287389
      ESP Fit Center  128 is at  -2.539970  5.389242 -5.287389
      ESP Fit Center  129 is at  -3.519970  3.691832 -5.287389
      ESP Fit Center  130 is at  -2.539970  3.691832 -5.287389
      ESP Fit Center  131 is at  -3.029970  4.540537 -5.549979
      ESP Fit Center  132 is at  -3.643809  3.387115 -0.334869
      ESP Fit Center  133 is at  -4.442696  3.967541 -0.655720
      ESP Fit Center  134 is at  -4.442696  2.806689 -0.655720
      ESP Fit Center  135 is at  -5.145226  3.933586 -1.495720
      ESP Fit Center  136 is at  -5.145226  2.840644 -1.495720
      ESP Fit Center  137 is at  -4.442696  2.003401 -1.495720
      ESP Fit Center  138 is at  -5.145226  2.840644 -2.534018
      ESP Fit Center  139 is at  -4.442696  2.003401 -2.534018
      ESP Fit Center  140 is at  -3.366358  1.813614 -2.534018
      ESP Fit Center  141 is at  -4.442696  2.806689 -3.374018
      ESP Fit Center  142 is at  -2.525481  4.674340  0.086373
      ESP Fit Center  143 is at  -1.538002  4.674340 -0.234478
      ESP Fit Center  144 is at  -2.220333  5.613489 -0.234478
      ESP Fit Center  145 is at  -3.324368  5.254766 -0.234478
      ESP Fit Center  146 is at  -3.324368  4.093914 -0.234478
      ESP Fit Center  147 is at  -2.220333  3.735191 -0.234478
      ESP Fit Center  148 is at  -0.927706  4.674340 -1.074478
      ESP Fit Center  149 is at  -1.301514  5.701370 -1.074478
      ESP Fit Center  150 is at  -2.248030  6.247841 -1.074478
      ESP Fit Center  151 is at  -4.026898  5.220811 -1.074478
      ESP Fit Center  152 is at  -1.301514  5.701370 -2.112776
      ESP Fit Center  153 is at  -0.827679  4.667570 -1.505520
      ESP Fit Center  154 is at  -0.053226  2.030027 -3.605520
      ESP Fit Center  155 is at  -3.314077  1.732446 -2.802841
      ESP Fit Center  156 is at  -3.314077  1.732446 -3.841139
      ESP Fit Center  157 is at  -2.611547  0.895203 -3.841139
      ESP Fit Center  158 is at  -1.535209  0.705416 -3.841139
      ESP Fit Center  159 is at  -0.588693  1.251887 -3.841139
      ESP Fit Center  160 is at  -0.825181  2.278917 -4.681139
      ESP Fit Center  161 is at  -1.507512  3.218066 -4.681139
      ESP Fit Center  162 is at  -2.611547  2.859343 -4.681139
      ESP Fit Center  163 is at  -2.611547  1.698491 -4.681139
      ESP Fit Center  164 is at  -1.507512  1.339768 -4.681139
      ESP Fit Center  165 is at  -1.812660  2.278917 -5.001990
      ESP Fit Center  166 is at  -0.431219  4.533359 -1.536206
      ESP Fit Center  167 is at   0.861408  3.594210 -2.376206
      ESP Fit Center  168 is at   0.487600  4.621240 -2.376206
      ESP Fit Center  169 is at  -0.458916  5.167711 -2.376206
      ESP Fit Center  170 is at   0.487600  2.567180 -2.376206
      ESP Fit Center  171 is at   0.861408  3.594210 -3.414504
      ESP Fit Center  172 is at   0.487600  4.621240 -3.414504
      ESP Fit Center  173 is at  -0.458916  5.167711 -3.414504
      ESP Fit Center  174 is at   0.487600  2.567180 -3.414504
      ESP Fit Center  175 is at   0.251112  3.594210 -4.254504
      ESP Fit Center  176 is at  -0.431219  4.533359 -4.254504
      ESP Fit Center  177 is at  -0.736367  3.594210 -4.575355
      ESP Fit Center  178 is at  -0.716572  3.241535  0.339762
      ESP Fit Center  179 is at  -1.696572  3.241535  0.339762
      ESP Fit Center  180 is at   0.166661  3.390542 -0.377648
      ESP Fit Center  181 is at  -0.682044  4.007163 -0.377648
      ESP Fit Center  182 is at   0.490838  3.372830 -1.357648
      ESP Fit Center  183 is at  -0.226572  4.090240 -1.357648
      ESP Fit Center  184 is at   0.490838  2.392830 -2.337648
      ESP Fit Center  185 is at   0.166661  1.395118 -2.337648
      ESP Fit Center  186 is at  -2.602860 -0.769191 -1.048563
      ESP Fit Center  187 is at  -2.564802 -0.895574 -1.350822
      ESP Fit Center  188 is at  -1.488464 -1.085361 -1.350822
      ESP Fit Center  189 is at  -0.168140  0.488140 -2.389120
      ESP Fit Center  190 is at  -3.267332 -0.058331 -2.389120
      ESP Fit Center  191 is at  -2.564802 -0.895574 -2.389120
      ESP Fit Center  192 is at  -1.488464 -1.085361 -2.389120
      ESP Fit Center  193 is at  -0.541948 -0.538890 -2.389120
      ESP Fit Center  194 is at  -0.778436  0.488140 -3.229120
      ESP Fit Center  195 is at  -2.564802 -0.092286 -3.229120
      ESP Fit Center  196 is at  -1.460767 -0.451009 -3.229120
      ESP Fit Center  197 is at  -1.765915  0.488140 -3.549971
      ESP Fit Center  198 is at  -3.717645  1.945801  0.489601
      ESP Fit Center  199 is at  -3.717645  0.784949  0.489601
      ESP Fit Center  200 is at  -3.717645  2.749089 -0.350399
      ESP Fit Center  201 is at  -4.420175  1.911846 -0.350399
      ESP Fit Center  202 is at  -4.420175  0.818904 -0.350399
      ESP Fit Center  203 is at  -3.717645 -0.018339 -0.350399
      ESP Fit Center  204 is at  -4.420175  1.911846 -1.388697
      ESP Fit Center  205 is at  -4.420175  0.818904 -1.388697
      ESP Fit Center  206 is at  -3.717645 -0.018339 -1.388697
      ESP Fit Center  207 is at  -3.717645  0.784949 -2.228697
      ESP Fit Center  208 is at  -2.299571  0.591053  2.021116
      ESP Fit Center  209 is at  -0.724571 -0.318274  2.021116
      ESP Fit Center  210 is at  -2.994556  1.103427  1.252463
      ESP Fit Center  211 is at  -1.508392 -1.209089 -0.847537
      ESP Fit Center  212 is at  -1.901513 -0.201803  2.230601
      ESP Fit Center  213 is at  -2.700400  0.378623  1.909750
      ESP Fit Center  214 is at  -2.700400 -0.782229  1.909750
      ESP Fit Center  215 is at  -1.596365 -1.140952  1.909750
      ESP Fit Center  216 is at  -3.402930  0.344668  1.069750
      ESP Fit Center  217 is at  -3.402930 -0.748274  1.069750
      ESP Fit Center  218 is at  -2.700400 -1.585517  1.069750
      ESP Fit Center  219 is at  -1.624062 -1.775304  1.069750
      ESP Fit Center  220 is at  -3.402930 -0.748274  0.031452
      ESP Fit Center  221 is at  -2.700400 -1.585517  0.031452
      ESP Fit Center  222 is at  -1.624062 -1.775304  0.031452
      ESP Fit Center  223 is at  -2.700400 -0.782229 -0.808548
      ESP Fit Center  224 is at  -1.195617  1.350183  2.659280
      ESP Fit Center  225 is at  -0.208138  1.350183  2.338429
      ESP Fit Center  226 is at  -0.890469  2.289332  2.338429
      ESP Fit Center  227 is at  -1.994504  1.930609  2.338429
      ESP Fit Center  228 is at  -1.994504  0.769757  2.338429
      ESP Fit Center  229 is at  -0.890469  0.411034  2.338429
      ESP Fit Center  230 is at  -0.918166  2.923684  1.498429
      ESP Fit Center  231 is at  -1.994504  2.733897  1.498429
      ESP Fit Center  232 is at  -2.697034  1.896654  1.498429
      ESP Fit Center  233 is at  -1.994504  2.733897  0.460131
      ESP Fit Center  234 is at   0.000000  0.000000  1.960000
      ESP Fit Center  235 is at  -0.490000 -0.848705  1.697410
      ESP Fit Center  236 is at   0.490000 -0.848705  1.697410
      ESP Fit Center  237 is at  -0.524528 -1.614333  0.980000
      ESP Fit Center  238 is at   0.524528 -1.614333  0.980000
      ESP Fit Center  239 is at  -0.980000 -1.697410  0.000000
      ESP Fit Center  240 is at   0.000000  0.000000 -1.960000
      ESP Fit Center  241 is at   2.308854  2.575987  0.000000
      ESP Fit Center  242 is at   1.369045  2.932410  0.000000
      ESP Fit Center  243 is at   0.371248  2.811255  0.000000
      ESP Fit Center  244 is at   1.108604  1.460104  2.581757
      ESP Fit Center  245 is at   2.096083  1.460104  2.260906
      ESP Fit Center  246 is at   1.413752  2.399253  2.260906
      ESP Fit Center  247 is at   0.309717  2.040530  2.260906
      ESP Fit Center  248 is at   0.309717  0.879678  2.260906
      ESP Fit Center  249 is at   1.413752  0.520955  2.260906
      ESP Fit Center  250 is at   2.332571  2.487134  1.420906
      ESP Fit Center  251 is at   1.386055  3.033605  1.420906
      ESP Fit Center  252 is at   0.309717  2.843818  1.420906
      ESP Fit Center  253 is at   1.386055  3.033605  0.382608
      ESP Fit Center  254 is at   0.309717  2.843818  0.382608
      ESP Fit Center  255 is at   2.326247  2.537028 -0.335196
      ESP Fit Center  256 is at   1.379731  3.083499 -0.335196
      ESP Fit Center  257 is at   2.326247  2.537028 -1.373494
      ESP Fit Center  258 is at   1.379731  3.083499 -1.373494
      ESP Fit Center  259 is at   2.089759  1.509998 -2.213494
      ESP Fit Center  260 is at   1.407428  2.449147 -2.213494
      ESP Fit Center  261 is at   0.303393  0.929572 -2.213494
      ESP Fit Center  262 is at   1.102280  1.509998 -2.534345
      ESP Fit Center  263 is at   2.900696  0.909327  1.818653
      ESP Fit Center  264 is at   2.352218 -0.698694  2.507856
      ESP Fit Center  265 is at   3.339697 -0.698694  2.187005
      ESP Fit Center  266 is at   2.657366  0.240455  2.187005
      ESP Fit Center  267 is at   1.553331 -0.118268  2.187005
      ESP Fit Center  268 is at   1.553331 -1.279120  2.187005
      ESP Fit Center  269 is at   2.657366 -1.637843  2.187005
      ESP Fit Center  270 is at   3.949993 -0.698694  1.347005
      ESP Fit Center  271 is at   0.850801 -1.245165  1.347005
      ESP Fit Center  272 is at   1.553331 -2.082408  1.347005
      ESP Fit Center  273 is at   2.629669 -2.272195  1.347005
      ESP Fit Center  274 is at   3.576185 -1.725724  1.347005
      ESP Fit Center  275 is at   3.231627  0.649797  1.824243
      ESP Fit Center  276 is at   4.219106  0.649797  1.503392
      ESP Fit Center  277 is at   3.536775  1.588946  1.503392
      ESP Fit Center  278 is at   4.829402  0.649797  0.663392
      ESP Fit Center  279 is at   4.455594  1.676827  0.663392
      ESP Fit Center  280 is at   3.509078  2.223298  0.663392
      ESP Fit Center  281 is at   4.455594 -0.377233  0.663392
      ESP Fit Center  282 is at   4.829402  0.649797 -0.374906
      ESP Fit Center  283 is at   4.455594  1.676827 -0.374906
      ESP Fit Center  284 is at   3.509078  2.223298 -0.374906
      ESP Fit Center  285 is at   3.536775  1.588946 -1.214906
      ESP Fit Center  286 is at   4.642119 -0.901500 -0.011334
      ESP Fit Center  287 is at   3.522354 -2.643888 -0.011334
      ESP Fit Center  288 is at   4.338042 -1.937091 -0.011334
      ESP Fit Center  289 is at   5.115205 -0.901500 -0.993708
      ESP Fit Center  290 is at   4.878662  0.134863 -0.993708
      ESP Fit Center  291 is at   4.215883 -2.768962 -0.993708
      ESP Fit Center  292 is at   4.878662 -1.937863 -0.993708
      ESP Fit Center  293 is at   5.115205 -0.901500 -2.084060
      ESP Fit Center  294 is at   4.878662  0.134863 -2.084060
      ESP Fit Center  295 is at   4.215883  0.965962 -2.084060
      ESP Fit Center  296 is at   3.258140  1.427187 -2.084060
      ESP Fit Center  297 is at   0.574602  0.134863 -2.084060
      ESP Fit Center  298 is at   4.878662 -1.937863 -2.084060
      ESP Fit Center  299 is at   4.642119 -0.901500 -3.066434
      ESP Fit Center  300 is at   4.338042  0.134091 -3.066434
      ESP Fit Center  301 is at   3.522354  0.840888 -3.066434
      ESP Fit Center  302 is at   2.454030  0.994490 -3.066434
      ESP Fit Center  303 is at   1.472255  0.546129 -3.066434
      ESP Fit Center  304 is at   0.888736 -0.361845 -3.066434
      ESP Fit Center  305 is at   4.338042 -1.937091 -3.066434
      ESP Fit Center  306 is at   3.789647 -0.901500 -3.746258
      ESP Fit Center  307 is at   3.258140  0.019098 -3.746258
      ESP Fit Center  308 is at   2.195124  0.019098 -3.746258
      ESP Fit Center  309 is at   1.663617 -0.901500 -3.746258
      ESP Fit Center  310 is at   3.258140 -1.822098 -3.746258
      ESP Fit Center  311 is at   2.726632 -0.901500 -3.988884
      ESP Fit Center  312 is at   1.801442 -2.831628  1.217146
      ESP Fit Center  313 is at   2.788921 -2.831628  0.896295
      ESP Fit Center  314 is at   1.002555 -2.251202  0.896295
      ESP Fit Center  315 is at   1.002555 -3.412054  0.896295
      ESP Fit Center  316 is at   2.106590 -3.770777  0.896295
      ESP Fit Center  317 is at   3.399217 -2.831628  0.056295
      ESP Fit Center  318 is at   0.300025 -3.378099  0.056295
      ESP Fit Center  319 is at   3.025409 -3.858658  0.056295
      ESP Fit Center  320 is at  -0.205534 -2.603035 -0.078723
      ESP Fit Center  321 is at  -0.908064 -1.476138 -0.918723
      ESP Fit Center  322 is at  -0.908064 -2.569080 -0.918723
      ESP Fit Center  323 is at  -0.205534 -0.638895 -1.957021
      ESP Fit Center  324 is at  -0.908064 -1.476138 -1.957021
      ESP Fit Center  325 is at  -0.908064 -2.569080 -1.957021
      ESP Fit Center  326 is at  -0.205534 -1.442183 -2.797021
      ESP Fit Center  327 is at   3.443907 -2.311234 -3.623393
      ESP Fit Center  328 is at   3.939626 -3.599665 -1.219067
      ESP Fit Center  329 is at   4.549922 -3.599665 -2.059067
      ESP Fit Center  330 is at   4.549922 -3.599665 -3.097365
      ESP Fit Center  331 is at   4.176114 -2.572635 -3.097365
      ESP Fit Center  332 is at   4.176114 -4.626695 -3.097365
      ESP Fit Center  333 is at   3.939626 -3.599665 -3.937365
      ESP Fit Center  334 is at   3.257295 -4.538814 -3.937365
      ESP Fit Center  335 is at   2.953466 -1.767049 -4.035503
      ESP Fit Center  336 is at   2.006950 -1.220578 -4.035503
      ESP Fit Center  337 is at   0.930612 -1.410365 -4.035503
      ESP Fit Center  338 is at   0.228082 -2.247608 -4.035503
      ESP Fit Center  339 is at   2.716978 -2.794079 -4.875503
      ESP Fit Center  340 is at   2.034647 -1.854930 -4.875503
      ESP Fit Center  341 is at   0.930612 -2.213653 -4.875503
      ESP Fit Center  342 is at   0.930612 -3.374505 -4.875503
      ESP Fit Center  343 is at   2.034647 -3.733228 -4.875503
      ESP Fit Center  344 is at   1.729499 -2.794079 -5.196354
      ESP Fit Center  345 is at  -0.998962 -4.219603 -1.099220
      ESP Fit Center  346 is at  -0.998962 -5.298913 -1.099220
      ESP Fit Center  347 is at  -1.313096 -3.722895 -2.081594
      ESP Fit Center  348 is at  -1.549639 -4.759258 -2.081594
      ESP Fit Center  349 is at  -1.313096 -5.795621 -2.081594
      ESP Fit Center  350 is at  -0.650317 -2.891796 -3.171946
      ESP Fit Center  351 is at  -1.313096 -3.722895 -3.171946
      ESP Fit Center  352 is at  -1.549639 -4.759258 -3.171946
      ESP Fit Center  353 is at  -1.313096 -5.795621 -3.171946
      ESP Fit Center  354 is at  -0.650317 -6.626720 -3.171946
      ESP Fit Center  355 is at   0.307426 -7.087945 -3.171946
      ESP Fit Center  356 is at   2.754421 -4.759258 -4.154320
      ESP Fit Center  357 is at  -0.415443 -3.311629 -4.154320
      ESP Fit Center  358 is at  -0.998962 -4.219603 -4.154320
      ESP Fit Center  359 is at  -0.998962 -5.298913 -4.154320
      ESP Fit Center  360 is at  -0.415443 -6.206887 -4.154320
      ESP Fit Center  361 is at   0.566332 -6.655248 -4.154320
      ESP Fit Center  362 is at   1.901949 -4.759258 -4.834144
      ESP Fit Center  363 is at   1.370442 -3.838660 -4.834144
      ESP Fit Center  364 is at   0.307426 -3.838660 -4.834144
      ESP Fit Center  365 is at  -0.224081 -4.759258 -4.834144
      ESP Fit Center  366 is at   0.307426 -5.679856 -4.834144
      ESP Fit Center  367 is at   1.370442 -5.679856 -4.834144
      ESP Fit Center  368 is at   0.838934 -4.759258 -5.076770
      ESP Fit Center  369 is at   0.844206 -6.634732  0.638084
      ESP Fit Center  370 is at  -0.101053 -7.155480  0.191653
      ESP Fit Center  371 is at   1.002982 -7.514203  0.191653
      ESP Fit Center  372 is at  -0.803583 -6.028583 -0.648347
      ESP Fit Center  373 is at  -0.803583 -7.121525 -0.648347
      ESP Fit Center  374 is at  -0.101053 -7.958768 -0.648347
      ESP Fit Center  375 is at   0.975285 -8.148555 -0.648347
      ESP Fit Center  376 is at  -0.803583 -7.121525 -1.686645
      ESP Fit Center  377 is at  -0.101053 -7.958768 -1.686645
      ESP Fit Center  378 is at   0.975285 -8.148555 -1.686645
      ESP Fit Center  379 is at  -0.101053 -7.155480 -2.526645
      ESP Fit Center  380 is at   1.182720 -5.157800  1.403108
      ESP Fit Center  381 is at   2.170199 -5.157800  1.082257
      ESP Fit Center  382 is at   1.487868 -4.218651  1.082257
      ESP Fit Center  383 is at   0.383833 -4.577374  1.082257
      ESP Fit Center  384 is at   0.383833 -5.738226  1.082257
      ESP Fit Center  385 is at   1.487868 -6.096949  1.082257
      ESP Fit Center  386 is at   0.383833 -3.774086  0.242257
      ESP Fit Center  387 is at  -0.318697 -4.611329  0.242257
      ESP Fit Center  388 is at  -0.318697 -5.704271  0.242257
      ESP Fit Center  389 is at   3.342656 -5.302847  0.655625
      ESP Fit Center  390 is at   4.488114 -5.372894  0.212800
      ESP Fit Center  391 is at   3.805783 -4.433745  0.212800
      ESP Fit Center  392 is at   4.724602 -4.345864 -0.627200
      ESP Fit Center  393 is at   3.778086 -3.799393 -0.627200
      ESP Fit Center  394 is at   4.724602 -4.345864 -1.665498
      ESP Fit Center  395 is at   2.967084 -6.770143  1.435644
      ESP Fit Center  396 is at   3.954563 -6.770143  1.114793
      ESP Fit Center  397 is at   3.272232 -5.830994  1.114793
      ESP Fit Center  398 is at   2.168197 -6.189717  1.114793
      ESP Fit Center  399 is at   2.168197 -7.350569  1.114793
      ESP Fit Center  400 is at   3.272232 -7.709292  1.114793
      ESP Fit Center  401 is at   4.564859 -6.770143  0.274793
      ESP Fit Center  402 is at   1.465667 -7.316614  0.274793
      ESP Fit Center  403 is at   2.168197 -8.153857  0.274793
      ESP Fit Center  404 is at   3.244535 -8.343644  0.274793
      ESP Fit Center  405 is at   1.946900 -8.756568 -1.036345
      ESP Fit Center  406 is at   1.049247 -8.345302 -2.018719
      ESP Fit Center  407 is at   1.712026 -9.176401 -2.018719
      ESP Fit Center  408 is at   2.669769 -9.637626 -2.018719
      ESP Fit Center  409 is at   4.690528 -5.441477 -3.109071
      ESP Fit Center  410 is at   0.812704 -7.308939 -3.109071
      ESP Fit Center  411 is at   1.049247 -8.345302 -3.109071
      ESP Fit Center  412 is at   1.712026 -9.176401 -3.109071
      ESP Fit Center  413 is at   2.669769 -9.637626 -3.109071
      ESP Fit Center  414 is at   5.116764 -7.308939 -4.091445
      ESP Fit Center  415 is at   4.812687 -6.273348 -4.091445
      ESP Fit Center  416 is at   3.996999 -5.566551 -4.091445
      ESP Fit Center  417 is at   2.928675 -5.412949 -4.091445
      ESP Fit Center  418 is at   1.363381 -6.769284 -4.091445
      ESP Fit Center  419 is at   1.363381 -7.848594 -4.091445
      ESP Fit Center  420 is at   1.946900 -8.756568 -4.091445
      ESP Fit Center  421 is at   2.928675 -9.204929 -4.091445
      ESP Fit Center  422 is at   3.996999 -9.051327 -4.091445
      ESP Fit Center  423 is at   4.264292 -7.308939 -4.771269
      ESP Fit Center  424 is at   3.732785 -6.388341 -4.771269
      ESP Fit Center  425 is at   2.669769 -6.388341 -4.771269
      ESP Fit Center  426 is at   2.138262 -7.308939 -4.771269
      ESP Fit Center  427 is at   2.669769 -8.229537 -4.771269
      ESP Fit Center  428 is at   3.732785 -8.229537 -4.771269
      ESP Fit Center  429 is at   3.201277 -7.308939 -5.013895
      ESP Fit Center  430 is at   4.483198 -8.588157  0.693162
      ESP Fit Center  431 is at   5.470677 -8.588157  0.372311
      ESP Fit Center  432 is at   4.788346 -7.649008  0.372311
      ESP Fit Center  433 is at   3.684311 -9.168583  0.372311
      ESP Fit Center  434 is at   4.788346 -9.527306  0.372311
      ESP Fit Center  435 is at   2.981781 -9.134628 -0.467689
      ESP Fit Center  436 is at   3.684311 -9.971871 -0.467689
      ESP Fit Center  437 is at   4.760649-10.161658 -0.467689
      ESP Fit Center  438 is at   5.707165 -9.615187 -0.467689
      ESP Fit Center  439 is at   3.684311 -9.971871 -1.505987
      ESP Fit Center  440 is at   4.074782-10.324937 -2.128392
      ESP Fit Center  441 is at   5.151120-10.514724 -2.128392
      ESP Fit Center  442 is at   6.097636 -9.968253 -2.128392
      ESP Fit Center  443 is at   6.471444 -8.941223 -3.166690
      ESP Fit Center  444 is at   4.074782-10.324937 -3.166690
      ESP Fit Center  445 is at   5.151120-10.514724 -3.166690
      ESP Fit Center  446 is at   6.097636 -9.968253 -3.166690
      ESP Fit Center  447 is at   5.861148 -8.941223 -4.006690
      ESP Fit Center  448 is at   5.178817 -8.002074 -4.006690
      ESP Fit Center  449 is at   4.074782 -9.521649 -4.006690
      ESP Fit Center  450 is at   5.178817 -9.880372 -4.006690
      ESP Fit Center  451 is at   4.873669 -8.941223 -4.327541
      ESP Fit Center  452 is at   7.468088 -6.261886 -0.808341
      ESP Fit Center  453 is at   7.797597 -6.269205 -1.858341
      ESP Fit Center  454 is at   7.131075 -5.516858 -1.858341
      ESP Fit Center  455 is at   6.693635 -8.899429 -2.908341
      ESP Fit Center  456 is at   5.805038 -6.440224  0.536358
      ESP Fit Center  457 is at   6.792517 -6.440224  0.215507
      ESP Fit Center  458 is at   6.110186 -5.501075  0.215507
      ESP Fit Center  459 is at   5.006151 -5.859798  0.215507
      ESP Fit Center  460 is at   5.006151 -7.020650  0.215507
      ESP Fit Center  461 is at   7.029005 -5.413194 -0.624493
      ESP Fit Center  462 is at   6.082489 -4.866723 -0.624493
      ESP Fit Center  463 is at   7.029005 -5.413194 -1.662791
      ESP Fit Center  464 is at   6.082489 -4.866723 -1.662791
      ESP Fit Center  465 is at   6.794420 -7.831543  0.143055
      ESP Fit Center  466 is at   7.781899 -7.831543 -0.177796
      ESP Fit Center  467 is at   7.099568 -8.770692 -0.177796
      ESP Fit Center  468 is at   8.392195 -7.831543 -1.017796
      ESP Fit Center  469 is at   8.018387 -6.804513 -1.017796
      ESP Fit Center  470 is at   7.071871 -9.405044 -1.017796
      ESP Fit Center  471 is at   8.018387 -8.858573 -1.017796
      ESP Fit Center  472 is at   8.392195 -7.831543 -2.056094
      ESP Fit Center  473 is at   8.018387 -6.804513 -2.056094
      ESP Fit Center  474 is at   7.071871 -9.405044 -2.056094
      ESP Fit Center  475 is at   8.018387 -8.858573 -2.056094
      ESP Fit Center  476 is at   7.781899 -7.831543 -2.896094
      ESP Fit Center  477 is at   7.099568 -8.770692 -2.896094
      ESP Fit Center  478 is at   7.392194 -5.777581 -2.302358
      ESP Fit Center  479 is at   6.445678 -5.231110 -2.302358
      ESP Fit Center  480 is at   7.766002 -6.804611 -3.340656
      ESP Fit Center  481 is at   7.392194 -5.777581 -3.340656
      ESP Fit Center  482 is at   6.445678 -5.231110 -3.340656
      ESP Fit Center  483 is at   5.369340 -5.420897 -3.340656
      ESP Fit Center  484 is at   7.392194 -7.831641 -3.340656
      ESP Fit Center  485 is at   7.155706 -6.804611 -4.180656
      ESP Fit Center  486 is at   6.473375 -5.865462 -4.180656
      ESP Fit Center  487 is at   5.369340 -6.224185 -4.180656
      ESP Fit Center  488 is at   5.369340 -7.385037 -4.180656
      ESP Fit Center  489 is at   6.473375 -7.743760 -4.180656
      ESP Fit Center  490 is at   6.168227 -6.804611 -4.501507
      ESP Fit Center  491 is at  -4.216473  8.592649 -1.542606
      ESP Fit Center  492 is at  -5.749822  6.206710 -1.542606
      ESP Fit Center  493 is at  -3.428774  9.016515 -2.504932
      ESP Fit Center  494 is at  -4.470094  7.637162 -5.201307
      ESP Fit Center  495 is at  -3.781315  6.677534 -0.048972
      ESP Fit Center  496 is at  -2.821315  6.677534 -0.306203
      ESP Fit Center  497 is at  -3.301315  7.508918 -0.306203
      ESP Fit Center  498 is at  -4.261315  7.508918 -0.306203
      ESP Fit Center  499 is at  -4.741315  6.677534 -0.306203
      ESP Fit Center  500 is at  -4.261315  5.846150 -0.306203
      ESP Fit Center  501 is at  -2.118546  6.677534 -1.008972
      ESP Fit Center  502 is at  -2.436107  7.654885 -1.008972
      ESP Fit Center  503 is at  -3.267491  8.258921 -1.008972
      ESP Fit Center  504 is at  -4.295139  8.258921 -1.008972
      ESP Fit Center  505 is at  -5.126523  7.654885 -1.008972
      ESP Fit Center  506 is at  -5.444084  6.677534 -1.008972
      ESP Fit Center  507 is at  -5.126523  5.700183 -1.008972
      ESP Fit Center  508 is at  -1.430087  7.222398 -2.532095
      ESP Fit Center  509 is at  -1.747648  8.199749 -2.532095
      ESP Fit Center  510 is at  -2.579032  8.803785 -2.532095
      ESP Fit Center  511 is at  -1.172856  7.222398 -3.492095
      ESP Fit Center  512 is at  -1.430087  8.182398 -3.492095
      ESP Fit Center  513 is at  -2.132856  8.885167 -3.492095
      ESP Fit Center  514 is at  -3.092856  9.142398 -3.492095
      ESP Fit Center  515 is at  -1.430087  6.262398 -3.492095
      ESP Fit Center  516 is at  -1.430087  7.222398 -4.452095
      ESP Fit Center  517 is at  -1.747648  8.199749 -4.452095
      ESP Fit Center  518 is at  -2.579032  8.803785 -4.452095
      ESP Fit Center  519 is at  -3.606680  8.803785 -4.452095
      ESP Fit Center  520 is at  -1.747648  6.245047 -4.452095
      ESP Fit Center  521 is at  -2.132856  7.222398 -5.154864
      ESP Fit Center  522 is at  -2.612856  8.053782 -5.154864
      ESP Fit Center  523 is at  -3.572856  8.053782 -5.154864
      ESP Fit Center  524 is at  -3.092856  7.222398 -5.412095
      ESP Fit Center  525 is at  -5.304186  8.189084 -1.540159
      ESP Fit Center  526 is at  -5.784186  7.357700 -1.540159
      ESP Fit Center  527 is at  -5.338010  8.939087 -2.242928
      ESP Fit Center  528 is at  -6.169394  8.335051 -2.242928
      ESP Fit Center  529 is at  -6.486955  7.357700 -2.242928
      ESP Fit Center  530 is at  -4.824186  9.277700 -3.202928
      ESP Fit Center  531 is at  -5.784186  9.020469 -3.202928
      ESP Fit Center  532 is at  -6.486955  8.317700 -3.202928
      ESP Fit Center  533 is at  -6.744186  7.357700 -3.202928
      ESP Fit Center  534 is at  -6.486955  6.397700 -3.202928
      ESP Fit Center  535 is at  -4.310362  8.939087 -4.162928
      ESP Fit Center  536 is at  -5.338010  8.939087 -4.162928
      ESP Fit Center  537 is at  -6.169394  8.335051 -4.162928
      ESP Fit Center  538 is at  -6.486955  7.357700 -4.162928
      ESP Fit Center  539 is at  -5.304186  8.189084 -4.865697
      ESP Fit Center  540 is at  -5.784186  7.357700 -4.865697
      ESP Fit Center  541 is at  -6.271176  6.376524 -4.193886
      ESP Fit Center  542 is at  -4.683725  3.080148 -4.193886
      ESP Fit Center  543 is at  -2.584541  6.375767 -5.156212
      ESP Fit Center  544 is at  -4.430104  3.504014 -5.156212
      ESP Fit Center  545 is at  -5.012649  4.862371 -1.276112
      ESP Fit Center  546 is at  -5.972649  4.862371 -1.533343
      ESP Fit Center  547 is at  -5.492649  4.030987 -1.533343
      ESP Fit Center  548 is at  -6.357857  5.839722 -2.236112
      ESP Fit Center  549 is at  -6.675418  4.862371 -2.236112
      ESP Fit Center  550 is at  -6.357857  3.885020 -2.236112
      ESP Fit Center  551 is at  -6.675418  5.822371 -3.196112
      ESP Fit Center  552 is at  -6.932649  4.862371 -3.196112
      ESP Fit Center  553 is at  -6.675418  3.902371 -3.196112
      ESP Fit Center  554 is at  -5.972649  3.199602 -3.196112
      ESP Fit Center  555 is at  -6.675418  4.862371 -4.156112
      ESP Fit Center  556 is at  -6.357857  3.885020 -4.156112
      ESP Fit Center  557 is at  -5.526473  3.280984 -4.156112
      ESP Fit Center  558 is at  -6.046498  6.427483 -4.714405
      ESP Fit Center  559 is at  -2.720960  5.467483 -5.674405
      ESP Fit Center  560 is at  -3.038521  6.444834 -5.674405
      ESP Fit Center  561 is at  -3.869905  7.048870 -5.674405
      ESP Fit Center  562 is at  -4.897553  7.048870 -5.674405
      ESP Fit Center  563 is at  -5.728937  6.444834 -5.674405
      ESP Fit Center  564 is at  -6.046498  5.467483 -5.674405
      ESP Fit Center  565 is at  -5.728937  4.490132 -5.674405
      ESP Fit Center  566 is at  -4.897553  3.886096 -5.674405
      ESP Fit Center  567 is at  -3.869905  3.886096 -5.674405
      ESP Fit Center  568 is at  -3.423729  5.467483 -6.377174
      ESP Fit Center  569 is at  -3.903729  6.298867 -6.377174
      ESP Fit Center  570 is at  -4.863729  6.298867 -6.377174
      ESP Fit Center  571 is at  -5.343729  5.467483 -6.377174
      ESP Fit Center  572 is at  -4.863729  4.636099 -6.377174
      ESP Fit Center  573 is at  -3.903729  4.636099 -6.377174
      ESP Fit Center  574 is at  -4.383729  5.467483 -6.634405
      ESP Fit Center  575 is at  -1.096277  5.555417 -3.091532
      ESP Fit Center  576 is at  -1.096277  5.555417 -4.088426
      ESP Fit Center  577 is at  -3.804370  2.498613 -4.088426
      ESP Fit Center  578 is at  -1.278667  4.540537 -4.986596
      ESP Fit Center  579 is at  -1.613136  5.569927 -4.986596
      ESP Fit Center  580 is at  -3.571152  2.874949 -4.986596
      ESP Fit Center  581 is at  -1.613136  3.511147 -4.986596
      ESP Fit Center  582 is at  -2.058070  4.540537 -5.608149
      ESP Fit Center  583 is at  -2.544020  5.382227 -5.608149
      ESP Fit Center  584 is at  -3.515920  3.698847 -5.608149
      ESP Fit Center  585 is at  -2.544020  3.698847 -5.608149
      ESP Fit Center  586 is at  -3.029970  4.540537 -5.829979
      ESP Fit Center  587 is at  -3.999845  2.523444 -3.853619
      ESP Fit Center  588 is at  -3.643809  3.387115 -0.094869
      ESP Fit Center  589 is at  -4.123809  4.218499 -0.352100
      ESP Fit Center  590 is at  -4.603809  3.387115 -0.352100
      ESP Fit Center  591 is at  -4.989017  4.364466 -1.054869
      ESP Fit Center  592 is at  -5.306578  3.387115 -1.054869
      ESP Fit Center  593 is at  -4.989017  2.409764 -1.054869
      ESP Fit Center  594 is at  -5.563809  3.387115 -2.014869
      ESP Fit Center  595 is at  -5.306578  2.427115 -2.014869
      ESP Fit Center  596 is at  -4.603809  1.724346 -2.014869
      ESP Fit Center  597 is at  -4.989017  2.409764 -2.974869
      ESP Fit Center  598 is at  -4.157633  1.805728 -2.974869
      ESP Fit Center  599 is at  -2.525481  4.674340  0.326373
      ESP Fit Center  600 is at  -1.565481  4.674340  0.069142
      ESP Fit Center  601 is at  -2.045481  5.505724  0.069142
      ESP Fit Center  602 is at  -3.005481  5.505724  0.069142
      ESP Fit Center  603 is at  -3.485481  4.674340  0.069142
      ESP Fit Center  604 is at  -3.005481  3.842956  0.069142
      ESP Fit Center  605 is at  -0.862712  4.674340 -0.633627
      ESP Fit Center  606 is at  -1.180273  5.651691 -0.633627
      ESP Fit Center  607 is at  -2.011657  6.255727 -0.633627
      ESP Fit Center  608 is at  -0.862712  5.634340 -1.593627
      ESP Fit Center  609 is at  -1.565481  6.337109 -1.593627
      ESP Fit Center  610 is at  -0.124317  1.183915 -3.089570
      ESP Fit Center  611 is at   0.524936  1.998052 -3.089570
      ESP Fit Center  612 is at  -0.004651  1.998809 -4.051896
      ESP Fit Center  613 is at  -0.541854  3.013265 -4.717845
      ESP Fit Center  614 is at  -3.475429  1.318917 -3.321990
      ESP Fit Center  615 is at  -3.475429  2.278917 -4.281990
      ESP Fit Center  616 is at  -3.157868  1.301566 -4.281990
      ESP Fit Center  617 is at  -2.326484  0.697530 -4.281990
      ESP Fit Center  618 is at  -1.298836  0.697530 -4.281990
      ESP Fit Center  619 is at  -0.467452  1.301566 -4.281990
      ESP Fit Center  620 is at  -0.852660  2.278917 -4.984759
      ESP Fit Center  621 is at  -1.332660  3.110301 -4.984759
      ESP Fit Center  622 is at  -2.772660  2.278917 -4.984759
      ESP Fit Center  623 is at  -2.292660  1.447533 -4.984759
      ESP Fit Center  624 is at  -1.332660  1.447533 -4.984759
      ESP Fit Center  625 is at  -1.812660  2.278917 -5.241990
      ESP Fit Center  626 is at   0.926402  3.594210 -1.935355
      ESP Fit Center  627 is at   0.608841  4.571561 -1.935355
      ESP Fit Center  628 is at  -0.222543  5.175597 -1.935355
      ESP Fit Center  629 is at   1.183633  3.594210 -2.895355
      ESP Fit Center  630 is at   0.926402  4.554210 -2.895355
      ESP Fit Center  631 is at   0.223633  5.256979 -2.895355
      ESP Fit Center  632 is at  -0.736367  5.514210 -2.895355
      ESP Fit Center  633 is at   0.926402  2.634210 -2.895355
      ESP Fit Center  634 is at   0.926402  3.594210 -3.855355
      ESP Fit Center  635 is at   0.608841  4.571561 -3.855355
      ESP Fit Center  636 is at  -0.222543  5.175597 -3.855355
      ESP Fit Center  637 is at   0.608841  2.616859 -3.855355
      ESP Fit Center  638 is at   0.223633  3.594210 -4.558124
      ESP Fit Center  639 is at  -0.256367  4.425594 -4.558124
      ESP Fit Center  640 is at  -0.256367  2.762826 -4.558124
      ESP Fit Center  641 is at  -0.736367  3.594210 -4.815355
      ESP Fit Center  642 is at  -0.720622  3.234520  0.660522
      ESP Fit Center  643 is at  -1.692522  3.234520  0.660522
      ESP Fit Center  644 is at   0.210262  3.422220  0.038969
      ESP Fit Center  645 is at  -0.665390  4.058418  0.038969
      ESP Fit Center  646 is at  -2.623406  3.422220  0.038969
      ESP Fit Center  647 is at   0.727121  3.407710 -0.859201
      ESP Fit Center  648 is at   0.033990  4.190094 -0.859201
      ESP Fit Center  649 is at   0.210262  1.363440 -2.754265
      ESP Fit Center  650 is at  -3.317048 -0.635007 -1.582613
      ESP Fit Center  651 is at  -3.658578  0.665701 -2.544939
      ESP Fit Center  652 is at  -3.428684 -0.471860 -1.869971
      ESP Fit Center  653 is at  -2.725915 -1.174629 -1.869971
      ESP Fit Center  654 is at  -1.765915 -1.431860 -1.869971
      ESP Fit Center  655 is at  -0.103146  0.488140 -2.829971
      ESP Fit Center  656 is at  -3.428684  0.488140 -2.829971
      ESP Fit Center  657 is at  -3.111123 -0.489211 -2.829971
      ESP Fit Center  658 is at  -2.279739 -1.093247 -2.829971
      ESP Fit Center  659 is at  -1.252091 -1.093247 -2.829971
      ESP Fit Center  660 is at  -0.420707 -0.489211 -2.829971
      ESP Fit Center  661 is at  -0.805915  0.488140 -3.532740
      ESP Fit Center  662 is at  -2.725915  0.488140 -3.532740
      ESP Fit Center  663 is at  -2.245915 -0.343244 -3.532740
      ESP Fit Center  664 is at  -1.285915 -0.343244 -3.532740
      ESP Fit Center  665 is at  -3.398758  2.196759  0.793221
      ESP Fit Center  666 is at  -3.878758  1.365375  0.793221
      ESP Fit Center  667 is at  -3.432582  2.946762  0.090452
      ESP Fit Center  668 is at  -4.263966  2.342726  0.090452
      ESP Fit Center  669 is at  -4.581527  1.365375  0.090452
      ESP Fit Center  670 is at  -4.263966  0.388024  0.090452
      ESP Fit Center  671 is at  -4.838758  1.365375 -0.869548
      ESP Fit Center  672 is at  -4.581527  0.405375 -0.869548
      ESP Fit Center  673 is at  -3.878758 -0.297394 -0.869548
      ESP Fit Center  674 is at  -4.581527  1.365375 -1.829548
      ESP Fit Center  675 is at  -4.263966  0.388024 -1.829548
      ESP Fit Center  676 is at  -3.878758  1.365375 -2.532317
      ESP Fit Center  677 is at  -2.290892  0.591053  2.364788
      ESP Fit Center  678 is at  -0.728911 -0.310757  2.364788
      ESP Fit Center  679 is at  -3.049959  1.119695  1.698839
      ESP Fit Center  680 is at  -1.901513 -0.201803  2.470601
      ESP Fit Center  681 is at  -2.861513 -0.201803  2.213370
      ESP Fit Center  682 is at  -2.381513 -1.033187  2.213370
      ESP Fit Center  683 is at  -1.421513 -1.033187  2.213370
      ESP Fit Center  684 is at  -3.564282 -0.201803  1.510601
      ESP Fit Center  685 is at  -3.246721 -1.179154  1.510601
      ESP Fit Center  686 is at  -2.415337 -1.783190  1.510601
      ESP Fit Center  687 is at  -1.387689 -1.783190  1.510601
      ESP Fit Center  688 is at  -3.821513 -0.201803  0.550601
      ESP Fit Center  689 is at  -3.564282 -1.161803  0.550601
      ESP Fit Center  690 is at  -2.861513 -1.864572  0.550601
      ESP Fit Center  691 is at  -1.901513 -2.121803  0.550601
      ESP Fit Center  692 is at  -3.246721 -1.179154 -0.409399
      ESP Fit Center  693 is at  -2.415337 -1.783190 -0.409399
      ESP Fit Center  694 is at  -1.387689 -1.783190 -0.409399
      ESP Fit Center  695 is at  -1.195617  1.350183  2.899280
      ESP Fit Center  696 is at  -0.235617  1.350183  2.642049
      ESP Fit Center  697 is at  -0.715617  2.181567  2.642049
      ESP Fit Center  698 is at  -1.675617  2.181567  2.642049
      ESP Fit Center  699 is at  -2.155617  1.350183  2.642049
      ESP Fit Center  700 is at  -1.675617  0.518799  2.642049
      ESP Fit Center  701 is at  -0.715617  0.518799  2.642049
      ESP Fit Center  702 is at  -0.681793  2.931570  1.939280
      ESP Fit Center  703 is at  -1.709441  2.931570  1.939280
      ESP Fit Center  704 is at  -2.540825  2.327534  1.939280
      ESP Fit Center  705 is at  -2.858386  1.350183  1.939280
      ESP Fit Center  706 is at  -0.235617  3.012952  0.979280
      ESP Fit Center  707 is at  -1.195617  3.270183  0.979280
      ESP Fit Center  708 is at  -2.155617  3.012952  0.979280
      ESP Fit Center  709 is at  -2.858386  2.310183  0.979280
      ESP Fit Center  710 is at   0.000000  0.000000  2.240000
      ESP Fit Center  711 is at  -0.485950 -0.841690  2.018170
      ESP Fit Center  712 is at   0.485950 -0.841690  2.018170
      ESP Fit Center  713 is at  -0.541182 -1.665588  1.396617
      ESP Fit Center  714 is at   0.541182 -1.665588  1.396617
      ESP Fit Center  715 is at  -0.774400 -2.041924  0.498447
      ESP Fit Center  716 is at   0.595258 -0.054089  2.162325
      ESP Fit Center  717 is at   2.574776  2.677071  0.534050
      ESP Fit Center  718 is at   1.108604  1.460104  2.821757
      ESP Fit Center  719 is at   2.068604  1.460104  2.564526
      ESP Fit Center  720 is at   1.588604  2.291488  2.564526
      ESP Fit Center  721 is at   0.628604  2.291488  2.564526
      ESP Fit Center  722 is at   0.148604  1.460104  2.564526
      ESP Fit Center  723 is at   0.628604  0.628720  2.564526
      ESP Fit Center  724 is at   1.588604  0.628720  2.564526
      ESP Fit Center  725 is at   2.453812  2.437455  1.861757
      ESP Fit Center  726 is at   1.622428  3.041491  1.861757
      ESP Fit Center  727 is at   0.594780  3.041491  1.861757
      ESP Fit Center  728 is at   2.771373  2.420104  0.901757
      ESP Fit Center  729 is at   2.068604  3.122873  0.901757
      ESP Fit Center  730 is at   1.108604  3.380104  0.901757
      ESP Fit Center  731 is at   0.148604  3.122873  0.901757
      ESP Fit Center  732 is at   2.765049  2.469998 -0.854345
      ESP Fit Center  733 is at   2.062280  3.172767 -0.854345
      ESP Fit Center  734 is at   1.102280  3.429998 -0.854345
      ESP Fit Center  735 is at   2.447488  2.487349 -1.814345
      ESP Fit Center  736 is at   1.616104  3.091385 -1.814345
      ESP Fit Center  737 is at   1.582280  2.341382 -2.517114
      ESP Fit Center  738 is at   0.622280  0.678614 -2.517114
      ESP Fit Center  739 is at   1.102280  1.509998 -2.774345
      ESP Fit Center  740 is at   2.896356  0.901810  2.162325
      ESP Fit Center  741 is at   2.352218 -0.698694  2.747856
      ESP Fit Center  742 is at   3.312218 -0.698694  2.490625
      ESP Fit Center  743 is at   2.832218  0.132690  2.490625
      ESP Fit Center  744 is at   1.872218  0.132690  2.490625
      ESP Fit Center  745 is at   1.392218 -0.698694  2.490625
      ESP Fit Center  746 is at   1.872218 -1.530078  2.490625
      ESP Fit Center  747 is at   2.832218 -1.530078  2.490625
      ESP Fit Center  748 is at   4.014987 -0.698694  1.787856
      ESP Fit Center  749 is at   1.007010 -1.676045  1.787856
      ESP Fit Center  750 is at   1.838394 -2.280081  1.787856
      ESP Fit Center  751 is at   2.866042 -2.280081  1.787856
      ESP Fit Center  752 is at   3.697426 -1.676045  1.787856
      ESP Fit Center  753 is at   3.312218 -2.361463  0.827856
      ESP Fit Center  754 is at   4.191627  0.649797  1.807012
      ESP Fit Center  755 is at   3.711627  1.481181  1.807012
      ESP Fit Center  756 is at   4.894396  0.649797  1.104243
      ESP Fit Center  757 is at   4.576835  1.627148  1.104243
      ESP Fit Center  758 is at   3.745451  2.231184  1.104243
      ESP Fit Center  759 is at   4.576835 -0.327554  1.104243
      ESP Fit Center  760 is at   5.151627  0.649797  0.144243
      ESP Fit Center  761 is at   4.894396  1.609797  0.144243
      ESP Fit Center  762 is at   4.191627  2.312566  0.144243
      ESP Fit Center  763 is at   3.231627  2.569797  0.144243
      ESP Fit Center  764 is at   4.894396 -0.310203  0.144243
      ESP Fit Center  765 is at   4.576835  1.627148 -0.815757
      ESP Fit Center  766 is at   3.745451  2.231184 -0.815757
      ESP Fit Center  767 is at   4.706531 -0.901500  0.441015
      ESP Fit Center  768 is at   3.716581 -2.616143  0.441015
      ESP Fit Center  769 is at   4.441275 -1.891449  0.441015
      ESP Fit Center  770 is at   5.313495 -0.901500 -0.467370
      ESP Fit Center  771 is at   5.089849  0.150672 -0.467370
      ESP Fit Center  772 is at   4.457581 -2.823914 -0.467370
      ESP Fit Center  773 is at   5.089849 -1.953672 -0.467370
      ESP Fit Center  774 is at   5.526632 -0.901500 -1.538884
      ESP Fit Center  775 is at   5.337554  0.109977 -1.538884
      ESP Fit Center  776 is at   4.795857  0.984848 -1.538884
      ESP Fit Center  777 is at   3.974699  1.604957 -1.538884
      ESP Fit Center  778 is at   2.984983  1.886556 -1.538884
      ESP Fit Center  779 is at   4.795857 -2.787848 -1.538884
      ESP Fit Center  780 is at   5.337554 -1.912977 -1.538884
      ESP Fit Center  781 is at   5.313495 -0.901500 -2.610398
      ESP Fit Center  782 is at   5.089849  0.150672 -2.610398
      ESP Fit Center  783 is at   4.457581  1.020914 -2.610398
      ESP Fit Center  784 is at   3.526017  1.558753 -2.610398
      ESP Fit Center  785 is at   2.456231  1.671192 -2.610398
      ESP Fit Center  786 is at   0.633816  0.619020 -2.610398
      ESP Fit Center  787 is at   0.196298 -0.363661 -2.610398
      ESP Fit Center  788 is at   5.089849 -1.953672 -2.610398
      ESP Fit Center  789 is at   4.706531 -0.901500 -3.518783
      ESP Fit Center  790 is at   4.441275  0.088449 -3.518783
      ESP Fit Center  791 is at   3.716581  0.813143 -3.518783
      ESP Fit Center  792 is at   2.726632  1.078399 -3.518783
      ESP Fit Center  793 is at   1.736683  0.813143 -3.518783
      ESP Fit Center  794 is at   1.011989  0.088449 -3.518783
      ESP Fit Center  795 is at   0.746733 -0.901500 -3.518783
      ESP Fit Center  796 is at   4.441275 -1.891449 -3.518783
      ESP Fit Center  797 is at   3.798146 -0.901500 -4.125747
      ESP Fit Center  798 is at   3.262389  0.026458 -4.125747
      ESP Fit Center  799 is at   2.190875  0.026458 -4.125747
      ESP Fit Center  800 is at   1.655118 -0.901500 -4.125747
      ESP Fit Center  801 is at   2.726632 -0.901500 -4.338884
      ESP Fit Center  802 is at   1.801442 -2.831628  1.457146
      ESP Fit Center  803 is at   2.761442 -2.831628  1.199915
      ESP Fit Center  804 is at   0.841442 -2.831628  1.199915
      ESP Fit Center  805 is at   1.321442 -3.663012  1.199915
      ESP Fit Center  806 is at   2.281442 -3.663012  1.199915
      ESP Fit Center  807 is at   3.464211 -2.831628  0.497146
      ESP Fit Center  808 is at   0.138673 -2.831628  0.497146
      ESP Fit Center  809 is at   3.146650 -3.808979  0.497146
      ESP Fit Center  810 is at  -1.069416 -2.022609 -0.477872
      ESP Fit Center  811 is at  -0.751855 -2.999960 -0.477872
      ESP Fit Center  812 is at  -1.326647 -2.022609 -1.437872
      ESP Fit Center  813 is at  -1.069416 -2.982609 -1.437872
      ESP Fit Center  814 is at   0.079529 -0.441222 -2.397872
      ESP Fit Center  815 is at  -1.069416 -2.022609 -2.397872
      ESP Fit Center  816 is at   0.113353 -1.191225 -3.100641
      ESP Fit Center  817 is at  -0.366647 -2.022609 -3.100641
      ESP Fit Center  818 is at   4.614916 -3.599665 -1.618216
      ESP Fit Center  819 is at   4.872147 -3.599665 -2.578216
      ESP Fit Center  820 is at   4.614916 -4.559665 -2.578216
      ESP Fit Center  821 is at   4.614916 -3.599665 -3.538216
      ESP Fit Center  822 is at   4.297355 -2.622314 -3.538216
      ESP Fit Center  823 is at   4.297355 -4.577016 -3.538216
      ESP Fit Center  824 is at   3.912147 -3.599665 -4.240985
      ESP Fit Center  825 is at   3.432147 -4.431049 -4.240985
      ESP Fit Center  826 is at   0.066730 -1.834079 -3.516354
      ESP Fit Center  827 is at   3.392268 -2.794079 -4.476354
      ESP Fit Center  828 is at   3.074707 -1.816728 -4.476354
      ESP Fit Center  829 is at   2.243323 -1.212692 -4.476354
      ESP Fit Center  830 is at   1.215675 -1.212692 -4.476354
      ESP Fit Center  831 is at   0.384291 -1.816728 -4.476354
      ESP Fit Center  832 is at   0.066730 -2.794079 -4.476354
      ESP Fit Center  833 is at   2.689499 -2.794079 -5.179123
      ESP Fit Center  834 is at   2.209499 -1.962695 -5.179123
      ESP Fit Center  835 is at   1.249499 -1.962695 -5.179123
      ESP Fit Center  836 is at   0.769499 -2.794079 -5.179123
      ESP Fit Center  837 is at   1.249499 -3.625463 -5.179123
      ESP Fit Center  838 is at   2.209499 -3.625463 -5.179123
      ESP Fit Center  839 is at   1.729499 -2.794079 -5.436354
      ESP Fit Center  840 is at  -0.875709 -3.769309 -0.646871
      ESP Fit Center  841 is at  -1.140965 -4.759258 -0.646871
      ESP Fit Center  842 is at  -1.253882 -3.238738 -1.555256
      ESP Fit Center  843 is at  -1.691400 -4.221419 -1.555256
      ESP Fit Center  844 is at  -1.691400 -5.297097 -1.555256
      ESP Fit Center  845 is at  -1.253882 -6.279778 -1.555256
      ESP Fit Center  846 is at  -0.848443 -2.524810 -2.626770
      ESP Fit Center  847 is at  -1.541674 -3.285248 -2.626770
      ESP Fit Center  848 is at  -1.913391 -4.244759 -2.626770
      ESP Fit Center  849 is at  -1.913391 -5.273757 -2.626770
      ESP Fit Center  850 is at  -1.541674 -6.233268 -2.626770
      ESP Fit Center  851 is at  -0.848443 -6.993706 -2.626770
      ESP Fit Center  852 is at  -0.454497 -2.518969 -3.698284
      ESP Fit Center  853 is at  -1.253882 -3.238738 -3.698284
      ESP Fit Center  854 is at  -1.691400 -4.221419 -3.698284
      ESP Fit Center  855 is at  -1.691400 -5.297097 -3.698284
      ESP Fit Center  856 is at  -1.253882 -6.279778 -3.698284
      ESP Fit Center  857 is at  -0.454497 -6.999547 -3.698284
      ESP Fit Center  858 is at   0.568533 -7.331950 -3.698284
      ESP Fit Center  859 is at   2.818833 -4.759258 -4.606669
      ESP Fit Center  860 is at  -0.151015 -3.044615 -4.606669
      ESP Fit Center  861 is at  -0.875709 -3.769309 -4.606669
      ESP Fit Center  862 is at  -1.140965 -4.759258 -4.606669
      ESP Fit Center  863 is at  -0.875709 -5.749207 -4.606669
      ESP Fit Center  864 is at  -0.151015 -6.473901 -4.606669
      ESP Fit Center  865 is at   0.838934 -6.739157 -4.606669
      ESP Fit Center  866 is at   1.910448 -4.759258 -5.213633
      ESP Fit Center  867 is at   1.374691 -3.831300 -5.213633
      ESP Fit Center  868 is at   0.303177 -3.831300 -5.213633
      ESP Fit Center  869 is at  -0.232580 -4.759258 -5.213633
      ESP Fit Center  870 is at   0.303177 -5.687216 -5.213633
      ESP Fit Center  871 is at   1.374691 -5.687216 -5.213633
      ESP Fit Center  872 is at   0.838934 -4.759258 -5.426770
      ESP Fit Center  873 is at   0.848546 -6.627215  0.981756
      ESP Fit Center  874 is at  -0.970621 -5.725405 -0.646519
      ESP Fit Center  875 is at  -0.262166 -6.575054  0.495273
      ESP Fit Center  876 is at   0.217834 -7.406438  0.495273
      ESP Fit Center  877 is at  -0.964935 -6.575054 -0.207496
      ESP Fit Center  878 is at  -0.647374 -7.552405 -0.207496
      ESP Fit Center  879 is at   0.184010 -8.156441 -0.207496
      ESP Fit Center  880 is at   1.211658 -8.156441 -0.207496
      ESP Fit Center  881 is at  -1.222166 -6.575054 -1.167496
      ESP Fit Center  882 is at  -0.964935 -7.535054 -1.167496
      ESP Fit Center  883 is at  -0.262166 -8.237823 -1.167496
      ESP Fit Center  884 is at   0.697834 -8.495054 -1.167496
      ESP Fit Center  885 is at  -0.647374 -7.552405 -2.127496
      ESP Fit Center  886 is at   0.184010 -8.156441 -2.127496
      ESP Fit Center  887 is at   1.182720 -5.157800  1.643108
      ESP Fit Center  888 is at   2.142720 -5.157800  1.385877
      ESP Fit Center  889 is at   1.662720 -4.326416  1.385877
      ESP Fit Center  890 is at   0.702720 -4.326416  1.385877
      ESP Fit Center  891 is at   0.222720 -5.157800  1.385877
      ESP Fit Center  892 is at   0.702720 -5.989184  1.385877
      ESP Fit Center  893 is at   1.662720 -5.989184  1.385877
      ESP Fit Center  894 is at  -0.162488 -4.180449  0.683108
      ESP Fit Center  895 is at  -0.480049 -5.157800  0.683108
      ESP Fit Center  896 is at  -0.162488 -6.135151  0.683108
      ESP Fit Center  897 is at   3.338316 -5.310364  0.999297
      ESP Fit Center  898 is at   4.460635 -5.372894  0.516420
      ESP Fit Center  899 is at   3.980635 -4.541510  0.516420
      ESP Fit Center  900 is at   4.845843 -4.395543 -0.186349
      ESP Fit Center  901 is at   4.014459 -3.791507 -0.186349
      ESP Fit Center  902 is at   5.163404 -4.412894 -1.146349
      ESP Fit Center  903 is at   4.460635 -3.710125 -1.146349
      ESP Fit Center  904 is at   4.845843 -4.395543 -2.106349
      ESP Fit Center  905 is at   2.967084 -6.770143  1.675644
      ESP Fit Center  906 is at   3.927084 -6.770143  1.418413
      ESP Fit Center  907 is at   3.447084 -5.938759  1.418413
      ESP Fit Center  908 is at   2.487084 -5.938759  1.418413
      ESP Fit Center  909 is at   2.007084 -6.770143  1.418413
      ESP Fit Center  910 is at   2.487084 -7.601527  1.418413
      ESP Fit Center  911 is at   3.447084 -7.601527  1.418413
      ESP Fit Center  912 is at   4.629853 -6.770143  0.715644
      ESP Fit Center  913 is at   4.312292 -5.792792  0.715644
      ESP Fit Center  914 is at   1.621876 -7.747494  0.715644
      ESP Fit Center  915 is at   2.453260 -8.351530  0.715644
      ESP Fit Center  916 is at   3.480908 -8.351530  0.715644
      ESP Fit Center  917 is at   2.007084 -8.432912 -0.244356
      ESP Fit Center  918 is at   1.486634 -8.298888 -0.583996
      ESP Fit Center  919 is at   2.211328 -9.023582 -0.583996
      ESP Fit Center  920 is at   1.108461 -8.829459 -1.492381
      ESP Fit Center  921 is at   1.907846 -9.549228 -1.492381
      ESP Fit Center  922 is at   2.930876 -9.881631 -1.492381
      ESP Fit Center  923 is at   0.820669 -8.782949 -2.563895
      ESP Fit Center  924 is at   1.513900 -9.543387 -2.563895
      ESP Fit Center  925 is at   2.435021-10.002051 -2.563895
      ESP Fit Center  926 is at   4.932226 -5.386525 -3.635409
      ESP Fit Center  927 is at   4.000662 -4.848686 -3.635409
      ESP Fit Center  928 is at   0.670943 -7.846778 -3.635409
      ESP Fit Center  929 is at   1.108461 -8.829459 -3.635409
      ESP Fit Center  930 is at   1.907846 -9.549228 -3.635409
      ESP Fit Center  931 is at   2.930876 -9.881631 -3.635409
      ESP Fit Center  932 is at   5.181176 -7.308939 -4.543794
      ESP Fit Center  933 is at   4.915920 -6.318990 -4.543794
      ESP Fit Center  934 is at   4.191226 -5.594296 -4.543794
      ESP Fit Center  935 is at   3.201277 -5.329040 -4.543794
      ESP Fit Center  936 is at   1.221378 -7.308939 -4.543794
      ESP Fit Center  937 is at   1.486634 -8.298888 -4.543794
      ESP Fit Center  938 is at   2.211328 -9.023582 -4.543794
      ESP Fit Center  939 is at   3.201277 -9.288838 -4.543794
      ESP Fit Center  940 is at   4.191226 -9.023582 -4.543794
      ESP Fit Center  941 is at   4.915920 -8.298888 -4.543794
      ESP Fit Center  942 is at   4.272791 -7.308939 -5.150758
      ESP Fit Center  943 is at   3.737034 -6.380981 -5.150758
      ESP Fit Center  944 is at   2.665520 -6.380981 -5.150758
      ESP Fit Center  945 is at   2.129763 -7.308939 -5.150758
      ESP Fit Center  946 is at   2.665520 -8.236897 -5.150758
      ESP Fit Center  947 is at   3.737034 -8.236897 -5.150758
      ESP Fit Center  948 is at   3.201277 -7.308939 -5.363895
      ESP Fit Center  949 is at   5.220583-10.414003 -1.412928
      ESP Fit Center  950 is at   6.158781 -9.962190 -1.412928
      ESP Fit Center  951 is at   4.483198 -8.588157  0.933162
      ESP Fit Center  952 is at   5.443198 -8.588157  0.675931
      ESP Fit Center  953 is at   4.963198 -7.756773  0.675931
      ESP Fit Center  954 is at   3.523198 -8.588157  0.675931
      ESP Fit Center  955 is at   4.003198 -9.419541  0.675931
      ESP Fit Center  956 is at   4.963198 -9.419541  0.675931
      ESP Fit Center  957 is at   3.137990 -9.565508 -0.026838
      ESP Fit Center  958 is at   3.969374-10.169544 -0.026838
      ESP Fit Center  959 is at   4.997022-10.169544 -0.026838
      ESP Fit Center  960 is at   5.828406 -9.565508 -0.026838
      ESP Fit Center  961 is at   3.523198-10.250926 -0.986838
      ESP Fit Center  962 is at   4.483198-10.508157 -0.986838
      ESP Fit Center  963 is at   5.443198-10.250926 -0.986838
      ESP Fit Center  964 is at   4.359845-10.522610 -1.687541
      ESP Fit Center  965 is at   5.387493-10.522610 -1.687541
      ESP Fit Center  966 is at   3.913669-10.603992 -2.647541
      ESP Fit Center  967 is at   4.873669-10.861223 -2.647541
      ESP Fit Center  968 is at   5.833669-10.603992 -2.647541
      ESP Fit Center  969 is at   6.536438 -9.901223 -2.647541
      ESP Fit Center  970 is at   6.536438 -8.941223 -3.607541
      ESP Fit Center  971 is at   3.528461 -9.918574 -3.607541
      ESP Fit Center  972 is at   4.359845-10.522610 -3.607541
      ESP Fit Center  973 is at   5.387493-10.522610 -3.607541
      ESP Fit Center  974 is at   6.218877 -9.918574 -3.607541
      ESP Fit Center  975 is at   5.833669 -8.941223 -4.310310
      ESP Fit Center  976 is at   5.353669 -8.109839 -4.310310
      ESP Fit Center  977 is at   4.393669 -9.772607 -4.310310
      ESP Fit Center  978 is at   5.353669 -9.772607 -4.310310
      ESP Fit Center  979 is at   4.873669 -8.941223 -4.567541
      ESP Fit Center  980 is at   6.979460 -7.245124  0.303984
      ESP Fit Center  981 is at   8.046250 -6.229911 -1.324291
      ESP Fit Center  982 is at   8.046250 -6.229911 -2.392391
      ESP Fit Center  983 is at   5.417479 -4.963961 -2.392391
      ESP Fit Center  984 is at   6.717622 -8.951953 -3.354717
      ESP Fit Center  985 is at   7.516663 -8.259580 -3.354717
      ESP Fit Center  986 is at   5.805038 -6.440224  0.776358
      ESP Fit Center  987 is at   6.765038 -6.440224  0.519127
      ESP Fit Center  988 is at   6.285038 -5.608840  0.519127
      ESP Fit Center  989 is at   5.325038 -5.608840  0.519127
      ESP Fit Center  990 is at   4.845038 -6.440224  0.519127
      ESP Fit Center  991 is at   5.325038 -7.271608  0.519127
      ESP Fit Center  992 is at   6.285038 -7.271608  0.519127
      ESP Fit Center  993 is at   7.467807 -6.440224 -0.183642
      ESP Fit Center  994 is at   7.150246 -5.462873 -0.183642
      ESP Fit Center  995 is at   6.318862 -4.858837 -0.183642
      ESP Fit Center  996 is at   5.291214 -4.858837 -0.183642
      ESP Fit Center  997 is at   7.467807 -5.480224 -1.143642
      ESP Fit Center  998 is at   6.765038 -4.777455 -1.143642
      ESP Fit Center  999 is at   5.805038 -4.520224 -1.143642
      ESP Fit Center 1000 is at   6.318862 -4.858837 -2.103642
      ESP Fit Center 1001 is at   5.291214 -4.858837 -2.103642
      ESP Fit Center 1002 is at   6.794420 -7.831543  0.383055
      ESP Fit Center 1003 is at   7.754420 -7.831543  0.125824
      ESP Fit Center 1004 is at   7.274420 -7.000159  0.125824
      ESP Fit Center 1005 is at   6.314420 -8.662927  0.125824
      ESP Fit Center 1006 is at   7.274420 -8.662927  0.125824
      ESP Fit Center 1007 is at   8.457189 -7.831543 -0.576945
      ESP Fit Center 1008 is at   8.139628 -6.854192 -0.576945
      ESP Fit Center 1009 is at   6.280596 -9.412930 -0.576945
      ESP Fit Center 1010 is at   7.308244 -9.412930 -0.576945
      ESP Fit Center 1011 is at   8.139628 -8.808894 -0.576945
      ESP Fit Center 1012 is at   8.714420 -7.831543 -1.536945
      ESP Fit Center 1013 is at   8.457189 -6.871543 -1.536945
      ESP Fit Center 1014 is at   6.794420 -9.751543 -1.536945
      ESP Fit Center 1015 is at   7.754420 -9.494312 -1.536945
      ESP Fit Center 1016 is at   8.457189 -8.791543 -1.536945
      ESP Fit Center 1017 is at   8.457189 -7.831543 -2.496945
      ESP Fit Center 1018 is at   7.308244 -9.412930 -2.496945
      ESP Fit Center 1019 is at   8.139628 -8.808894 -2.496945
      ESP Fit Center 1020 is at   7.830996 -5.844611 -2.821507
      ESP Fit Center 1021 is at   7.128227 -5.141842 -2.821507
      ESP Fit Center 1022 is at   6.168227 -4.884611 -2.821507
      ESP Fit Center 1023 is at   5.208227 -5.141842 -2.821507
      ESP Fit Center 1024 is at   7.830996 -6.804611 -3.781507
      ESP Fit Center 1025 is at   7.513435 -5.827260 -3.781507
      ESP Fit Center 1026 is at   6.682051 -5.223224 -3.781507
      ESP Fit Center 1027 is at   5.654403 -5.223224 -3.781507
      ESP Fit Center 1028 is at   7.513435 -7.781962 -3.781507
      ESP Fit Center 1029 is at   7.128227 -6.804611 -4.484276
      ESP Fit Center 1030 is at   6.648227 -5.973227 -4.484276
      ESP Fit Center 1031 is at   5.688227 -5.973227 -4.484276
      ESP Fit Center 1032 is at   5.208227 -6.804611 -4.484276
      ESP Fit Center 1033 is at   5.688227 -7.635995 -4.484276
      ESP Fit Center 1034 is at   6.648227 -7.635995 -4.484276
      ESP Fit Center 1035 is at   6.168227 -6.804611 -4.741507
      ESP Fit Center 1036 is at  -4.221140  8.625108 -1.129794
      ESP Fit Center 1037 is at  -5.199686  8.178220 -1.129794
      ESP Fit Center 1038 is at  -5.781287  7.273233 -1.129794
      ESP Fit Center 1039 is at  -5.781287  6.197471 -1.129794
      ESP Fit Center 1040 is at  -1.454959  6.735352 -2.005737
      ESP Fit Center 1041 is at  -2.394154  8.685611 -2.005737
      ESP Fit Center 1042 is at  -3.394361  9.167285 -2.005737
      ESP Fit Center 1043 is at  -4.504507  9.167285 -2.005737
      ESP Fit Center 1044 is at  -3.949434  9.435352 -3.038982
      ESP Fit Center 1045 is at  -4.221140  8.625108 -4.948170
      ESP Fit Center 1046 is at  -4.466057  7.630169 -5.533457
      ESP Fit Center 1047 is at  -3.781315  6.677534  0.191028
      ESP Fit Center 1048 is at  -2.701315  6.677534 -0.098357
[...]
 1344 Fit      -0.008529
 1345 Fit      -0.009142
 1346 Fit      -0.002311
 1347 Fit      -0.007079
 1348 Fit       0.000265
 1349 Fit      -0.003781
 1350 Fit      -0.007094
 1351 Fit      -0.010672
 1352 Fit      -0.012837
 1353 Fit      -0.009927
 1354 Fit      -0.020122
 1355 Fit      -0.004848
 1356 Fit      -0.009975
 1357 Fit      -0.009608
 1358 Fit      -0.004265
 1359 Fit      -0.003824
 1360 Fit      -0.007008
 1361 Fit      -0.005482
 1362 Fit      -0.003651
 1363 Fit      -0.004940
 1364 Fit      -0.011878
 1365 Fit      -0.005561
 1366 Fit      -0.008559
 1367 Fit      -0.006455
 1368 Fit      -0.015443
 1369 Fit      -0.014073
 1370 Fit      -0.007941
 1371 Fit      -0.013752
 1372 Fit      -0.018720
 1373 Fit      -0.018526
 1374 Fit      -0.014087
 1375 Fit      -0.007686
 1376 Fit      -0.006238
 1377 Fit      -0.013685
 1378 Fit      -0.019092
 1379 Fit      -0.020333
 1380 Fit      -0.018105
 1381 Fit      -0.014927
 1382 Fit      -0.014398
 1383 Fit      -0.011426
 1384 Fit      -0.017504
 1385 Fit      -0.020527
 1386 Fit      -0.020881
 1387 Fit      -0.021062
 1388 Fit      -0.024380
 1389 Fit      -0.025098
 1390 Fit      -0.008306
 1391 Fit      -0.015351
 1392 Fit      -0.020412
 1393 Fit      -0.023553
 1394 Fit      -0.027245
 1395 Fit      -0.033392
 1396 Fit      -0.023798
 1397 Fit      -0.013104
 1398 Fit      -0.013953
 1399 Fit      -0.020905
 1400 Fit      -0.027141
 1401 Fit      -0.030849
 1402 Fit      -0.022166
 1403 Fit       0.010886
 1404 Fit       0.005831
 1405 Fit       0.010542
 1406 Fit      -0.000826
 1407 Fit       0.006336
 1408 Fit       0.007569
 1409 Fit       0.001064
 1410 Fit       0.003601
 1411 Fit       0.004506
 1412 Fit       0.003883
 1413 Fit      -0.000411
 1414 Fit       0.000647
 1415 Fit      -0.001999
 1416 Fit      -0.006447
 1417 Fit       0.012197
 1418 Fit       0.014966
 1419 Fit       0.014187
 1420 Fit       0.010237
 1421 Fit       0.008715
 1422 Fit       0.010300
 1423 Fit       0.014174
 1424 Fit       0.003838
 1425 Fit       0.003426
 1426 Fit       0.004868
 1427 Fit       0.013817
 1428 Fit       0.012306
 1429 Fit       0.011323
 1430 Fit       0.008598
 1431 Fit       0.005762
 1432 Fit       0.001146
 1433 Fit       0.001284
 1434 Fit       0.013424
 1435 Fit       0.013280
 1436 Fit       0.013225
 1437 Fit       0.014869
 1438 Fit       0.013489
 1439 Fit       0.012587
 1440 Fit       0.013590
 1441 Fit       0.013695
 1442 Fit       0.009809
 1443 Fit       0.010939
 1444 Fit       0.000891
 1445 Fit      -0.010245
 1446 Fit      -0.008921
 1447 Fit      -0.018138
 1448 Fit      -0.017392
 1449 Fit      -0.010779
 1450 Fit      -0.021258
 1451 Fit      -0.023138
 1452 Fit      -0.020307
 1453 Fit      -0.012615
 1454 Fit      -0.016427
 1455 Fit      -0.019475
 1456 Fit      -0.026483
 1457 Fit      -0.023965
 1458 Fit      -0.018275
 1459 Fit      -0.009179
 1460 Fit      -0.011622
 1461 Fit      -0.019204
 1462 Fit      -0.025752
 1463 Fit      -0.030825
 1464 Fit      -0.032175
 1465 Fit      -0.026339
 1466 Fit      -0.020664
 1467 Fit      -0.013071
 1468 Fit      -0.006764
 1469 Fit      -0.006622
 1470 Fit      -0.019444
 1471 Fit      -0.027040
 1472 Fit      -0.031789
 1473 Fit      -0.029065
 1474 Fit      -0.022136
 1475 Fit      -0.016496
 1476 Fit      -0.024911
 1477 Fit       0.007372
 1478 Fit      -0.001645
 1479 Fit       0.007661
 1480 Fit       0.012240
 1481 Fit       0.010253
 1482 Fit       0.012836
 1483 Fit       0.013581
 1484 Fit       0.009753
 1485 Fit       0.009623
 1486 Fit       0.005796
 1487 Fit       0.005104
 1488 Fit       0.006315
 1489 Fit       0.007391
 1490 Fit       0.008536
 1491 Fit      -0.004124
 1492 Fit       0.001395
 1493 Fit       0.004341
 1494 Fit       0.005706
 1495 Fit       0.000855
 1496 Fit       0.004380
 1497 Fit       0.006106
 1498 Fit       0.007002
 1499 Fit      -0.003287
 1500 Fit       0.002457
 1501 Fit       0.004988
 1502 Fit       0.005514
 1503 Fit       0.002083
 1504 Fit      -0.000951
 1505 Fit       0.002819
 1506 Fit      -0.002223
 1507 Fit       0.005374
 1508 Fit       0.007512
 1509 Fit       0.001532
 1510 Fit       0.000301
 1511 Fit      -0.000551
 1512 Fit      -0.000896
 1513 Fit       0.000573
 1514 Fit       0.004333
 1515 Fit       0.001288
 1516 Fit       0.009347
 1517 Fit       0.005736
 1518 Fit       0.007464
 1519 Fit       0.011136
 1520 Fit       0.003623
 1521 Fit       0.005014
 1522 Fit       0.008295
 1523 Fit       0.001126
 1524 Fit       0.002317
 1525 Fit      -0.000831
 1526 Fit       0.005419
 1527 Fit       0.007011
 1528 Fit       0.004972
 1529 Fit       0.003030
 1530 Fit       0.008260
 1531 Fit       0.007359
 1532 Fit       0.006505
 1533 Fit       0.003907
 1534 Fit       0.001872
 1535 Fit       0.007347
 1536 Fit       0.006509
 1537 Fit       0.005512
 1538 Fit       0.002134
 1539 Fit       0.005466
 1540 Fit       0.003921
 1541 Fit      -0.000565
 1542 Fit      -0.001671
 1543 Fit      -0.003388
 1544 Fit       0.000160
 1545 Fit      -0.000593
 1546 Fit      -0.002666
 1547 Fit      -0.007095
 1548 Fit       0.000638
 1549 Fit      -0.000761
 1550 Fit      -0.003161
 1551 Fit      -0.010693
 1552 Fit      -0.004586
 1553 Fit      -0.000651
 1554 Fit      -0.004935
 1555 Fit       0.005393
 1556 Fit       0.006808
 1557 Fit       0.008983
 1558 Fit       0.001778
 1559 Fit       0.002118
 1560 Fit       0.002476
 1561 Fit       0.003266
 1562 Fit       0.009305
 1563 Fit       0.002010
 1564 Fit       0.002423
 1565 Fit       0.002467
 1566 Fit       0.003168
 1567 Fit       0.003394
 1568 Fit       0.002401
 1569 Fit       0.005019
 1570 Fit       0.008315
 1571 Fit       0.007529
 1572 Fit       0.006480
 1573 Fit       0.006854
 1574 Fit       0.008303
 1575 Fit       0.009959
 1576 Fit       0.004530
 1577 Fit       0.004410
 1578 Fit       0.004788
 1579 Fit       0.005645
 1580 Fit       0.007015
 1581 Fit       0.009069
 1582 Fit       0.011367
 1583 Fit       0.001428
 1584 Fit      -0.001459
 1585 Fit       0.000934
 1586 Fit       0.001962
 1587 Fit       0.002145
 1588 Fit      -0.002911
 1589 Fit       0.000631
 1590 Fit       0.002068
 1591 Fit       0.002392
 1592 Fit      -0.003422
 1593 Fit       0.000637
 1594 Fit       0.002080
 1595 Fit       0.002502
 1596 Fit      -0.002199
 1597 Fit       0.001247
 1598 Fit       0.001018
 1599 Fit       0.004437
 1600 Fit       0.005919
 1601 Fit       0.007064
 1602 Fit       0.004924
 1603 Fit       0.006432
 1604 Fit       0.007543
 1605 Fit       0.008513
 1606 Fit       0.010242
 1607 Fit       0.003259
 1608 Fit       0.005061
 1609 Fit       0.006661
 1610 Fit       0.007852
 1611 Fit       0.008901
 1612 Fit       0.004740
 1613 Fit       0.006567
 1614 Fit       0.008034
 1615 Fit       0.009732
 1616 Fit       0.005913
 1617 Fit       0.008360
 1618 Fit       0.009373
 1619 Fit      -0.000010
 1620 Fit       0.008300
 1621 Fit       0.006385
 1622 Fit       0.003722
 1623 Fit      -0.000375
 1624 Fit      -0.004939
 1625 Fit       0.011194
 1626 Fit       0.010157
 1627 Fit       0.010432
 1628 Fit       0.011505
 1629 Fit       0.010025
 1630 Fit       0.009395
 1631 Fit       0.009129
 1632 Fit       0.009236
 1633 Fit       0.009866
 1634 Fit       0.008381
 1635 Fit       0.007373
 1636 Fit       0.006301
 1637 Fit       0.004628
 1638 Fit       0.006254
 1639 Fit       0.003878
 1640 Fit       0.008797
 1641 Fit       0.007480
 1642 Fit      -0.010788
 1643 Fit      -0.002760
 1644 Fit       0.002398
 1645 Fit       0.005180
 1646 Fit       0.006621
 1647 Fit       0.006414
 1648 Fit       0.004778
 1649 Fit       0.001674
 1650 Fit      -0.003682
 1651 Fit      -0.003149
 1652 Fit       0.001515
 1653 Fit       0.004282
 1654 Fit       0.003979
 1655 Fit       0.000752
 1656 Fit      -0.003683
 1657 Fit       0.001274
 1658 Fit      -0.013718
 1659 Fit      -0.005003
 1660 Fit      -0.017142
 1661 Fit      -0.015730
 1662 Fit      -0.010268
 1663 Fit      -0.012558
 1664 Fit      -0.015935
 1665 Fit      -0.016836
 1666 Fit      -0.012022
 1667 Fit      -0.016425
 1668 Fit       0.009312
 1669 Fit       0.010924
 1670 Fit       0.001758
 1671 Fit       0.011898
 1672 Fit       0.011869
 1673 Fit       0.012679
 1674 Fit       0.012219
 1675 Fit       0.011989
 1676 Fit       0.009760
 1677 Fit       0.009991
 1678 Fit       0.005002
 1679 Fit       0.004401
 1680 Fit      -0.001694
 1681 Fit       0.004509
 1682 Fit       0.007744
 1683 Fit       0.008312
 1684 Fit       0.001132
 1685 Fit       0.005108
 1686 Fit       0.011022
 1687 Fit      -0.000199
 1688 Fit       0.002387
 1689 Fit      -0.000727
 1690 Fit      -0.004555
 1691 Fit      -0.008785
 1692 Fit      -0.009539
 1693 Fit      -0.006281
 1694 Fit      -0.008435
 1695 Fit       0.004409
 1696 Fit       0.005411
 1697 Fit      -0.005648
 1698 Fit      -0.003070
 1699 Fit       0.000782
 1700 Fit       0.000464
 1701 Fit      -0.002278
 1702 Fit      -0.005524
 1703 Fit      -0.006454
 1704 Fit      -0.009526
 1705 Fit      -0.003064
 1706 Fit      -0.003741
 1707 Fit      -0.007888
 1708 Fit      -0.004590
 1709 Fit      -0.001818
 1710 Fit      -0.004308
 1711 Fit      -0.002149
 1712 Fit      -0.001168
 1713 Fit      -0.001271
 1714 Fit      -0.004313
 1715 Fit      -0.002203
 1716 Fit      -0.002225
 1717 Fit      -0.005133
 1718 Fit      -0.008587
 1719 Fit      -0.004716
 1720 Fit      -0.003951
 1721 Fit      -0.007109
 1722 Fit      -0.006960
 1723 Fit      -0.006447
 1724 Fit      -0.009956
 1725 Fit      -0.007972
 1726 Fit      -0.005258
 1727 Fit      -0.008877
 1728 Fit      -0.006221
 1729 Fit       0.007734
 1730 Fit       0.007664
 1731 Fit       0.007541
 1732 Fit       0.001315
 1733 Fit       0.004031
 1734 Fit      -0.000954
 1735 Fit       0.005991
 1736 Fit       0.003002
 1737 Fit      -0.000702
 1738 Fit      -0.002974
 1739 Fit       0.002089
 1740 Fit      -0.000981
 1741 Fit       0.013938
 1742 Fit       0.012156
 1743 Fit       0.013020
 1744 Fit       0.013269
 1745 Fit       0.012930
 1746 Fit       0.012179
 1747 Fit       0.012456
 1748 Fit       0.012665
 1749 Fit       0.010930
 1750 Fit       0.010198
 1751 Fit       0.010277
 1752 Fit       0.008247
 1753 Fit       0.005786
 1754 Fit       0.002773
 1755 Fit       0.010564
 1756 Fit       0.011890
 1757 Fit       0.012865
 1758 Fit       0.008810
 1759 Fit       0.006499
 1760 Fit       0.002851
 1761 Fit       0.011522
 1762 Fit       0.009857
 1763 Fit       0.007514
 1764 Fit       0.004164
 1765 Fit      -0.001092
 1766 Fit       0.012604
 1767 Fit       0.009978
 1768 Fit       0.006980
 1769 Fit       0.003140
 1770 Fit      -0.002432
 1771 Fit       0.010359
 1772 Fit       0.006111
 1773 Fit       0.000784
 1774 Fit      -0.006395
 1775 Fit       0.006603
 1776 Fit      -0.000730
 1777 Fit       0.007506
 1778 Fit       0.007320
 1779 Fit       0.007815
 1780 Fit       0.008238
 1781 Fit       0.008613
 1782 Fit       0.006411
 1783 Fit       0.006580
 1784 Fit       0.008508
 1785 Fit       0.010236
 1786 Fit       0.000331
 1787 Fit       0.002545
 1788 Fit       0.007249
 1789 Fit       0.011588
 1790 Fit      -0.001385
 1791 Fit      -0.005381
 1792 Fit      -0.006955
 1793 Fit       0.002557
 1794 Fit       0.004907
 1795 Fit       0.002056
 1796 Fit       0.007323
 1797 Fit       0.008143
 1798 Fit       0.007665
 1799 Fit       0.007544
 1800 Fit       0.007621
 1801 Fit       0.005305
 1802 Fit       0.007147
 1803 Fit       0.008524
 1804 Fit       0.006901
 1805 Fit       0.005865
 1806 Fit       0.006981
 1807 Fit       0.004079
 1808 Fit       0.001422
 1809 Fit      -0.002097
 1810 Fit      -0.000407
 1811 Fit      -0.004104
 1812 Fit      -0.006283
 1813 Fit      -0.004864
 1814 Fit      -0.009966
 1815 Fit       0.008136
 1816 Fit       0.005548
 1817 Fit       0.009450
 1818 Fit       0.000946
 1819 Fit       0.006955
 1820 Fit       0.006815
 1821 Fit       0.007493
 1822 Fit       0.007174
 1823 Fit       0.004579
 1824 Fit       0.006372
 1825 Fit       0.007485
 1826 Fit       0.005077
 1827 Fit       0.003533
 1828 Fit       0.008587
 1829 Fit       0.008287
 1830 Fit       0.005831
 1831 Fit       0.006544
 1832 Fit       0.008300
 1833 Fit       0.004782
 1834 Fit       0.006804
 1835 Fit       0.008335
 1836 Fit       0.002008
 1837 Fit       0.004901
 1838 Fit       0.006636
 1839 Fit       0.007756
 1840 Fit       0.002107
 1841 Fit       0.004343
 1842 Fit       0.005455
 1843 Fit       0.000979
 1844 Fit       0.005484
 1845 Fit       0.000111
 1846 Fit      -0.005701
 1847 Fit      -0.001651
 1848 Fit      -0.006534
 1849 Fit      -0.010677
 1850 Fit      -0.006124
 1851 Fit      -0.006689
 1852 Fit      -0.011341
 1853 Fit      -0.013997
 1854 Fit      -0.010999
 1855 Fit      -0.006695
 1856 Fit      -0.002759
 1857 Fit      -0.000493
 1858 Fit      -0.009999
 1859 Fit      -0.014122
 1860 Fit      -0.015574
 1861 Fit      -0.013731
 1862 Fit      -0.010924
 1863 Fit      -0.008789
 1864 Fit      -0.008124
 1865 Fit      -0.008616
 1866 Fit      -0.009793
 1867 Fit      -0.014734
 1868 Fit      -0.015866
 1869 Fit      -0.015424
 1870 Fit      -0.014330
 1871 Fit      -0.013998
 1872 Fit      -0.014691
 1873 Fit      -0.015726
 1874 Fit      -0.015442
 1875 Fit      -0.011570
 1876 Fit      -0.006916
 1877 Fit      -0.014025
 1878 Fit      -0.015409
 1879 Fit      -0.016386
 1880 Fit      -0.016877
 1881 Fit      -0.017583
 1882 Fit      -0.017441
 1883 Fit      -0.014525
 1884 Fit      -0.012659
 1885 Fit      -0.014346
 1886 Fit      -0.016513
 1887 Fit      -0.015929
 1888 Fit      -0.012342
 1889 Fit      -0.004246
 1890 Fit       0.009242
 1891 Fit       0.003444
 1892 Fit       0.010844
 1893 Fit       0.012417
 1894 Fit       0.001652
 1895 Fit       0.011582
 1896 Fit      -0.007537
 1897 Fit      -0.004339
 1898 Fit      -0.010020
 1899 Fit      -0.017408
 1900 Fit      -0.003218
 1901 Fit      -0.006152
 1902 Fit      -0.008819
 1903 Fit      -0.010462
 1904 Fit      -0.010873
 1905 Fit      -0.007271
 1906 Fit      -0.004521
 1907 Fit      -0.008885
 1908 Fit      -0.009551
 1909 Fit      -0.008541
 1910 Fit      -0.005010
 1911 Fit      -0.005109
 1912 Fit      -0.007914
 1913 Fit      -0.006418
 1914 Fit      -0.005070
 1915 Fit      -0.006488
 1916 Fit      -0.012017
 1917 Fit      -0.006930
 1918 Fit      -0.004520
 1919 Fit      -0.002633
 1920 Fit      -0.009716
 1921 Fit      -0.008740
 1922 Fit      -0.004588
 1923 Fit      -0.011648
 1924 Fit      -0.013328
 1925 Fit      -0.011709
 1926 Fit      -0.007622
 1927 Fit      -0.008745
 1928 Fit      -0.013336
 1929 Fit      -0.015421
 1930 Fit      -0.014830
 1931 Fit      -0.012472
 1932 Fit      -0.009838
 1933 Fit      -0.009076
 1934 Fit      -0.004631
 1935 Fit      -0.008481
 1936 Fit      -0.013196
 1937 Fit      -0.016099
 1938 Fit      -0.016631
 1939 Fit      -0.015761
 1940 Fit      -0.015348
 1941 Fit      -0.017960
 1942 Fit      -0.009858
 1943 Fit      -0.014316
 1944 Fit      -0.017107
 1945 Fit      -0.018334
 1946 Fit      -0.019553
 1947 Fit      -0.022919
 1948 Fit      -0.022007
 1949 Fit      -0.008844
 1950 Fit      -0.013599
 1951 Fit      -0.017486
 1952 Fit      -0.020373
 1953 Fit      -0.023661
 1954 Fit      -0.028390
 1955 Fit      -0.020594
 1956 Fit      -0.013094
 1957 Fit      -0.013325
 1958 Fit      -0.018170
 1959 Fit      -0.022934
 1960 Fit      -0.025648
 1961 Fit      -0.019243
 1962 Fit       0.009962
 1963 Fit       0.005706
 1964 Fit       0.007228
 1965 Fit       0.009599
 1966 Fit      -0.000522
 1967 Fit       0.002207
 1968 Fit       0.007103
 1969 Fit       0.003412
 1970 Fit       0.004180
 1971 Fit       0.004466
 1972 Fit      -0.001306
 1973 Fit       0.000887
 1974 Fit       0.000912
 1975 Fit      -0.001076
 1976 Fit      -0.003181
 1977 Fit      -0.003902
 1978 Fit      -0.009076
 1979 Fit      -0.010508
 1980 Fit       0.010775
 1981 Fit       0.013143
 1982 Fit       0.012174
 1983 Fit       0.009048
 1984 Fit       0.007988
 1985 Fit       0.009452
 1986 Fit       0.012482
 1987 Fit       0.004182
 1988 Fit       0.004101
 1989 Fit       0.005138
 1990 Fit       0.012588
 1991 Fit       0.010942
 1992 Fit       0.011884
 1993 Fit       0.010714
 1994 Fit       0.007848
 1995 Fit       0.005977
 1996 Fit       0.000222
 1997 Fit       0.011925
 1998 Fit       0.011852
 1999 Fit       0.012034
 2000 Fit       0.013120
 2001 Fit       0.011977
 2002 Fit       0.011185
 2003 Fit       0.011886
 2004 Fit       0.012074
 2005 Fit       0.011577
 2006 Fit       0.009285
 2007 Fit       0.010097
 2008 Fit       0.004936
 2009 Fit       0.004083
 2010 Fit      -0.004319
 2011 Fit      -0.003708
 2012 Fit      -0.011715
 2013 Fit      -0.010075
 2014 Fit      -0.004902
 2015 Fit      -0.014737
 2016 Fit      -0.016602
 2017 Fit      -0.015003
 2018 Fit      -0.010332
 2019 Fit      -0.010110
 2020 Fit      -0.020121
 2021 Fit      -0.018908
 2022 Fit      -0.015077
 2023 Fit      -0.008612
 2024 Fit      -0.014770
 2025 Fit      -0.018039
 2026 Fit      -0.023264
 2027 Fit      -0.020105
 2028 Fit      -0.015461
 2029 Fit      -0.008935
 2030 Fit      -0.011083
 2031 Fit      -0.016421
 2032 Fit      -0.021475
 2033 Fit      -0.025836
 2034 Fit      -0.027761
 2035 Fit      -0.022664
 2036 Fit      -0.017921
 2037 Fit      -0.012400
 2038 Fit      -0.008046
 2039 Fit      -0.007734
 2040 Fit      -0.016854
 2041 Fit      -0.022422
 2042 Fit      -0.026497
 2043 Fit      -0.024776
 2044 Fit      -0.019334
 2045 Fit      -0.015057
 2046 Fit      -0.021212
 2047 Fit       0.007108
 2048 Fit       0.000554
 2049 Fit       0.003597
 2050 Fit       0.005386
 2051 Fit       0.010999
 2052 Fit       0.009444
 2053 Fit       0.011781
 2054 Fit       0.008946
 2055 Fit       0.008745
 2056 Fit       0.007351
 2057 Fit       0.005655
 2058 Fit       0.006191
 2059 Fit       0.006999
 2060 Fit       0.007867
 2061 Fit       0.000577
 2062 Fit       0.003151
 2063 Fit       0.004899
 2064 Fit       0.001488
 2065 Fit       0.003987
 2066 Fit       0.005526
 2067 Fit      -0.004367
 2068 Fit       0.000912
 2069 Fit       0.003554
 2070 Fit       0.004831
 2071 Fit       0.005238
 2072 Fit       0.000738
 2073 Fit       0.003100
 2074 Fit       0.003648
 2075 Fit       0.000227
 2076 Fit      -0.002718
 2077 Fit       0.000791
 2078 Fit       0.008423
 2079 Fit       0.005622
 2080 Fit       0.007258
 2081 Fit       0.002153
 2082 Fit       0.000980
 2083 Fit       0.000181
 2084 Fit      -0.000027
 2085 Fit      -0.000973
 2086 Fit      -0.002077
 2087 Fit      -0.002911
 2088 Fit       0.000316
 2089 Fit       0.003206
 2090 Fit       0.001534
 2091 Fit       0.002801
 2092 Fit       0.000826
 2093 Fit       0.008744
 2094 Fit       0.005809
 2095 Fit       0.006936
 2096 Fit       0.010052
 2097 Fit       0.003858
 2098 Fit       0.004894
 2099 Fit       0.007599
 2100 Fit       0.001711
 2101 Fit       0.002211
 2102 Fit      -0.000982
 2103 Fit       0.005077
 2104 Fit       0.006368
 2105 Fit       0.004475
 2106 Fit       0.003194
 2107 Fit       0.007636
 2108 Fit       0.006502
 2109 Fit       0.005656
 2110 Fit       0.003745
 2111 Fit       0.002279
 2112 Fit       0.006455
 2113 Fit       0.005800
 2114 Fit       0.004965
 2115 Fit       0.002628
 2116 Fit       0.001098
 2117 Fit       0.005965
 2118 Fit       0.004918
 2119 Fit       0.003932
 2120 Fit       0.001325
 2121 Fit       0.004329
 2122 Fit       0.002769
 2123 Fit       0.000002
 2124 Fit      -0.000737
 2125 Fit      -0.001983
 2126 Fit      -0.004014
 2127 Fit      -0.006701
 2128 Fit      -0.000418
 2129 Fit      -0.001422
 2130 Fit      -0.003637
 2131 Fit      -0.008071
 2132 Fit       0.000185
 2133 Fit      -0.001871
 2134 Fit      -0.004283
 2135 Fit      -0.010748
 2136 Fit      -0.001802
 2137 Fit      -0.005804
 Job cpu time:       0 days  0 hours  4 minutes 54.6 seconds.
 Normal termination of Gaussian 16 at Sat Jul  8 20:59:29 2023.
