 Copyright (c) 1988-2019, Gaussian, Inc.  All Rights Reserved.
  
 This is part of the Gaussian(R) 16 program.  It is based on
 the Gaussian(R) 09 system (copyright 2009, Gaussian, Inc.),
 the Gaussian(R) 03 system (copyright 2003, Gaussian, Inc.),
 the Gaussian(R) 98 system (copyright 1998, Gaussian, Inc.),
 the Gaussian(R) 94 system (copyright 1995, Gaussian, Inc.),
 the Gaussian 92(TM) system (copyright 1992, Gaussian, Inc.),
 the Gaussian 90(TM) system (copyright 1990, Gaussian, Inc.),
 the Gaussian 88(TM) system (copyright 1988, Gaussian, Inc.),
 the Gaussian 86(TM) system (copyright 1986, Carnegie Mellon
 University), and the Gaussian 82(TM) system (copyright 1983,
 Carnegie Mellon University). Gaussian is a federally registered
 trademark of Gaussian, Inc.
 Cite this work as:
 Gaussian 16, Revision C.01,
 M. J. Frisch, G. W. Trucks, H. B. Schlegel, G. E. Scuseria, 
 M. A. Robb, J. R. Cheeseman, G. Scalmani, V. Barone, 
 G. A. Petersson, H. Nakatsuji, X. Li, M. Caricato, A. V. Marenich, 
 J. Bloino, B. G. Janesko, R. Gomperts, B. Mennucci, H. P. Hratchian, 
 J. V. Ortiz, A. F. Izmaylov, J. L. Sonnenberg, D. Williams-Young, 
 F. Ding, F. Lipparini, F. Egidi, J. Goings, B. Peng, A. Petrone, 
 T. Henderson, D. Ranasinghe, V. G. Zakrzewski, J. Gao, N. Rega, 
 G. Zheng, W. Liang, M. Hada, M. Ehara, K. Toyota, R. Fukuda, 
 J. Hasegawa, M. Ishida, T. Nakajima, Y. Honda, O. Kitao, H. Nakai, 
 T. Vreven, K. Throssell, J. A. Montgomery, Jr., J. E. Peralta, 
 F. Ogliaro, M. J. Bearpark, J. J. Heyd, E. N. Brothers, K. N. Kudin, 
 V. N. Staroverov, T. A. Keith, R. Kobayashi, J. Normand, 
 K. Raghavachari, A. P. Rendell, J. C. Burant, S. S. Iyengar, 
 J. Tomasi, M. Cossi, J. M. Millam, M. Klene, C. Adamo, R. Cammi, 
 J. W. Ochterski, R. L. Martin, K. Morokuma, O. Farkas, 
 J. B. Foresman, and D. J. Fox, Gaussian, Inc., Wallingford CT, 2019.
 
 ******************************************
 Gaussian 16:  EM64L-G16RevC.01  3-Jul-2019
                 8-Jul-2023 
 ******************************************
 ----------------------------------------------------------------------
 #P HF/6-31G(d) SCF(Conver=8,XQC,MaxConventionalCycles=64,MaxCycle=128)
  NoSymm Test Pop=mk IOp(6/33=2) GFInput GFPrint
 ----------------------------------------------------------------------
 1/38=1,172=1/1;
 2/12=2,15=1,17=6,18=5,40=1/2;
 3/5=1,6=6,7=1,11=9,24=110,25=1,30=1/1,2,3;
 4//1;
 5/5=2,6=8,7=128,8=3,13=1,38=5,85=64/2,8;
 6/7=2,8=2,9=2,10=2,15=8,20=1,28=1,33=2/1,2;
 99/5=1,9=1/99;
 -------------------------------------------------
 MEP step - Input generated by PyRED DVE-DMDS-OPLS
 -------------------------------------------------
 Symbolic Z-matrix:
 Charge =  0 Multiplicity = 1
 C                    -6.28718   2.53589   4.50784 
 H                    -7.00377   1.74528   4.31681 
 H                    -5.38643   2.08766   4.91133 
 H                    -6.7028    3.20907   5.25145 
 C                    -5.97471   3.28473   3.22701 
 H                    -6.87785   3.74355   2.82505 
 H                    -5.26707   4.08672   3.42788 
 O                    -5.45181   2.37412   2.3046 
 C                    -5.15311   2.87952   1.03914 
 H                    -5.92437   3.57713   0.71346 
 H                    -5.15273   2.03637   0.36099 
 C                    -3.80021   3.56169   0.95539 
 H                    -3.7021    4.02771  -0.02563 
 H                    -3.71724   4.35247   1.69982 
 O                    -2.80148   2.60946   1.14158 
 C                    -1.50582   3.11758   1.14556 
 H                    -1.35808   3.77432   2.00336 
 H                    -1.31164   3.69498   0.24378 
 C                    -0.52624   1.96953   1.22287 
 H                    -0.82203   1.30397   2.02945 
 H                     0.46289   2.36294   1.45133 
 O                    -0.52398   1.29409   0. 
 C                     0.        0.        0. 
 H                    -0.37287  -0.47188  -0.89892 
 H                    -0.3712   -0.56659   0.84956 
 C                     1.52783   0.        0. 
 H                     1.90948   0.41652   0.92423 
 H                     1.89768   0.6179   -0.80974 
 S                     2.25818  -1.65928  -0.11404 
 C                     2.07064  -2.01948  -1.89138 
 H                     1.02528  -2.02991  -2.16627 
 H                     2.55987  -1.23691  -2.45777 
 C                     2.69248  -3.37994  -2.19694 
 H                     2.16483  -4.15669  -1.65814 
 H                     3.72479  -3.41342  -1.8726 
 S                     2.58486  -3.8441   -3.95248 
 C                     3.97351  -2.92218  -4.6871 
 H                     3.97636  -1.91051  -4.30319 
 H                     3.75223  -2.85704  -5.74416 
 C                     5.3275   -3.60006  -4.48594 
 H                     5.54549  -3.74517  -3.43627 
 H                     5.3132   -4.58105  -4.94223 
 S                     6.7062   -2.71336  -5.27642 
 C                     7.04765  -1.36683  -4.09896 
 H                     7.65822  -0.66727  -4.65723 
 H                     6.12453  -0.85194  -3.86088 
 C                     7.77501  -1.79643  -2.82821 
 H                     7.97442  -0.93032  -2.20349 
 H                     7.18717  -2.49438  -2.24235 
 H                     8.71945  -2.27149  -3.06598 
 
 ITRead=  0  0  0  0  0  0  0  0  0  0  0  0  0  0  0  0  0  0  0  0
 ITRead=  0  0  0  0  0  0  0  0  0  0  0  0  0  0  0  0  0  0  0  0
 ITRead=  0  0  0  0  0  0  0  0  0  0
 MicOpt= -1 -1 -1 -1 -1 -1 -1 -1 -1 -1 -1 -1 -1 -1 -1 -1 -1 -1 -1 -1
 MicOpt= -1 -1 -1 -1 -1 -1 -1 -1 -1 -1 -1 -1 -1 -1 -1 -1 -1 -1 -1 -1
 MicOpt= -1 -1 -1 -1 -1 -1 -1 -1 -1 -1
 NAtoms=     50 NQM=       50 NQMF=       0 NMMI=      0 NMMIF=      0
                NMic=       0 NMicF=      0.
                          Input orientation:                          
 ---------------------------------------------------------------------
 Center     Atomic      Atomic             Coordinates (Angstroms)
 Number     Number       Type             X           Y           Z
 ---------------------------------------------------------------------
      1          6           0       -6.287180    2.535889    4.507836
      2          1           0       -7.003771    1.745278    4.316805
      3          1           0       -5.386432    2.087658    4.911328
      4          1           0       -6.702797    3.209068    5.251448
      5          6           0       -5.974710    3.284728    3.227012
      6          1           0       -6.877847    3.743545    2.825049
      7          1           0       -5.267068    4.086723    3.427883
      8          8           0       -5.451812    2.374119    2.304600
      9          6           0       -5.153114    2.879523    1.039138
     10          1           0       -5.924367    3.577127    0.713462
     11          1           0       -5.152731    2.036369    0.360988
     12          6           0       -3.800208    3.561686    0.955394
     13          1           0       -3.702103    4.027714   -0.025630
     14          1           0       -3.717235    4.352467    1.699818
     15          8           0       -2.801481    2.609456    1.141580
     16          6           0       -1.505816    3.117580    1.145556
     17          1           0       -1.358082    3.774316    2.003361
     18          1           0       -1.311638    3.694978    0.243775
     19          6           0       -0.526239    1.969531    1.222872
     20          1           0       -0.822028    1.303974    2.029454
     21          1           0        0.462886    2.362940    1.451328
     22          8           0       -0.523979    1.294085    0.000000
     23          6           0        0.000000    0.000000    0.000000
     24          1           0       -0.372871   -0.471877   -0.898917
     25          1           0       -0.371198   -0.566592    0.849563
     26          6           0        1.527827    0.000000    0.000000
     27          1           0        1.909478    0.416522    0.924225
     28          1           0        1.897678    0.617904   -0.809740
     29         16           0        2.258182   -1.659279   -0.114041
     30          6           0        2.070636   -2.019480   -1.891379
     31          1           0        1.025284   -2.029912   -2.166274
     32          1           0        2.559874   -1.236911   -2.457771
     33          6           0        2.692484   -3.379935   -2.196944
     34          1           0        2.164833   -4.156691   -1.658144
     35          1           0        3.724791   -3.413420   -1.872597
     36         16           0        2.584857   -3.844098   -3.952476
     37          6           0        3.973513   -2.922175   -4.687103
     38          1           0        3.976358   -1.910506   -4.303188
     39          1           0        3.752226   -2.857041   -5.744164
     40          6           0        5.327497   -3.600056   -4.485938
     41          1           0        5.545487   -3.745165   -3.436274
     42          1           0        5.313198   -4.581052   -4.942231
     43         16           0        6.706201   -2.713361   -5.276425
     44          6           0        7.047655   -1.366833   -4.098960
     45          1           0        7.658219   -0.667274   -4.657234
     46          1           0        6.124526   -0.851942   -3.860879
     47          6           0        7.775007   -1.796430   -2.828209
     48          1           0        7.974424   -0.930319   -2.203492
     49          1           0        7.187165   -2.494379   -2.242346
     50          1           0        8.719448   -2.271485   -3.065983
 ---------------------------------------------------------------------
 Stoichiometry    C14H30O3S3
 Framework group  C1[X(C14H30O3S3)]
 Standard basis: 6-31G(d) (6D, 7F)
   372 basis functions,   752 primitive gaussians,   372 cartesian basis functions
    93 alpha electrons       93 beta electrons
 Requested convergence on RMS density matrix=1.00D-08 within  64 cycles.
 Requested convergence on MAX density matrix=1.00D-06.
 Requested convergence on             energy=1.00D-06.
 SCF Done:  E(RHF) =  -1964.69235946     A.U. after   13 cycles
            NFock= 13  Conv=0.56D-08     -V/T= 2.0006
 Mulliken charges:
     1  C   -0.487110
     2  H    0.174740
     3  H    0.175650
     4  H    0.153611
     5  C    0.019771
     6  H    0.135407
     7  H    0.134001
     8  O   -0.613764
     9  C    0.003433
    10  H    0.136750
    11  H    0.189517
    12  C    0.006685
    13  H    0.139493
    14  H    0.137459
    15  O   -0.611659
    16  C    0.019835
    17  H    0.137382
    18  H    0.152791
    19  C    0.006349
    20  H    0.162937
    21  H    0.138710
    22  O   -0.625808
    23  C    0.027313
    24  H    0.177638
    25  H    0.163851
    26  C   -0.509780
    27  H    0.200463
    28  H    0.200224
    29  S    0.110376
    30  C   -0.452551
    31  H    0.209550
    32  H    0.188912
    33  C   -0.500707
    34  H    0.220226
    35  H    0.204895
    36  S    0.128612
    37  C   -0.474801
    38  H    0.193662
    39  H    0.219118
    40  C   -0.475164
    41  H    0.196989
    42  H    0.217637
    43  S    0.115337
    44  C   -0.475986
    45  H    0.201631
    46  H    0.185759
    47  C   -0.473266
    48  H    0.168395
    49  H    0.163684
    50  H    0.181803
 Sum of Mulliken charges =  -0.00000
 Dipole moment (field-independent basis, Debye):
    X=              0.1511    Y=              4.3530    Z=              1.7653  Tot=              4.6997
 Quadrupole moment (field-independent basis, Debye-Ang):
   XX=           -148.3880   YY=           -143.2090   ZZ=           -161.4542
   XY=             -1.6600   XZ=              7.4363   YZ=             -3.1328
 Traceless Quadrupole moment (field-independent basis, Debye-Ang):
   XX=              2.6291   YY=              7.8081   ZZ=            -10.4372
   XY=             -1.6600   XZ=              7.4363   YZ=             -3.1328
 Octapole moment (field-independent basis, Debye-Ang**2):
  XXX=           -540.6167  YYY=            265.5070  ZZZ=            588.0646  XYY=           -242.4418
  XXY=            178.8938  XXZ=            229.1405  XZZ=           -254.9043  YZZ=            135.4484
  YYZ=            221.2255  XYZ=            -69.7226
 Hexadecapole moment (field-independent basis, Debye-Ang**3):
 XXXX=         -17769.9611 YYYY=          -6428.0525 ZZZZ=          -9009.3413 XXXY=           4545.4106
 XXXZ=           5861.4617 YYYX=           4245.7741 YYYZ=          -3113.8932 ZZZX=           5997.9658
 ZZZY=          -3315.3954 XXYY=          -3948.6316 XXZZ=          -4979.6148 YYZZ=          -2624.9627
 XXYZ=          -1298.9741 YYXZ=           1849.5770 ZZXY=           1734.5415
 Merz-Kollman atomic radii used.
 Atom Element Radius
    1     6    1.50
    2     1    1.20
    3     1    1.20
    4     1    1.20
    5     6    1.50
    6     1    1.20
    7     1    1.20
    8     8    1.40
    9     6    1.50
   10     1    1.20
   11     1    1.20
   12     6    1.50
   13     1    1.20
   14     1    1.20
   15     8    1.40
   16     6    1.50
   17     1    1.20
   18     1    1.20
   19     6    1.50
   20     1    1.20
   21     1    1.20
   22     8    1.40
   23     6    1.50
   24     1    1.20
   25     1    1.20
   26     6    1.50
   27     1    1.20
   28     1    1.20
   29    16    1.75
   30     6    1.50
   31     1    1.20
   32     1    1.20
   33     6    1.50
   34     1    1.20
   35     1    1.20
   36    16    1.75
   37     6    1.50
   38     1    1.20
   39     1    1.20
   40     6    1.50
   41     1    1.20
   42     1    1.20
   43    16    1.75
   44     6    1.50
   45     1    1.20
   46     1    1.20
   47     6    1.50
   48     1    1.20
   49     1    1.20
   50     1    1.20
 Generate VDW surfaces: Layer= 4 Dens= 1 Start= 1.400 Inc= 0.200
            Electrostatic Properties Using The SCF Density.


       Atomic Center    1 is at  -6.287180  2.535889  4.507836
       Atomic Center    2 is at  -7.003771  1.745278  4.316805
       Atomic Center    3 is at  -5.386432  2.087658  4.911328
       Atomic Center    4 is at  -6.702797  3.209068  5.251448
       Atomic Center    5 is at  -5.974710  3.284728  3.227012
       Atomic Center    6 is at  -6.877847  3.743545  2.825049
       Atomic Center    7 is at  -5.267068  4.086723  3.427883
       Atomic Center    8 is at  -5.451812  2.374119  2.304600
       Atomic Center    9 is at  -5.153114  2.879523  1.039138
       Atomic Center   10 is at  -5.924367  3.577127  0.713462
       Atomic Center   11 is at  -5.152731  2.036369  0.360988
       Atomic Center   12 is at  -3.800208  3.561686  0.955394
       Atomic Center   13 is at  -3.702103  4.027714 -0.025630
       Atomic Center   14 is at  -3.717235  4.352467  1.699818
       Atomic Center   15 is at  -2.801481  2.609456  1.141580
       Atomic Center   16 is at  -1.505816  3.117580  1.145556
       Atomic Center   17 is at  -1.358082  3.774316  2.003361
       Atomic Center   18 is at  -1.311638  3.694978  0.243775
       Atomic Center   19 is at  -0.526239  1.969531  1.222872
       Atomic Center   20 is at  -0.822028  1.303974  2.029454
       Atomic Center   21 is at   0.462886  2.362940  1.451328
       Atomic Center   22 is at  -0.523979  1.294085  0.000000
       Atomic Center   23 is at   0.000000  0.000000  0.000000
       Atomic Center   24 is at  -0.372871 -0.471877 -0.898917
       Atomic Center   25 is at  -0.371198 -0.566592  0.849563
       Atomic Center   26 is at   1.527827  0.000000  0.000000
       Atomic Center   27 is at   1.909478  0.416522  0.924225
       Atomic Center   28 is at   1.897678  0.617904 -0.809740
       Atomic Center   29 is at   2.258182 -1.659279 -0.114041
       Atomic Center   30 is at   2.070636 -2.019480 -1.891379
       Atomic Center   31 is at   1.025284 -2.029912 -2.166274
       Atomic Center   32 is at   2.559874 -1.236911 -2.457771
       Atomic Center   33 is at   2.692484 -3.379935 -2.196944
       Atomic Center   34 is at   2.164833 -4.156691 -1.658144
       Atomic Center   35 is at   3.724791 -3.413420 -1.872597
       Atomic Center   36 is at   2.584857 -3.844098 -3.952476
       Atomic Center   37 is at   3.973513 -2.922175 -4.687103
       Atomic Center   38 is at   3.976358 -1.910506 -4.303188
       Atomic Center   39 is at   3.752226 -2.857041 -5.744164
       Atomic Center   40 is at   5.327497 -3.600056 -4.485938
       Atomic Center   41 is at   5.545487 -3.745165 -3.436274
       Atomic Center   42 is at   5.313198 -4.581052 -4.942231
       Atomic Center   43 is at   6.706201 -2.713361 -5.276425
       Atomic Center   44 is at   7.047655 -1.366833 -4.098960
       Atomic Center   45 is at   7.658219 -0.667274 -4.657234
       Atomic Center   46 is at   6.124526 -0.851942 -3.860879
       Atomic Center   47 is at   7.775007 -1.796430 -2.828209
       Atomic Center   48 is at   7.974424 -0.930319 -2.203492
       Atomic Center   49 is at   7.187165 -2.494379 -2.242346
       Atomic Center   50 is at   8.719448 -2.271485 -3.065983
      ESP Fit Center   51 is at  -6.812180  1.626562  6.326489
      ESP Fit Center   52 is at  -4.757231  3.519127  5.557836
      ESP Fit Center   53 is at  -8.326158  3.038452  4.507836
      ESP Fit Center   54 is at  -7.802658  1.164852  5.675954
      ESP Fit Center   55 is at  -6.698623  0.806129  5.675954
      ESP Fit Center   56 is at  -8.505188  2.291749  4.835954
      ESP Fit Center   57 is at  -8.505188  1.198807  4.835954
      ESP Fit Center   58 is at  -7.802658  0.361564  4.835954
      ESP Fit Center   59 is at  -6.726320  0.171777  4.835954
      ESP Fit Center   60 is at  -8.505188  2.291749  3.797656
      ESP Fit Center   61 is at  -8.505188  1.198807  3.797656
      ESP Fit Center   62 is at  -7.802658  0.361564  3.797656
      ESP Fit Center   63 is at  -6.726320  0.171777  3.797656
      ESP Fit Center   64 is at  -7.802658  1.164852  2.957656
      ESP Fit Center   65 is at  -6.698623  0.806129  2.957656
      ESP Fit Center   66 is at  -5.386432  2.087658  6.591328
      ESP Fit Center   67 is at  -4.398953  2.087658  6.270477
      ESP Fit Center   68 is at  -5.081284  3.026807  6.270477
      ESP Fit Center   69 is at  -5.081284  1.148509  6.270477
      ESP Fit Center   70 is at  -3.788657  2.087658  5.430477
      ESP Fit Center   71 is at  -4.162465  3.114688  5.430477
      ESP Fit Center   72 is at  -5.108981  0.514157  5.430477
      ESP Fit Center   73 is at  -4.162465  1.060628  5.430477
      ESP Fit Center   74 is at  -3.788657  2.087658  4.392179
      ESP Fit Center   75 is at  -4.162465  3.114688  4.392179
      ESP Fit Center   76 is at  -5.108981  0.514157  4.392179
      ESP Fit Center   77 is at  -4.162465  1.060628  4.392179
      ESP Fit Center   78 is at  -6.702797  3.209068  6.931448
      ESP Fit Center   79 is at  -5.715318  3.209068  6.610597
      ESP Fit Center   80 is at  -6.397649  4.148217  6.610597
      ESP Fit Center   81 is at  -7.501684  3.789494  6.610597
      ESP Fit Center   82 is at  -7.501684  2.628642  6.610597
      ESP Fit Center   83 is at  -6.397649  2.269919  6.610597
      ESP Fit Center   84 is at  -5.478830  4.236098  5.770597
      ESP Fit Center   85 is at  -6.425346  4.782569  5.770597
      ESP Fit Center   86 is at  -7.501684  4.592782  5.770597
      ESP Fit Center   87 is at  -8.204214  3.755539  5.770597
      ESP Fit Center   88 is at  -8.204214  2.662597  5.770597
      ESP Fit Center   89 is at  -6.425346  4.782569  4.732299
      ESP Fit Center   90 is at  -7.501684  4.592782  4.732299
      ESP Fit Center   91 is at  -8.204214  3.755539  4.732299
      ESP Fit Center   92 is at  -7.165675  4.659174  4.277012
      ESP Fit Center   93 is at  -7.676734  4.323971  4.184198
      ESP Fit Center   94 is at  -6.600396  5.317046  3.344198
      ESP Fit Center   95 is at  -7.676734  5.127259  3.344198
      ESP Fit Center   96 is at  -8.379264  4.290016  3.344198
      ESP Fit Center   97 is at  -8.379264  3.197074  3.344198
      ESP Fit Center   98 is at  -6.600396  5.317046  2.305900
      ESP Fit Center   99 is at  -7.676734  5.127259  2.305900
      ESP Fit Center  100 is at  -8.379264  4.290016  2.305900
      ESP Fit Center  101 is at  -8.379264  3.197074  2.305900
      ESP Fit Center  102 is at  -7.676734  2.359831  2.305900
      ESP Fit Center  103 is at  -7.676734  4.323971  1.465900
      ESP Fit Center  104 is at  -7.676734  3.163119  1.465900
      ESP Fit Center  105 is at  -4.279589  4.086723  4.787032
      ESP Fit Center  106 is at  -4.961920  5.025872  4.787032
      ESP Fit Center  107 is at  -3.669293  4.086723  3.947032
      ESP Fit Center  108 is at  -4.043101  5.113753  3.947032
      ESP Fit Center  109 is at  -4.989617  5.660224  3.947032
      ESP Fit Center  110 is at  -6.065955  5.470437  3.947032
      ESP Fit Center  111 is at  -4.989617  5.660224  2.908734
      ESP Fit Center  112 is at  -6.065955  5.470437  2.908734
      ESP Fit Center  113 is at  -3.754402  2.374119  3.284600
      ESP Fit Center  114 is at  -5.976340  0.759786  3.284600
      ESP Fit Center  115 is at  -4.927284  0.759786  3.284600
      ESP Fit Center  116 is at  -4.078579  1.376407  3.284600
      ESP Fit Center  117 is at  -7.149222  1.394119  2.304600
      ESP Fit Center  118 is at  -6.431812  0.676709  2.304600
      ESP Fit Center  119 is at  -5.451812  0.414119  2.304600
      ESP Fit Center  120 is at  -4.471812  0.676709  2.304600
      ESP Fit Center  121 is at  -6.825045  1.376407  1.324600
      ESP Fit Center  122 is at  -5.976340  0.759786  1.324600
      ESP Fit Center  123 is at  -7.192092  2.376960  1.039138
      ESP Fit Center  124 is at  -6.724987  1.486965  1.039138
      ESP Fit Center  125 is at  -6.898099  2.367149 -0.010862
      ESP Fit Center  126 is at  -5.646916  5.150628  1.232611
      ESP Fit Center  127 is at  -6.723254  4.960841  1.232611
      ESP Fit Center  128 is at  -7.425784  4.123598  1.232611
      ESP Fit Center  129 is at  -7.425784  3.030656  1.232611
      ESP Fit Center  130 is at  -5.646916  5.150628  0.194313
      ESP Fit Center  131 is at  -6.723254  4.960841  0.194313
      ESP Fit Center  132 is at  -7.425784  4.123598  0.194313
      ESP Fit Center  133 is at  -7.425784  3.030656  0.194313
      ESP Fit Center  134 is at  -5.619219  4.516276 -0.645687
      ESP Fit Center  135 is at  -6.723254  4.157553 -0.645687
      ESP Fit Center  136 is at  -6.723254  2.996701 -0.645687
      ESP Fit Center  137 is at  -5.924367  3.577127 -0.966538
      ESP Fit Center  138 is at  -5.951618  0.652655  0.880137
      ESP Fit Center  139 is at  -4.875280  0.462868  0.880137
      ESP Fit Center  140 is at  -3.928764  1.009339  0.880137
      ESP Fit Center  141 is at  -6.654148  1.489898 -0.158161
      ESP Fit Center  142 is at  -5.951618  0.652655 -0.158161
      ESP Fit Center  143 is at  -4.875280  0.462868 -0.158161
      ESP Fit Center  144 is at  -3.928764  1.009339 -0.158161
      ESP Fit Center  145 is at  -4.165252  2.036369 -0.998161
      ESP Fit Center  146 is at  -5.951618  2.616795 -0.998161
      ESP Fit Center  147 is at  -5.951618  1.455943 -0.998161
      ESP Fit Center  148 is at  -4.847583  1.097220 -0.998161
      ESP Fit Center  149 is at  -5.152731  2.036369 -1.319012
      ESP Fit Center  150 is at  -3.424652  5.601215  0.493519
      ESP Fit Center  151 is at  -2.478136  5.054744 -0.544779
      ESP Fit Center  152 is at  -3.424652  5.601215 -0.544779
      ESP Fit Center  153 is at  -4.500990  5.411428 -0.544779
      ESP Fit Center  154 is at  -5.203520  4.574185 -0.544779
      ESP Fit Center  155 is at  -2.714624  4.027714 -1.384779
      ESP Fit Center  156 is at  -3.396955  4.966863 -1.384779
      ESP Fit Center  157 is at  -4.500990  4.608140 -1.384779
      ESP Fit Center  158 is at  -4.500990  3.447288 -1.384779
      ESP Fit Center  159 is at  -3.396955  3.088565 -1.384779
      ESP Fit Center  160 is at  -3.702103  4.027714 -1.705630
      ESP Fit Center  161 is at  -2.729756  4.352467  3.058967
      ESP Fit Center  162 is at  -3.412087  5.291616  3.058967
      ESP Fit Center  163 is at  -3.412087  3.413318  3.058967
      ESP Fit Center  164 is at  -2.493268  5.379497  2.218967
      ESP Fit Center  165 is at  -3.439784  5.925968  2.218967
      ESP Fit Center  166 is at  -4.516122  5.736181  2.218967
      ESP Fit Center  167 is at  -2.493268  5.379497  1.180669
      ESP Fit Center  168 is at  -3.439784  5.925968  1.180669
      ESP Fit Center  169 is at  -4.516122  5.736181  1.180669
      ESP Fit Center  170 is at  -2.801481  2.609456  3.101580
      ESP Fit Center  171 is at  -3.291481  1.760751  2.838990
      ESP Fit Center  172 is at  -2.311481  1.760751  2.838990
      ESP Fit Center  173 is at  -3.326009  0.995123  2.121580
      ESP Fit Center  174 is at  -3.781481  0.912046  1.141580
      ESP Fit Center  175 is at  -2.801481  0.649456  1.141580
      ESP Fit Center  176 is at  -3.326009  0.995123  0.161580
      ESP Fit Center  177 is at  -3.291481  1.760751 -0.555830
      ESP Fit Center  178 is at  -2.801481  2.609456 -0.818420
      ESP Fit Center  179 is at  -2.030816  2.208253  2.964209
      ESP Fit Center  180 is at   0.353642  4.093499  1.145556
      ESP Fit Center  181 is at  -0.312880  4.845846  1.145556
      ESP Fit Center  182 is at  -2.250486  5.081114  1.145556
      ESP Fit Center  183 is at  -1.358082  3.774316  3.683361
      ESP Fit Center  184 is at  -0.370603  3.774316  3.362510
      ESP Fit Center  185 is at  -1.052934  4.713465  3.362510
      ESP Fit Center  186 is at  -2.156969  4.354742  3.362510
      ESP Fit Center  187 is at  -2.156969  3.193890  3.362510
      ESP Fit Center  188 is at  -1.052934  2.835167  3.362510
      ESP Fit Center  189 is at   0.239693  3.774316  2.522510
      ESP Fit Center  190 is at  -0.134115  4.801346  2.522510
      ESP Fit Center  191 is at  -1.080631  5.347817  2.522510
      ESP Fit Center  192 is at  -2.156969  5.158030  2.522510
      ESP Fit Center  193 is at  -0.134115  4.801346  1.484212
      ESP Fit Center  194 is at  -1.080631  5.347817  1.484212
      ESP Fit Center  195 is at  -2.156969  5.158030  1.484212
      ESP Fit Center  196 is at  -0.087671  4.722008  0.762924
      ESP Fit Center  197 is at  -1.034187  5.268479  0.762924
      ESP Fit Center  198 is at   0.286137  3.694978 -0.275374
      ESP Fit Center  199 is at  -0.087671  4.722008 -0.275374
      ESP Fit Center  200 is at  -1.034187  5.268479 -0.275374
      ESP Fit Center  201 is at  -2.110525  5.078692 -0.275374
      ESP Fit Center  202 is at  -0.324159  3.694978 -1.115374
      ESP Fit Center  203 is at  -1.006490  4.634127 -1.115374
      ESP Fit Center  204 is at  -2.110525  4.275404 -1.115374
      ESP Fit Center  205 is at  -2.110525  3.114552 -1.115374
      ESP Fit Center  206 is at  -1.311638  3.694978 -1.436225
      ESP Fit Center  207 is at  -0.001239  2.878858  3.041525
      ESP Fit Center  208 is at   1.003710  0.986293  2.272872
      ESP Fit Center  209 is at  -0.822028  1.303974  3.709454
      ESP Fit Center  210 is at   0.165451  1.303974  3.388603
      ESP Fit Center  211 is at  -0.516880  2.243123  3.388603
      ESP Fit Center  212 is at  -1.620915  1.884400  3.388603
      ESP Fit Center  213 is at  -1.620915  0.723548  3.388603
      ESP Fit Center  214 is at  -0.516880  0.364825  3.388603
      ESP Fit Center  215 is at  -2.323445  0.757503  2.548603
      ESP Fit Center  216 is at  -1.620915 -0.079740  2.548603
      ESP Fit Center  217 is at  -0.544577 -0.269527  2.548603
      ESP Fit Center  218 is at   0.401939  0.276944  2.548603
      ESP Fit Center  219 is at   0.462886  2.362940  3.131328
      ESP Fit Center  220 is at   1.450365  2.362940  2.810477
      ESP Fit Center  221 is at   0.768034  3.302089  2.810477
      ESP Fit Center  222 is at   0.768034  1.423791  2.810477
      ESP Fit Center  223 is at   2.060661  2.362940  1.970477
      ESP Fit Center  224 is at   1.686853  3.389970  1.970477
      ESP Fit Center  225 is at   0.740337  3.936441  1.970477
      ESP Fit Center  226 is at   2.060661  2.362940  0.932179
      ESP Fit Center  227 is at   1.686853  3.389970  0.932179
      ESP Fit Center  228 is at   0.740337  3.936441  0.932179
      ESP Fit Center  229 is at   1.450365  2.362940  0.092179
      ESP Fit Center  230 is at   0.768034  3.302089  0.092179
      ESP Fit Center  231 is at  -1.897212  0.296373  0.980000
      ESP Fit Center  232 is at  -2.221389  0.314085  0.000000
      ESP Fit Center  233 is at   0.849254  2.291797 -0.980000
      ESP Fit Center  234 is at   0.000549  2.908418 -0.980000
      ESP Fit Center  235 is at  -1.897212  2.291797 -0.980000
      ESP Fit Center  236 is at  -2.221389  1.294085 -0.980000
      ESP Fit Center  237 is at  -1.897212  0.296373 -0.980000
      ESP Fit Center  238 is at   0.456021  1.294085 -1.697410
      ESP Fit Center  239 is at  -0.033979  2.142790 -1.697410
      ESP Fit Center  240 is at  -1.013979  2.142790 -1.697410
      ESP Fit Center  241 is at  -1.503979  1.294085 -1.697410
      ESP Fit Center  242 is at  -0.523979  1.294085 -1.960000
      ESP Fit Center  243 is at  -2.038978 -0.502563  0.000000
      ESP Fit Center  244 is at  -1.571873 -1.392558  0.000000
      ESP Fit Center  245 is at   0.525000  0.909327 -1.818653
      ESP Fit Center  246 is at  -1.874288 -1.018348 -0.379768
      ESP Fit Center  247 is at  -1.171758 -1.855591 -0.379768
      ESP Fit Center  248 is at  -1.874288  0.074594 -1.418066
      ESP Fit Center  249 is at  -1.874288 -1.018348 -1.418066
      ESP Fit Center  250 is at  -1.171758 -1.855591 -1.418066
      ESP Fit Center  251 is at  -0.067723  0.467272 -2.258066
      ESP Fit Center  252 is at  -1.171758  0.108549 -2.258066
      ESP Fit Center  253 is at  -1.171758 -1.052303 -2.258066
      ESP Fit Center  254 is at  -0.372871 -0.471877 -2.578917
      ESP Fit Center  255 is at  -0.371198 -0.566592  2.529563
      ESP Fit Center  256 is at   0.616281 -0.566592  2.208712
      ESP Fit Center  257 is at  -1.170085 -1.147018  2.208712
      ESP Fit Center  258 is at  -0.066050 -1.505741  2.208712
      ESP Fit Center  259 is at  -1.872615 -0.020121  1.368712
      ESP Fit Center  260 is at  -1.872615 -1.113063  1.368712
      ESP Fit Center  261 is at  -1.170085 -1.950306  1.368712
      ESP Fit Center  262 is at  -0.093747 -2.140093  1.368712
      ESP Fit Center  263 is at  -1.872615 -1.113063  0.330414
      ESP Fit Center  264 is at  -1.170085 -1.950306  0.330414
      ESP Fit Center  265 is at   3.387285  0.975919  0.000000
      ESP Fit Center  266 is at   1.909478  0.416522  2.604225
      ESP Fit Center  267 is at   2.896957  0.416522  2.283374
      ESP Fit Center  268 is at   2.214626  1.355671  2.283374
      ESP Fit Center  269 is at   1.110591  0.996948  2.283374
      ESP Fit Center  270 is at   1.110591 -0.163904  2.283374
      ESP Fit Center  271 is at   2.214626 -0.522627  2.283374
      ESP Fit Center  272 is at   3.507253  0.416522  1.443374
      ESP Fit Center  273 is at   3.133445  1.443552  1.443374
      ESP Fit Center  274 is at   2.186929  1.990023  1.443374
      ESP Fit Center  275 is at   3.133445  1.443552  0.405076
      ESP Fit Center  276 is at   2.186929  1.990023  0.405076
      ESP Fit Center  277 is at   3.121645  1.644934 -0.290591
      ESP Fit Center  278 is at   2.175129  2.191405 -0.290591
      ESP Fit Center  279 is at   3.495453  0.617904 -1.328889
      ESP Fit Center  280 is at   3.121645  1.644934 -1.328889
      ESP Fit Center  281 is at   2.175129  2.191405 -1.328889
      ESP Fit Center  282 is at   1.098791  2.001618 -1.328889
      ESP Fit Center  283 is at   2.885157  0.617904 -2.168889
      ESP Fit Center  284 is at   2.202826  1.557053 -2.168889
      ESP Fit Center  285 is at   1.098791  1.198330 -2.168889
      ESP Fit Center  286 is at   1.098791  0.037478 -2.168889
      ESP Fit Center  287 is at   1.897678  0.617904 -2.489740
      ESP Fit Center  288 is at   2.258182 -1.659279  2.335959
      ESP Fit Center  289 is at   3.321197 -1.659279  2.093333
      ESP Fit Center  290 is at   2.789690 -0.738681  2.093333
      ESP Fit Center  291 is at   1.195167 -1.659279  2.093333
      ESP Fit Center  292 is at   1.726674 -2.579877  2.093333
      ESP Fit Center  293 is at   2.789690 -2.579877  2.093333
      ESP Fit Center  294 is at   4.173669 -1.659279  1.413509
      ESP Fit Center  295 is at   3.869592 -0.623688  1.413509
      ESP Fit Center  296 is at   0.420286 -2.198934  1.413509
      ESP Fit Center  297 is at   1.003805 -3.106908  1.413509
      ESP Fit Center  298 is at   1.985580 -3.555269  1.413509
      ESP Fit Center  299 is at   3.053904 -3.401667  1.413509
      ESP Fit Center  300 is at   3.869592 -2.694870  1.413509
      ESP Fit Center  301 is at   4.646755 -1.659279  0.431135
      ESP Fit Center  302 is at   4.410212 -0.622916  0.431135
      ESP Fit Center  303 is at   3.747433  0.208183  0.431135
      ESP Fit Center  304 is at   0.106152 -2.695642  0.431135
      ESP Fit Center  305 is at   0.768931 -3.526741  0.431135
      ESP Fit Center  306 is at   1.726674 -3.987966  0.431135
      ESP Fit Center  307 is at   2.789690 -3.987966  0.431135
      ESP Fit Center  308 is at   3.747433 -3.526741  0.431135
      ESP Fit Center  309 is at   4.410212 -2.695642  0.431135
      ESP Fit Center  310 is at   4.646755 -1.659279 -0.659217
      ESP Fit Center  311 is at   4.410212 -0.622916 -0.659217
      ESP Fit Center  312 is at   3.747433  0.208183 -0.659217
      ESP Fit Center  313 is at   0.106152 -2.695642 -0.659217
      ESP Fit Center  314 is at   0.768931 -3.526741 -0.659217
      ESP Fit Center  315 is at   4.173669 -1.659279 -1.641591
      ESP Fit Center  316 is at  -0.476133 -2.576383 -1.647125
      ESP Fit Center  317 is at   0.226397 -3.413626 -1.647125
      ESP Fit Center  318 is at   0.226397 -0.646198 -2.685423
      ESP Fit Center  319 is at  -0.476133 -1.483441 -2.685423
      ESP Fit Center  320 is at  -0.476133 -2.576383 -2.685423
      ESP Fit Center  321 is at   0.226397 -3.413626 -2.685423
      ESP Fit Center  322 is at   0.226397 -1.449486 -3.525423
      ESP Fit Center  323 is at   0.226397 -2.610338 -3.525423
      ESP Fit Center  324 is at   4.157649 -1.236911 -1.938622
      ESP Fit Center  325 is at   3.783841 -0.209881 -1.938622
      ESP Fit Center  326 is at   3.783841 -0.209881 -2.976920
      ESP Fit Center  327 is at   2.837325  0.336590 -2.976920
      ESP Fit Center  328 is at   1.760987  0.146803 -2.976920
      ESP Fit Center  329 is at   2.865022 -0.297762 -3.816920
      ESP Fit Center  330 is at   1.760987 -0.656485 -3.816920
      ESP Fit Center  331 is at   3.885420 -5.108201 -2.196944
      ESP Fit Center  332 is at   2.164833 -4.156691  0.021856
      ESP Fit Center  333 is at   3.152312 -4.156691 -0.298995
      ESP Fit Center  334 is at   1.365946 -4.737117 -0.298995
      ESP Fit Center  335 is at   2.469981 -5.095840 -0.298995
      ESP Fit Center  336 is at   0.663416 -3.610220 -1.138995
      ESP Fit Center  337 is at   0.663416 -4.703162 -1.138995
      ESP Fit Center  338 is at   1.365946 -5.540405 -1.138995
      ESP Fit Center  339 is at   2.442284 -5.730192 -1.138995
      ESP Fit Center  340 is at   3.388800 -5.183721 -1.138995
      ESP Fit Center  341 is at   0.663416 -4.703162 -2.177293
      ESP Fit Center  342 is at   1.365946 -5.540405 -2.177293
      ESP Fit Center  343 is at   2.442284 -5.730192 -2.177293
      ESP Fit Center  344 is at   4.712270 -3.413420 -0.513448
      ESP Fit Center  345 is at   4.029939 -4.352569 -0.513448
      ESP Fit Center  346 is at   5.322566 -3.413420 -1.353448
      ESP Fit Center  347 is at   4.948758 -2.386390 -1.353448
      ESP Fit Center  348 is at   4.002242 -4.986921 -1.353448
      ESP Fit Center  349 is at   4.948758 -4.440450 -1.353448
      ESP Fit Center  350 is at   4.948758 -2.386390 -2.391746
      ESP Fit Center  351 is at   2.312255 -5.740088 -2.424926
      ESP Fit Center  352 is at   3.380579 -5.586486 -2.424926
      ESP Fit Center  353 is at   0.196284 -3.844098 -3.407300
      ESP Fit Center  354 is at   0.432827 -4.880461 -3.407300
      ESP Fit Center  355 is at   1.095606 -5.711560 -3.407300
      ESP Fit Center  356 is at   2.053349 -6.172785 -3.407300
      ESP Fit Center  357 is at   3.116365 -6.172785 -3.407300
      ESP Fit Center  358 is at   4.074108 -5.711560 -3.407300
      ESP Fit Center  359 is at   2.053349 -1.515411 -4.497652
      ESP Fit Center  360 is at   1.095606 -1.976636 -4.497652
      ESP Fit Center  361 is at   0.432827 -2.807735 -4.497652
      ESP Fit Center  362 is at   0.196284 -3.844098 -4.497652
      ESP Fit Center  363 is at   0.432827 -4.880461 -4.497652
      ESP Fit Center  364 is at   1.095606 -5.711560 -4.497652
      ESP Fit Center  365 is at   2.053349 -6.172785 -4.497652
      ESP Fit Center  366 is at   3.116365 -6.172785 -4.497652
      ESP Fit Center  367 is at   4.074108 -5.711560 -4.497652
      ESP Fit Center  368 is at   1.330480 -2.396469 -5.480026
      ESP Fit Center  369 is at   0.746961 -3.304443 -5.480026
      ESP Fit Center  370 is at   0.746961 -4.383753 -5.480026
      ESP Fit Center  371 is at   1.330480 -5.291727 -5.480026
      ESP Fit Center  372 is at   2.312255 -5.740088 -5.480026
      ESP Fit Center  373 is at   3.380579 -5.586486 -5.480026
      ESP Fit Center  374 is at   2.053349 -2.923500 -6.159850
      ESP Fit Center  375 is at   1.521842 -3.844098 -6.159850
      ESP Fit Center  376 is at   2.053349 -4.764696 -6.159850
      ESP Fit Center  377 is at   3.116365 -4.764696 -6.159850
      ESP Fit Center  378 is at   4.729009 -1.267870 -5.737103
      ESP Fit Center  379 is at   4.963837 -1.910506 -2.944039
      ESP Fit Center  380 is at   4.281506 -0.971357 -2.944039
      ESP Fit Center  381 is at   4.253809 -0.337005 -3.784039
      ESP Fit Center  382 is at   4.253809 -0.337005 -4.822337
      ESP Fit Center  383 is at   3.177471 -0.526792 -4.822337
      ESP Fit Center  384 is at   2.474941 -1.364035 -4.822337
      ESP Fit Center  385 is at   4.281506 -0.971357 -5.662337
      ESP Fit Center  386 is at   4.029677 -1.283540 -6.263313
      ESP Fit Center  387 is at   2.953339 -1.473327 -6.263313
      ESP Fit Center  388 is at   2.250809 -2.310570 -6.263313
      ESP Fit Center  389 is at   4.029677 -4.430542 -6.263313
      ESP Fit Center  390 is at   4.739705 -2.857041 -7.103313
      ESP Fit Center  391 is at   4.057374 -1.917892 -7.103313
      ESP Fit Center  392 is at   2.953339 -2.276615 -7.103313
      ESP Fit Center  393 is at   2.953339 -3.437467 -7.103313
      ESP Fit Center  394 is at   4.057374 -3.796190 -7.103313
      ESP Fit Center  395 is at   3.752226 -2.857041 -7.424164
      ESP Fit Center  396 is at   5.068676 -5.400198 -3.435938
      ESP Fit Center  397 is at   5.545487 -3.745165 -1.756274
      ESP Fit Center  398 is at   5.850635 -4.684314 -2.077125
      ESP Fit Center  399 is at   4.746600 -5.128879 -2.917125
      ESP Fit Center  400 is at   5.822938 -5.318666 -2.917125
      ESP Fit Center  401 is at   6.769454 -4.772195 -2.917125
      ESP Fit Center  402 is at   5.618346 -5.520201 -3.583082
      ESP Fit Center  403 is at   4.514311 -5.964766 -4.423082
      ESP Fit Center  404 is at   5.590649 -6.154553 -4.423082
      ESP Fit Center  405 is at   6.537165 -5.608082 -4.423082
      ESP Fit Center  406 is at   4.514311 -5.964766 -5.461380
      ESP Fit Center  407 is at   5.590649 -6.154553 -5.461380
      ESP Fit Center  408 is at   6.537165 -5.608082 -5.461380
      ESP Fit Center  409 is at   4.514311 -5.161478 -6.301380
      ESP Fit Center  410 is at   5.618346 -5.520201 -6.301380
      ESP Fit Center  411 is at   5.313198 -4.581052 -6.622231
      ESP Fit Center  412 is at   7.501923 -4.455749 -3.748875
      ESP Fit Center  413 is at   9.094774 -2.713361 -4.731249
      ESP Fit Center  414 is at   7.237709 -5.042048 -4.731249
      ESP Fit Center  415 is at   8.195452 -4.580823 -4.731249
      ESP Fit Center  416 is at   8.858231 -3.749724 -4.731249
      ESP Fit Center  417 is at   9.094774 -2.713361 -5.821601
      ESP Fit Center  418 is at   8.858231 -1.676998 -5.821601
      ESP Fit Center  419 is at   6.174693 -0.384674 -5.821601
      ESP Fit Center  420 is at   5.216950 -0.845899 -5.821601
      ESP Fit Center  421 is at   7.237709 -5.042048 -5.821601
      ESP Fit Center  422 is at   8.195452 -4.580823 -5.821601
      ESP Fit Center  423 is at   8.858231 -3.749724 -5.821601
      ESP Fit Center  424 is at   8.621688 -2.713361 -6.803975
      ESP Fit Center  425 is at   8.317611 -1.677770 -6.803975
      ESP Fit Center  426 is at   7.501923 -0.970973 -6.803975
      ESP Fit Center  427 is at   6.433599 -0.817371 -6.803975
      ESP Fit Center  428 is at   5.451824 -1.265732 -6.803975
      ESP Fit Center  429 is at   4.868305 -2.173706 -6.803975
      ESP Fit Center  430 is at   5.451824 -4.160990 -6.803975
      ESP Fit Center  431 is at   6.433599 -4.609351 -6.803975
      ESP Fit Center  432 is at   7.501923 -4.455749 -6.803975
      ESP Fit Center  433 is at   8.317611 -3.748952 -6.803975
      ESP Fit Center  434 is at   7.769216 -2.713361 -7.483799
      ESP Fit Center  435 is at   7.237709 -1.792763 -7.483799
      ESP Fit Center  436 is at   6.174693 -1.792763 -7.483799
      ESP Fit Center  437 is at   5.643186 -2.713361 -7.483799
      ESP Fit Center  438 is at   6.174693 -3.633959 -7.483799
      ESP Fit Center  439 is at   7.237709 -3.633959 -7.483799
      ESP Fit Center  440 is at   6.706201 -2.713361 -7.726425
      ESP Fit Center  441 is at   9.255994 -0.667274 -4.138085
      ESP Fit Center  442 is at   8.882186  0.359756 -4.138085
      ESP Fit Center  443 is at   7.935670  0.906227 -4.138085
      ESP Fit Center  444 is at   9.255994 -0.667274 -5.176383
      ESP Fit Center  445 is at   8.882186  0.359756 -5.176383
      ESP Fit Center  446 is at   7.935670  0.906227 -5.176383
      ESP Fit Center  447 is at   6.859332  0.716440 -5.176383
      ESP Fit Center  448 is at   8.645698 -0.667274 -6.016383
      ESP Fit Center  449 is at   7.963367  0.271875 -6.016383
      ESP Fit Center  450 is at   6.859332 -0.086848 -6.016383
      ESP Fit Center  451 is at   7.658219 -0.667274 -6.337234
      ESP Fit Center  452 is at   6.429674  0.087207 -2.501730
      ESP Fit Center  453 is at   5.325639 -0.271516 -2.501730
      ESP Fit Center  454 is at   5.325639 -1.432368 -2.501730
      ESP Fit Center  455 is at   6.401977  0.721559 -3.341730
      ESP Fit Center  456 is at   5.325639  0.531772 -3.341730
      ESP Fit Center  457 is at   4.623109 -0.305471 -3.341730
      ESP Fit Center  458 is at   6.401977  0.721559 -4.380028
      ESP Fit Center  459 is at   5.325639  0.531772 -4.380028
      ESP Fit Center  460 is at   4.623109 -0.305471 -4.380028
      ESP Fit Center  461 is at   5.325639 -0.271516 -5.220028
      ESP Fit Center  462 is at   7.775007 -1.796430 -0.728209
      ESP Fit Center  463 is at   8.825007 -1.796430 -1.009556
      ESP Fit Center  464 is at   6.030022 -1.284056 -1.778209
      ESP Fit Center  465 is at   8.530503 -3.450735 -1.778209
      ESP Fit Center  466 is at   9.634465 -0.820511 -2.828209
      ESP Fit Center  467 is at   8.028134 -3.881119 -2.828209
      ESP Fit Center  468 is at   9.304956 -0.813192 -3.878209
      ESP Fit Center  469 is at   7.974424 -0.930319 -0.523492
      ESP Fit Center  470 is at   8.961903 -0.930319 -0.844343
      ESP Fit Center  471 is at   8.279572  0.008830 -0.844343
      ESP Fit Center  472 is at   7.175537 -0.349893 -0.844343
      ESP Fit Center  473 is at   9.572199 -0.930319 -1.684343
      ESP Fit Center  474 is at   9.198391  0.096711 -1.684343
      ESP Fit Center  475 is at   8.251875  0.643182 -1.684343
      ESP Fit Center  476 is at   7.175537  0.453395 -1.684343
      ESP Fit Center  477 is at   6.473007 -0.383848 -1.684343
      ESP Fit Center  478 is at   9.198391  0.096711 -2.722641
      ESP Fit Center  479 is at   8.251875  0.643182 -2.722641
      ESP Fit Center  480 is at   7.175537  0.453395 -2.722641
      ESP Fit Center  481 is at   7.187165 -2.494379 -0.562346
      ESP Fit Center  482 is at   8.174644 -2.494379 -0.883197
      ESP Fit Center  483 is at   6.388278 -1.913953 -0.883197
      ESP Fit Center  484 is at   6.388278 -3.074805 -0.883197
      ESP Fit Center  485 is at   7.492313 -3.433528 -0.883197
      ESP Fit Center  486 is at   5.685748 -1.947908 -1.723197
      ESP Fit Center  487 is at   5.685748 -3.040850 -1.723197
      ESP Fit Center  488 is at   6.388278 -3.878093 -1.723197
      ESP Fit Center  489 is at   7.464616 -4.067880 -1.723197
      ESP Fit Center  490 is at   8.411132 -3.521409 -1.723197
      ESP Fit Center  491 is at   7.464616 -4.067880 -2.761495
      ESP Fit Center  492 is at   9.706927 -2.271485 -1.706834
      ESP Fit Center  493 is at   9.024596 -3.210634 -1.706834
      ESP Fit Center  494 is at  10.317223 -2.271485 -2.546834
      ESP Fit Center  495 is at   9.943415 -1.244455 -2.546834
      ESP Fit Center  496 is at   8.996899 -3.844986 -2.546834
      ESP Fit Center  497 is at   9.943415 -3.298515 -2.546834
      ESP Fit Center  498 is at  10.317223 -2.271485 -3.585132
      ESP Fit Center  499 is at   9.943415 -1.244455 -3.585132
      ESP Fit Center  500 is at   8.996899 -3.844986 -3.585132
      ESP Fit Center  501 is at   9.943415 -3.298515 -3.585132
      ESP Fit Center  502 is at   9.706927 -2.271485 -4.425132
      ESP Fit Center  503 is at   9.024596 -3.210634 -4.425132
      ESP Fit Center  504 is at  -6.807840  1.634079  6.670161
      ESP Fit Center  505 is at  -4.708656  3.550345  6.004212
      ESP Fit Center  506 is at  -8.087568  2.007247  6.004212
      ESP Fit Center  507 is at  -6.554219  0.678592  6.004212
      ESP Fit Center  508 is at  -8.627007  2.535889  5.041886
      ESP Fit Center  509 is at  -5.766520  0.254726  3.973786
      ESP Fit Center  510 is at  -7.483771  0.913894  5.979574
      ESP Fit Center  511 is at  -8.666540  1.745278  5.276805
      ESP Fit Center  512 is at  -8.348979  0.767927  5.276805
      ESP Fit Center  513 is at  -7.517595  0.163891  5.276805
      ESP Fit Center  514 is at  -6.489947  0.163891  5.276805
      ESP Fit Center  515 is at  -8.923771  1.745278  4.316805
      ESP Fit Center  516 is at  -8.666540  0.785278  4.316805
      ESP Fit Center  517 is at  -7.963771  0.082509  4.316805
      ESP Fit Center  518 is at  -7.003771 -0.174722  4.316805
      ESP Fit Center  519 is at  -6.043771  0.082509  4.316805
      ESP Fit Center  520 is at  -8.666540  1.745278  3.356805
      ESP Fit Center  521 is at  -8.348979  0.767927  3.356805
      ESP Fit Center  522 is at  -7.517595  0.163891  3.356805
      ESP Fit Center  523 is at  -6.489947  0.163891  3.356805
      ESP Fit Center  524 is at  -7.963771  1.745278  2.654036
      ESP Fit Center  525 is at  -7.483771  0.913894  2.654036
      ESP Fit Center  526 is at  -5.386432  2.087658  6.831328
      ESP Fit Center  527 is at  -4.426432  2.087658  6.574097
      ESP Fit Center  528 is at  -4.906432  2.919042  6.574097
      ESP Fit Center  529 is at  -5.866432  1.256274  6.574097
      ESP Fit Center  530 is at  -4.906432  1.256274  6.574097
      ESP Fit Center  531 is at  -3.723663  2.087658  5.871328
      ESP Fit Center  532 is at  -4.041224  3.065009  5.871328
      ESP Fit Center  533 is at  -5.900256  0.506271  5.871328
      ESP Fit Center  534 is at  -4.872608  0.506271  5.871328
      ESP Fit Center  535 is at  -4.041224  1.110307  5.871328
      ESP Fit Center  536 is at  -3.466432  2.087658  4.911328
      ESP Fit Center  537 is at  -3.723663  3.047658  4.911328
      ESP Fit Center  538 is at  -5.386432  0.167658  4.911328
      ESP Fit Center  539 is at  -4.426432  0.424889  4.911328
      ESP Fit Center  540 is at  -3.723663  1.127658  4.911328
      ESP Fit Center  541 is at  -3.723663  2.087658  3.951328
      ESP Fit Center  542 is at  -4.872608  0.506271  3.951328
      ESP Fit Center  543 is at  -4.041224  1.110307  3.951328
      ESP Fit Center  544 is at  -6.702797  3.209068  7.171448
      ESP Fit Center  545 is at  -5.742797  3.209068  6.914217
      ESP Fit Center  546 is at  -6.222797  4.040452  6.914217
      ESP Fit Center  547 is at  -7.182797  4.040452  6.914217
      ESP Fit Center  548 is at  -7.662797  3.209068  6.914217
      ESP Fit Center  549 is at  -7.182797  2.377684  6.914217
      ESP Fit Center  550 is at  -6.222797  2.377684  6.914217
      ESP Fit Center  551 is at  -5.357589  4.186419  6.211448
      ESP Fit Center  552 is at  -6.188973  4.790455  6.211448
      ESP Fit Center  553 is at  -7.216621  4.790455  6.211448
      ESP Fit Center  554 is at  -8.048005  4.186419  6.211448
      ESP Fit Center  555 is at  -8.365566  3.209068  6.211448
      ESP Fit Center  556 is at  -8.048005  2.231717  6.211448
      ESP Fit Center  557 is at  -5.742797  4.871837  5.251448
      ESP Fit Center  558 is at  -6.702797  5.129068  5.251448
      ESP Fit Center  559 is at  -7.662797  4.871837  5.251448
      ESP Fit Center  560 is at  -8.365566  4.169068  5.251448
      ESP Fit Center  561 is at  -8.622797  3.209068  5.251448
      ESP Fit Center  562 is at  -8.048005  4.186419  4.291448
      ESP Fit Center  563 is at  -6.241749  5.142025  4.723388
      ESP Fit Center  564 is at  -6.495370  5.565891  3.761062
      ESP Fit Center  565 is at  -7.391671  5.324932  3.785049
      ESP Fit Center  566 is at  -8.223055  4.720896  3.785049
      ESP Fit Center  567 is at  -8.540616  3.743545  3.785049
      ESP Fit Center  568 is at  -6.877847  5.663545  2.825049
      ESP Fit Center  569 is at  -7.837847  5.406314  2.825049
      ESP Fit Center  570 is at  -8.540616  4.703545  2.825049
      ESP Fit Center  571 is at  -8.797847  3.743545  2.825049
      ESP Fit Center  572 is at  -8.540616  2.783545  2.825049
      ESP Fit Center  573 is at  -6.364023  5.324932  1.865049
      ESP Fit Center  574 is at  -7.391671  5.324932  1.865049
      ESP Fit Center  575 is at  -8.223055  4.720896  1.865049
      ESP Fit Center  576 is at  -8.540616  3.743545  1.865049
      ESP Fit Center  577 is at  -8.223055  2.766194  1.865049
      ESP Fit Center  578 is at  -7.837847  3.743545  1.162280
      ESP Fit Center  579 is at  -4.307068  4.086723  5.090652
      ESP Fit Center  580 is at  -4.787068  4.918107  5.090652
      ESP Fit Center  581 is at  -5.747068  4.918107  5.090652
      ESP Fit Center  582 is at  -3.604299  4.086723  4.387883
      ESP Fit Center  583 is at  -3.921860  5.064074  4.387883
      ESP Fit Center  584 is at  -4.753244  5.668110  4.387883
      ESP Fit Center  585 is at  -5.780892  5.668110  4.387883
      ESP Fit Center  586 is at  -4.307068  5.749492  3.427883
      ESP Fit Center  587 is at  -5.267068  6.006723  3.427883
      ESP Fit Center  588 is at  -6.227068  5.749492  3.427883
      ESP Fit Center  589 is at  -5.780892  5.668110  2.467883
      ESP Fit Center  590 is at  -3.700509  2.374119  3.701217
      ESP Fit Center  591 is at  -4.034978  1.344729  3.701217
      ESP Fit Center  592 is at  -6.226212  0.332195  2.803047
      ESP Fit Center  593 is at  -5.188579  0.206203  2.803047
      ESP Fit Center  594 is at  -4.211250  0.576855  2.803047
      ESP Fit Center  595 is at  -7.572192  1.851492  1.806153
      ESP Fit Center  596 is at  -7.086439  0.925966  1.806153
      ESP Fit Center  597 is at  -6.226212  0.332195  1.806153
      ESP Fit Center  598 is at  -5.188579  0.206203  1.806153
      ESP Fit Center  599 is at  -4.211250  0.576855  1.806153
      ESP Fit Center  600 is at  -7.261225  1.864310  0.505088
      ESP Fit Center  601 is at  -6.953502  2.350881 -0.457238
      ESP Fit Center  602 is at  -6.194435  2.879523 -1.123187
      ESP Fit Center  603 is at  -5.924367  5.497127  0.713462
      ESP Fit Center  604 is at  -6.884367  5.239896  0.713462
      ESP Fit Center  605 is at  -7.587136  4.537127  0.713462
      ESP Fit Center  606 is at  -7.844367  3.577127  0.713462
      ESP Fit Center  607 is at  -7.587136  2.617127  0.713462
      ESP Fit Center  608 is at  -5.410543  5.158514 -0.246538
      ESP Fit Center  609 is at  -6.438191  5.158514 -0.246538
      ESP Fit Center  610 is at  -7.269575  4.554478 -0.246538
      ESP Fit Center  611 is at  -7.587136  3.577127 -0.246538
      ESP Fit Center  612 is at  -7.269575  2.599776 -0.246538
      ESP Fit Center  613 is at  -5.444367  4.408511 -0.949307
      ESP Fit Center  614 is at  -6.404367  4.408511 -0.949307
      ESP Fit Center  615 is at  -6.884367  3.577127 -0.949307
      ESP Fit Center  616 is at  -5.924367  3.577127 -1.206538
      ESP Fit Center  617 is at  -4.638907  0.454982  1.320988
      ESP Fit Center  618 is at  -6.815500  1.076369  0.360988
      ESP Fit Center  619 is at  -6.112731  0.373600  0.360988
      ESP Fit Center  620 is at  -5.152731  0.116369  0.360988
      ESP Fit Center  621 is at  -4.192731  0.373600  0.360988
      ESP Fit Center  622 is at  -6.815500  2.036369 -0.599012
      ESP Fit Center  623 is at  -6.497939  1.059018 -0.599012
      ESP Fit Center  624 is at  -5.666555  0.454982 -0.599012
      ESP Fit Center  625 is at  -4.638907  0.454982 -0.599012
      ESP Fit Center  626 is at  -3.807523  1.059018 -0.599012
      ESP Fit Center  627 is at  -4.192731  2.036369 -1.301781
      ESP Fit Center  628 is at  -6.112731  2.036369 -1.301781
      ESP Fit Center  629 is at  -5.632731  1.204985 -1.301781
      ESP Fit Center  630 is at  -4.672731  1.204985 -1.301781
      ESP Fit Center  631 is at  -5.152731  2.036369 -1.559012
      ESP Fit Center  632 is at  -2.341350  5.391036  0.421344
      ESP Fit Center  633 is at  -4.320868  5.842849  0.421344
      ESP Fit Center  634 is at  -5.259066  5.391036  0.421344
      ESP Fit Center  635 is at  -2.742103  5.690483 -0.025630
      ESP Fit Center  636 is at  -3.702103  5.947714 -0.025630
      ESP Fit Center  637 is at  -4.662103  5.690483 -0.025630
      ESP Fit Center  638 is at  -2.356895  5.005065 -0.985630
      ESP Fit Center  639 is at  -3.188279  5.609101 -0.985630
      ESP Fit Center  640 is at  -4.215927  5.609101 -0.985630
      ESP Fit Center  641 is at  -5.047311  5.005065 -0.985630
      ESP Fit Center  642 is at  -2.742103  4.027714 -1.688399
      ESP Fit Center  643 is at  -3.222103  4.859098 -1.688399
      ESP Fit Center  644 is at  -4.182103  4.859098 -1.688399
      ESP Fit Center  645 is at  -4.662103  4.027714 -1.688399
      ESP Fit Center  646 is at  -4.182103  3.196330 -1.688399
      ESP Fit Center  647 is at  -3.222103  3.196330 -1.688399
      ESP Fit Center  648 is at  -3.702103  4.027714 -1.945630
      ESP Fit Center  649 is at  -2.757235  4.352467  3.362587
      ESP Fit Center  650 is at  -3.237235  5.183851  3.362587
      ESP Fit Center  651 is at  -3.237235  3.521083  3.362587
      ESP Fit Center  652 is at  -2.372027  5.329818  2.659818
      ESP Fit Center  653 is at  -3.203411  5.933854  2.659818
      ESP Fit Center  654 is at  -4.231059  5.933854  2.659818
      ESP Fit Center  655 is at  -2.757235  6.015236  1.699818
      ESP Fit Center  656 is at  -3.717235  6.272467  1.699818
      ESP Fit Center  657 is at  -4.677235  6.015236  1.699818
      ESP Fit Center  658 is at  -5.380004  5.312467  1.699818
      ESP Fit Center  659 is at  -3.203411  5.933854  0.739818
      ESP Fit Center  660 is at  -4.231059  5.933854  0.739818
      ESP Fit Center  661 is at  -2.801481  2.609456  3.381580
      ESP Fit Center  662 is at  -3.287431  1.767766  3.159750
      ESP Fit Center  663 is at  -2.315531  1.767766  3.159750
      ESP Fit Center  664 is at  -3.342663  0.943868  2.538197
      ESP Fit Center  665 is at  -3.575881  0.567532  1.640027
      ESP Fit Center  666 is at  -2.538248  0.441540  1.640027
      ESP Fit Center  667 is at  -3.575881  0.567532  0.643133
      ESP Fit Center  668 is at  -2.538248  0.441540  0.643133
      ESP Fit Center  669 is at  -3.342663  0.943868 -0.255037
      ESP Fit Center  670 is at  -3.287431  1.767766 -0.876590
      ESP Fit Center  671 is at  -2.801481  2.609456 -1.098420
      ESP Fit Center  672 is at  -2.026476  2.215770  3.307881
      ESP Fit Center  673 is at   0.602295  4.132793  0.611506
      ESP Fit Center  674 is at  -1.358082  3.774316  3.923361
      ESP Fit Center  675 is at  -0.398082  3.774316  3.666130
      ESP Fit Center  676 is at  -0.878082  4.605700  3.666130
      ESP Fit Center  677 is at  -1.838082  4.605700  3.666130
      ESP Fit Center  678 is at  -2.318082  3.774316  3.666130
      ESP Fit Center  679 is at  -1.838082  2.942932  3.666130
      ESP Fit Center  680 is at  -0.878082  2.942932  3.666130
      ESP Fit Center  681 is at   0.304687  3.774316  2.963361
      ESP Fit Center  682 is at  -0.012874  4.751667  2.963361
      ESP Fit Center  683 is at  -0.844258  5.355703  2.963361
      ESP Fit Center  684 is at  -1.871906  5.355703  2.963361
      ESP Fit Center  685 is at   0.304687  4.734316  2.003361
      ESP Fit Center  686 is at  -0.398082  5.437085  2.003361
      ESP Fit Center  687 is at  -1.358082  5.694316  2.003361
      ESP Fit Center  688 is at   0.351131  4.654978  0.243775
      ESP Fit Center  689 is at  -0.351638  5.357747  0.243775
      ESP Fit Center  690 is at  -1.311638  5.614978  0.243775
      ESP Fit Center  691 is at  -2.271638  5.357747  0.243775
      ESP Fit Center  692 is at   0.351131  3.694978 -0.716225
      ESP Fit Center  693 is at   0.033570  4.672329 -0.716225
      ESP Fit Center  694 is at  -0.797814  5.276365 -0.716225
      ESP Fit Center  695 is at  -1.825462  5.276365 -0.716225
      ESP Fit Center  696 is at  -0.351638  3.694978 -1.418994
      ESP Fit Center  697 is at  -0.831638  4.526362 -1.418994
      ESP Fit Center  698 is at  -1.791638  4.526362 -1.418994
      ESP Fit Center  699 is at  -2.271638  3.694978 -1.418994
      ESP Fit Center  700 is at  -1.791638  2.863594 -1.418994
      ESP Fit Center  701 is at  -1.311638  3.694978 -1.676225
      ESP Fit Center  702 is at   0.515082  1.969531  3.385197
      ESP Fit Center  703 is at  -0.005579  2.871341  3.385197
      ESP Fit Center  704 is at   1.052285  0.955075  2.719248
      ESP Fit Center  705 is at   1.052285  2.983987 -0.273504
      ESP Fit Center  706 is at  -0.822028  1.303974  3.949454
      ESP Fit Center  707 is at   0.137972  1.303974  3.692223
      ESP Fit Center  708 is at  -0.342028  2.135358  3.692223
      ESP Fit Center  709 is at  -1.302028  2.135358  3.692223
      ESP Fit Center  710 is at  -1.782028  1.303974  3.692223
      ESP Fit Center  711 is at  -1.302028  0.472590  3.692223
      ESP Fit Center  712 is at  -0.342028  0.472590  3.692223
      ESP Fit Center  713 is at  -2.484797  1.303974  2.989454
      ESP Fit Center  714 is at  -2.167236  0.326623  2.989454
      ESP Fit Center  715 is at  -1.335852 -0.277413  2.989454
      ESP Fit Center  716 is at  -0.308204 -0.277413  2.989454
      ESP Fit Center  717 is at   0.523180  0.326623  2.989454
      ESP Fit Center  718 is at  -2.484797  0.343974  2.029454
      ESP Fit Center  719 is at   1.422886  2.362940  3.114097
      ESP Fit Center  720 is at   0.942886  3.194324  3.114097
      ESP Fit Center  721 is at   0.942886  1.531556  3.114097
      ESP Fit Center  722 is at   2.125655  2.362940  2.411328
      ESP Fit Center  723 is at   1.808094  3.340291  2.411328
      ESP Fit Center  724 is at   0.976710  3.944327  2.411328
      ESP Fit Center  725 is at   2.382886  2.362940  1.451328
      ESP Fit Center  726 is at   2.125655  3.322940  1.451328
      ESP Fit Center  727 is at   1.422886  4.025709  1.451328
      ESP Fit Center  728 is at   2.125655  2.362940  0.491328
      ESP Fit Center  729 is at   1.808094  3.340291  0.491328
      ESP Fit Center  730 is at   0.976710  3.944327  0.491328
      ESP Fit Center  731 is at   0.716583  3.091349 -0.498447
      ESP Fit Center  732 is at  -2.644359  0.771458 -0.498447
      ESP Fit Center  733 is at   0.892855  2.323475 -1.396617
      ESP Fit Center  734 is at   0.017203  2.959673 -1.396617
      ESP Fit Center  735 is at  -1.940813  2.323475 -1.396617
      ESP Fit Center  736 is at  -2.275282  1.294085 -1.396617
      ESP Fit Center  737 is at   0.447921  1.294085 -2.018170
      ESP Fit Center  738 is at  -0.038029  2.135775 -2.018170
      ESP Fit Center  739 is at  -1.009929  2.135775 -2.018170
      ESP Fit Center  740 is at  -1.495879  1.294085 -2.018170
      ESP Fit Center  741 is at  -0.523979  1.294085 -2.240000
      ESP Fit Center  742 is at  -2.339827  0.000000  0.534050
      ESP Fit Center  743 is at  -2.339827  0.000000 -0.534050
      ESP Fit Center  744 is at   0.520660  0.901810 -2.162325
      ESP Fit Center  745 is at  -2.292871 -0.471877 -0.898917
      ESP Fit Center  746 is at  -2.035640 -1.431877 -0.898917
      ESP Fit Center  747 is at  -1.332871 -2.134646 -0.898917
      ESP Fit Center  748 is at  -0.372871 -2.391877 -0.898917
      ESP Fit Center  749 is at  -1.718079  0.505474 -1.858917
      ESP Fit Center  750 is at  -2.035640 -0.471877 -1.858917
      ESP Fit Center  751 is at  -1.718079 -1.449228 -1.858917
      ESP Fit Center  752 is at  -0.886695 -2.053264 -1.858917
      ESP Fit Center  753 is at   0.107129  0.359507 -2.561686
      ESP Fit Center  754 is at  -0.852871  0.359507 -2.561686
      ESP Fit Center  755 is at  -1.332871 -0.471877 -2.561686
      ESP Fit Center  756 is at  -0.852871 -1.303261 -2.561686
      ESP Fit Center  757 is at  -0.372871 -0.471877 -2.818917
      ESP Fit Center  758 is at  -0.371198 -0.566592  2.769563
      ESP Fit Center  759 is at   0.588802 -0.566592  2.512332
      ESP Fit Center  760 is at  -1.331198 -0.566592  2.512332
      ESP Fit Center  761 is at  -0.851198 -1.397976  2.512332
      ESP Fit Center  762 is at   0.108802 -1.397976  2.512332
      ESP Fit Center  763 is at  -2.033967 -0.566592  1.809563
      ESP Fit Center  764 is at  -1.716406 -1.543943  1.809563
      ESP Fit Center  765 is at  -0.885022 -2.147979  1.809563
      ESP Fit Center  766 is at   0.142626 -2.147979  1.809563
      ESP Fit Center  767 is at  -2.291198 -0.566592  0.849563
      ESP Fit Center  768 is at  -2.033967 -1.526592  0.849563
      ESP Fit Center  769 is at  -1.331198 -2.229361  0.849563
      ESP Fit Center  770 is at  -0.371198 -2.486592  0.849563
      ESP Fit Center  771 is at   1.909478  0.416522  2.844225
      ESP Fit Center  772 is at   2.869478  0.416522  2.586994
      ESP Fit Center  773 is at   2.389478  1.247906  2.586994
      ESP Fit Center  774 is at   0.949478  0.416522  2.586994
      ESP Fit Center  775 is at   1.429478 -0.414862  2.586994
      ESP Fit Center  776 is at   2.389478 -0.414862  2.586994
      ESP Fit Center  777 is at   3.572247  0.416522  1.884225
      ESP Fit Center  778 is at   3.254686  1.393873  1.884225
      ESP Fit Center  779 is at   2.423302  1.997909  1.884225
      ESP Fit Center  780 is at   3.829478  0.416522  0.924225
      ESP Fit Center  781 is at   3.572247  1.376522  0.924225
      ESP Fit Center  782 is at   2.869478  2.079291  0.924225
      ESP Fit Center  783 is at   3.817678  0.617904 -0.809740
      ESP Fit Center  784 is at   3.560447  1.577904 -0.809740
      ESP Fit Center  785 is at   2.857678  2.280673 -0.809740
      ESP Fit Center  786 is at   1.897678  2.537904 -0.809740
      ESP Fit Center  787 is at   3.560447  0.617904 -1.769740
      ESP Fit Center  788 is at   3.242886  1.595255 -1.769740
      ESP Fit Center  789 is at   2.411502  2.199291 -1.769740
      ESP Fit Center  790 is at   1.383854  2.199291 -1.769740
      ESP Fit Center  791 is at   2.377678  1.449288 -2.472509
      ESP Fit Center  792 is at   1.417678  1.449288 -2.472509
      ESP Fit Center  793 is at   0.937678  0.617904 -2.472509
      ESP Fit Center  794 is at   1.897678  0.617904 -2.729740
      ESP Fit Center  795 is at   2.258182 -1.659279  2.685959
      ESP Fit Center  796 is at   3.329696 -1.659279  2.472822
      ESP Fit Center  797 is at   2.793939 -0.731321  2.472822
      ESP Fit Center  798 is at   1.722425 -0.731321  2.472822
      ESP Fit Center  799 is at   1.186668 -1.659279  2.472822
      ESP Fit Center  800 is at   1.722425 -2.587237  2.472822
      ESP Fit Center  801 is at   2.793939 -2.587237  2.472822
      ESP Fit Center  802 is at   4.238081 -1.659279  1.865858
      ESP Fit Center  803 is at   3.972825 -0.669330  1.865858
      ESP Fit Center  804 is at   0.543539 -2.649228  1.865858
      ESP Fit Center  805 is at   1.268233 -3.373922  1.865858
      ESP Fit Center  806 is at   2.258182 -3.639178  1.865858
      ESP Fit Center  807 is at   3.248131 -3.373922  1.865858
      ESP Fit Center  808 is at   3.972825 -2.649228  1.865858
      ESP Fit Center  809 is at   4.845045 -1.659279  0.957473
      ESP Fit Center  810 is at   4.621399 -0.607107  0.957473
      ESP Fit Center  811 is at   3.989131  0.263135  0.957473
      ESP Fit Center  812 is at   0.165366 -3.179799  0.957473
      ESP Fit Center  813 is at   0.964751 -3.899568  0.957473
      ESP Fit Center  814 is at   1.987781 -4.231971  0.957473
      ESP Fit Center  815 is at   3.057567 -4.119532  0.957473
      ESP Fit Center  816 is at   3.989131 -3.581693  0.957473
      ESP Fit Center  817 is at   4.621399 -2.711451  0.957473
      ESP Fit Center  818 is at   5.058182 -1.659279 -0.114041
      ESP Fit Center  819 is at   4.869104 -0.647802 -0.114041
      ESP Fit Center  820 is at   4.327407  0.227069 -0.114041
      ESP Fit Center  821 is at  -0.122426 -3.133289 -0.114041
      ESP Fit Center  822 is at   0.570805 -3.893727 -0.114041
      ESP Fit Center  823 is at   4.869104 -2.670756 -0.114041
      ESP Fit Center  824 is at   4.845045 -1.659279 -1.185555
      ESP Fit Center  825 is at   4.621399 -0.607107 -1.185555
      ESP Fit Center  826 is at   3.989131  0.263135 -1.185555
      ESP Fit Center  827 is at  -0.319924 -3.007263 -1.206274
      ESP Fit Center  828 is at  -0.894716 -2.029912 -2.166274
      ESP Fit Center  829 is at  -0.637485 -2.989912 -2.166274
      ESP Fit Center  830 is at   0.065284 -3.692681 -2.166274
      ESP Fit Center  831 is at   0.511460 -0.448525 -3.126274
      ESP Fit Center  832 is at  -0.319924 -1.052561 -3.126274
      ESP Fit Center  833 is at  -0.637485 -2.029912 -3.126274
      ESP Fit Center  834 is at  -0.319924 -3.007263 -3.126274
      ESP Fit Center  835 is at   0.545284 -1.198528 -3.829043
      ESP Fit Center  836 is at   0.065284 -2.029912 -3.829043
      ESP Fit Center  837 is at   4.479874 -1.236911 -2.457771
      ESP Fit Center  838 is at   4.222643 -0.276911 -2.457771
      ESP Fit Center  839 is at   3.519874  0.425858 -2.457771
      ESP Fit Center  840 is at   3.073698  0.344476 -3.417771
      ESP Fit Center  841 is at   2.046050  0.344476 -3.417771
      ESP Fit Center  842 is at   1.214666 -0.259560 -3.417771
      ESP Fit Center  843 is at   2.079874 -0.405527 -4.120540
      ESP Fit Center  844 is at   1.684833 -4.988075  0.004625
      ESP Fit Center  845 is at   2.644833 -4.988075  0.004625
      ESP Fit Center  846 is at   0.502064 -4.156691 -0.698144
      ESP Fit Center  847 is at   0.819625 -5.134042 -0.698144
      ESP Fit Center  848 is at   1.651009 -5.738078 -0.698144
      ESP Fit Center  849 is at   2.678657 -5.738078 -0.698144
      ESP Fit Center  850 is at   3.510041 -5.134042 -0.698144
      ESP Fit Center  851 is at   0.244833 -4.156691 -1.658144
      ESP Fit Center  852 is at   0.502064 -5.116691 -1.658144
      ESP Fit Center  853 is at   1.204833 -5.819460 -1.658144
      ESP Fit Center  854 is at   2.164833 -6.076691 -1.658144
      ESP Fit Center  855 is at   3.124833 -5.819460 -1.658144
      ESP Fit Center  856 is at   4.684791 -3.413420 -0.209828
      ESP Fit Center  857 is at   4.204791 -4.244804 -0.209828
      ESP Fit Center  858 is at   5.387560 -3.413420 -0.912597
      ESP Fit Center  859 is at   5.069999 -2.436069 -0.912597
      ESP Fit Center  860 is at   4.238615 -4.994807 -0.912597
      ESP Fit Center  861 is at   5.069999 -4.390771 -0.912597
      ESP Fit Center  862 is at   4.684791 -1.750651 -1.872597
      ESP Fit Center  863 is at   4.684791 -5.076189 -1.872597
      ESP Fit Center  864 is at   0.054523 -4.381937 -2.880962
      ESP Fit Center  865 is at   0.492041 -5.364618 -2.880962
      ESP Fit Center  866 is at   1.291426 -6.084387 -2.880962
      ESP Fit Center  867 is at   2.314456 -6.416790 -2.880962
      ESP Fit Center  868 is at   3.384242 -6.304351 -2.880962
      ESP Fit Center  869 is at   4.315806 -5.766512 -2.880962
      ESP Fit Center  870 is at   0.204249 -2.370088 -3.952476
      ESP Fit Center  871 is at  -0.167468 -3.329599 -3.952476
      ESP Fit Center  872 is at  -0.167468 -4.358597 -3.952476
      ESP Fit Center  873 is at   0.204249 -5.318108 -3.952476
      ESP Fit Center  874 is at   0.897480 -6.078546 -3.952476
      ESP Fit Center  875 is at   1.818601 -6.537210 -3.952476
      ESP Fit Center  876 is at   2.843208 -6.632154 -3.952476
      ESP Fit Center  877 is at   3.832924 -6.350555 -3.952476
      ESP Fit Center  878 is at   1.291426 -1.603809 -5.023990
      ESP Fit Center  879 is at   0.492041 -2.323578 -5.023990
      ESP Fit Center  880 is at   0.054523 -3.306259 -5.023990
      ESP Fit Center  881 is at   0.054523 -4.381937 -5.023990
      ESP Fit Center  882 is at   0.492041 -5.364618 -5.023990
      ESP Fit Center  883 is at   1.291426 -6.084387 -5.023990
      ESP Fit Center  884 is at   2.314456 -6.416790 -5.023990
      ESP Fit Center  885 is at   3.384242 -6.304351 -5.023990
      ESP Fit Center  886 is at   1.594908 -2.129455 -5.932375
      ESP Fit Center  887 is at   0.870214 -2.854149 -5.932375
      ESP Fit Center  888 is at   0.604958 -3.844098 -5.932375
      ESP Fit Center  889 is at   0.870214 -4.834047 -5.932375
      ESP Fit Center  890 is at   1.594908 -5.558741 -5.932375
      ESP Fit Center  891 is at   2.584857 -5.823997 -5.932375
      ESP Fit Center  892 is at   3.574806 -5.558741 -5.932375
      ESP Fit Center  893 is at   1.513343 -3.844098 -6.539339
      ESP Fit Center  894 is at   2.049100 -4.772056 -6.539339
      ESP Fit Center  895 is at   3.120614 -4.772056 -6.539339
      ESP Fit Center  896 is at   4.936358 -1.910506 -2.640419
      ESP Fit Center  897 is at   3.976358  0.009494 -4.303188
      ESP Fit Center  898 is at   3.016358 -0.247737 -4.303188
      ESP Fit Center  899 is at   4.490182 -0.329119 -5.263188
      ESP Fit Center  900 is at   3.462534 -0.329119 -5.263188
      ESP Fit Center  901 is at   2.631150 -0.933155 -5.263188
      ESP Fit Center  902 is at   4.266050 -1.275654 -6.704164
      ESP Fit Center  903 is at   3.238402 -1.275654 -6.704164
      ESP Fit Center  904 is at   2.407018 -1.879690 -6.704164
      ESP Fit Center  905 is at   2.089457 -2.857041 -6.704164
      ESP Fit Center  906 is at   3.238402 -4.438428 -6.704164
      ESP Fit Center  907 is at   4.266050 -4.438428 -6.704164
      ESP Fit Center  908 is at   4.712226 -2.857041 -7.406933
      ESP Fit Center  909 is at   4.232226 -2.025657 -7.406933
      ESP Fit Center  910 is at   3.272226 -2.025657 -7.406933
      ESP Fit Center  911 is at   2.792226 -2.857041 -7.406933
      ESP Fit Center  912 is at   3.272226 -3.688425 -7.406933
      ESP Fit Center  913 is at   4.232226 -3.688425 -7.406933
      ESP Fit Center  914 is at   3.752226 -2.857041 -7.664164
      ESP Fit Center  915 is at   6.786355 -5.429406 -3.951888
      ESP Fit Center  916 is at   6.025487 -4.576549 -1.773505
      ESP Fit Center  917 is at   5.031663 -5.326552 -2.476274
      ESP Fit Center  918 is at   6.059311 -5.326552 -2.476274
      ESP Fit Center  919 is at   6.890695 -4.722516 -2.476274
      ESP Fit Center  920 is at   4.799374 -6.162439 -3.982231
      ESP Fit Center  921 is at   5.827022 -6.162439 -3.982231
      ESP Fit Center  922 is at   6.658406 -5.558403 -3.982231
      ESP Fit Center  923 is at   4.353198 -6.243821 -4.942231
      ESP Fit Center  924 is at   5.313198 -6.501052 -4.942231
      ESP Fit Center  925 is at   6.273198 -6.243821 -4.942231
      ESP Fit Center  926 is at   6.975967 -5.541052 -4.942231
      ESP Fit Center  927 is at   3.967990 -5.558403 -5.902231
      ESP Fit Center  928 is at   4.799374 -6.162439 -5.902231
      ESP Fit Center  929 is at   5.827022 -6.162439 -5.902231
      ESP Fit Center  930 is at   6.658406 -5.558403 -5.902231
      ESP Fit Center  931 is at   4.353198 -4.581052 -6.605000
      ESP Fit Center  932 is at   4.833198 -5.412436 -6.605000
      ESP Fit Center  933 is at   5.793198 -5.412436 -6.605000
      ESP Fit Center  934 is at   5.313198 -4.581052 -6.862231
      ESP Fit Center  935 is at   7.696150 -4.428004 -3.296526
      ESP Fit Center  936 is at   7.505586 -5.173614 -4.204911
      ESP Fit Center  937 is at   8.437150 -4.635775 -4.204911
      ESP Fit Center  938 is at   9.506201 -2.713361 -5.276425
      ESP Fit Center  939 is at   9.317123 -1.701884 -5.276425
      ESP Fit Center  940 is at   7.954268 -5.219818 -5.276425
      ESP Fit Center  941 is at   8.775426 -4.599709 -5.276425
      ESP Fit Center  942 is at   9.317123 -3.724838 -5.276425
      ESP Fit Center  943 is at   9.293064 -2.713361 -6.347939
      ESP Fit Center  944 is at   9.069418 -1.661189 -6.347939
      ESP Fit Center  945 is at   6.435800 -0.140669 -6.347939
      ESP Fit Center  946 is at   5.412770 -0.473072 -6.347939
      ESP Fit Center  947 is at   4.613385 -1.192841 -6.347939
      ESP Fit Center  948 is at   6.435800 -5.286053 -6.347939
      ESP Fit Center  949 is at   7.505586 -5.173614 -6.347939
      ESP Fit Center  950 is at   8.437150 -4.635775 -6.347939
      ESP Fit Center  951 is at   9.069418 -3.765533 -6.347939
      ESP Fit Center  952 is at   8.686100 -2.713361 -7.256324
      ESP Fit Center  953 is at   8.420844 -1.723412 -7.256324
      ESP Fit Center  954 is at   7.696150 -0.998718 -7.256324
      ESP Fit Center  955 is at   6.706201 -0.733462 -7.256324
      ESP Fit Center  956 is at   5.716252 -0.998718 -7.256324
      ESP Fit Center  957 is at   4.991558 -1.723412 -7.256324
      ESP Fit Center  958 is at   4.991558 -3.703310 -7.256324
      ESP Fit Center  959 is at   5.716252 -4.428004 -7.256324
      ESP Fit Center  960 is at   6.706201 -4.693260 -7.256324
      ESP Fit Center  961 is at   7.696150 -4.428004 -7.256324
      ESP Fit Center  962 is at   8.420844 -3.703310 -7.256324
      ESP Fit Center  963 is at   7.777715 -2.713361 -7.863288
      ESP Fit Center  964 is at   7.241958 -1.785403 -7.863288
      ESP Fit Center  965 is at   6.170444 -1.785403 -7.863288
      ESP Fit Center  966 is at   5.634687 -2.713361 -7.863288
      ESP Fit Center  967 is at   6.170444 -3.641319 -7.863288
      ESP Fit Center  968 is at   7.241958 -3.641319 -7.863288
      ESP Fit Center  969 is at   6.706201 -2.713361 -8.076425
      ESP Fit Center  970 is at   7.568315  0.914330 -3.564910
      ESP Fit Center  971 is at   6.526995  0.914330 -4.633010
      ESP Fit Center  972 is at   5.818877  0.051252 -5.595336
      ESP Fit Center  973 is at   9.003427  0.310077 -3.697234
      ESP Fit Center  974 is at   8.172043  0.914113 -3.697234
      ESP Fit Center  975 is at   9.578219 -0.667274 -4.657234
      ESP Fit Center  976 is at   9.320988  0.292726 -4.657234
      ESP Fit Center  977 is at   8.618219  0.995495 -4.657234
      ESP Fit Center  978 is at   7.658219  1.252726 -4.657234
      ESP Fit Center  979 is at   6.698219  0.995495 -4.657234
      ESP Fit Center  980 is at   9.320988 -0.667274 -5.617234
      ESP Fit Center  981 is at   9.003427  0.310077 -5.617234
      ESP Fit Center  982 is at   8.172043  0.914113 -5.617234
      ESP Fit Center  983 is at   7.144395  0.914113 -5.617234
      ESP Fit Center  984 is at   8.618219 -0.667274 -6.320003
      ESP Fit Center  985 is at   8.138219  0.164110 -6.320003
      ESP Fit Center  986 is at   7.178219  0.164110 -6.320003
      ESP Fit Center  987 is at   5.644526 -0.020558 -2.198110
      ESP Fit Center  988 is at   5.164526 -0.851942 -2.198110
      ESP Fit Center  989 is at   6.638350  0.729445 -2.900879
      ESP Fit Center  990 is at   5.610702  0.729445 -2.900879
      ESP Fit Center  991 is at   4.779318  0.125409 -2.900879
      ESP Fit Center  992 is at   6.124526  1.068058 -3.860879
      ESP Fit Center  993 is at   5.164526  0.810827 -3.860879
      ESP Fit Center  994 is at   4.461757  0.108058 -3.860879
      ESP Fit Center  995 is at   5.610702  0.729445 -4.820879
      ESP Fit Center  996 is at   4.779318  0.125409 -4.820879
      ESP Fit Center  997 is at   5.644526 -0.020558 -5.523648
      ESP Fit Center  998 is at   7.775007 -1.796430 -0.428209
      ESP Fit Center  999 is at   8.816328 -1.796430 -0.665884
      ESP Fit Center 1000 is at   8.295667 -2.698240 -0.665884
      ESP Fit Center 1001 is at   9.651403 -1.796430 -1.331833
      ESP Fit Center 1002 is at   5.974619 -1.267788 -1.331833
      ESP Fit Center 1003 is at   8.554490 -3.503259 -1.331833
      ESP Fit Center 1004 is at   9.353531 -2.810886 -1.331833
      ESP Fit Center 1005 is at   8.295667 -4.077593 -2.294159
      ESP Fit Center 1006 is at   9.233865  0.032920 -3.362259
      ESP Fit Center 1007 is at   7.974424 -0.930319 -0.283492
      ESP Fit Center 1008 is at   8.934424 -0.930319 -0.540723
      ESP Fit Center 1009 is at   8.454424 -0.098935 -0.540723
      ESP Fit Center 1010 is at   7.494424 -0.098935 -0.540723
      ESP Fit Center 1011 is at   7.014424 -0.930319 -0.540723
      ESP Fit Center 1012 is at   9.637193 -0.930319 -1.243492
      ESP Fit Center 1013 is at   9.319632  0.047032 -1.243492
      ESP Fit Center 1014 is at   8.488248  0.651068 -1.243492
      ESP Fit Center 1015 is at   7.460600  0.651068 -1.243492
      ESP Fit Center 1016 is at   6.629216  0.047032 -1.243492
      ESP Fit Center 1017 is at   9.637193  0.029681 -2.203492
      ESP Fit Center 1018 is at   8.934424  0.732450 -2.203492
      ESP Fit Center 1019 is at   7.974424  0.989681 -2.203492
      ESP Fit Center 1020 is at   7.014424  0.732450 -2.203492
      ESP Fit Center 1021 is at   9.319632  0.047032 -3.163492
      ESP Fit Center 1022 is at   8.488248  0.651068 -3.163492
      ESP Fit Center 1023 is at   7.187165 -2.494379 -0.322346
      ESP Fit Center 1024 is at   6.707165 -1.662995 -0.579577
      ESP Fit Center 1025 is at   6.227165 -2.494379 -0.579577
      ESP Fit Center 1026 is at   6.707165 -3.325763 -0.579577
      ESP Fit Center 1027 is at   7.667165 -3.325763 -0.579577
      ESP Fit Center 1028 is at   5.841957 -1.517028 -1.282346
      ESP Fit Center 1029 is at   5.524396 -2.494379 -1.282346
      ESP Fit Center 1030 is at   5.841957 -3.471730 -1.282346
      ESP Fit Center 1031 is at   6.673341 -4.075766 -1.282346
      ESP Fit Center 1032 is at   7.700989 -4.075766 -1.282346
      ESP Fit Center 1033 is at   8.532373 -3.471730 -1.282346
      ESP Fit Center 1034 is at   7.187165 -4.414379 -2.242346
      ESP Fit Center 1035 is at   8.147165 -4.157148 -2.242346
      ESP Fit Center 1036 is at   9.679448 -2.271485 -1.403214
      ESP Fit Center 1037 is at   9.199448 -3.102869 -1.403214
      ESP Fit Center 1038 is at  10.382217 -2.271485 -2.105983
      ESP Fit Center 1039 is at  10.064656 -1.294134 -2.105983
      ESP Fit Center 1040 is at   9.233272 -3.852872 -2.105983
      ESP Fit Center 1041 is at  10.064656 -3.248836 -2.105983
      ESP Fit Center 1042 is at  10.639448 -2.271485 -3.065983
      ESP Fit Center 1043 is at  10.382217 -1.311485 -3.065983
      ESP Fit Center 1044 is at   8.719448 -4.191485 -3.065983
      ESP Fit Center 1045 is at   9.679448 -3.934254 -3.065983
      ESP Fit Center 1046 is at  10.382217 -3.231485 -3.065983
      ESP Fit Center 1047 is at  10.382217 -2.271485 -4.025983
      ESP Fit Center 1048 is at  10.064656 -1.294134 -4.025983
[...]
 1371 Fit       0.009412
 1372 Fit       0.009465
 1373 Fit      -0.000138
 1374 Fit       0.000866
 1375 Fit       0.001618
 1376 Fit       0.003504
 1377 Fit       0.003702
 1378 Fit       0.003479
 1379 Fit       0.004339
 1380 Fit       0.003579
 1381 Fit       0.002297
 1382 Fit       0.000501
 1383 Fit       0.000488
 1384 Fit       0.002597
 1385 Fit       0.011998
 1386 Fit       0.005703
 1387 Fit       0.006321
 1388 Fit       0.010143
 1389 Fit       0.016444
 1390 Fit       0.008693
 1391 Fit       0.003841
 1392 Fit       0.001405
 1393 Fit      -0.000257
 1394 Fit      -0.003648
 1395 Fit      -0.007022
 1396 Fit      -0.006965
 1397 Fit      -0.000958
 1398 Fit      -0.006357
 1399 Fit      -0.007242
 1400 Fit      -0.008213
 1401 Fit      -0.010627
 1402 Fit      -0.013531
 1403 Fit      -0.014463
 1404 Fit      -0.010943
 1405 Fit      -0.003567
 1406 Fit      -0.009715
 1407 Fit      -0.013102
 1408 Fit      -0.013989
 1409 Fit      -0.013538
 1410 Fit      -0.013624
 1411 Fit      -0.014993
 1412 Fit      -0.016573
 1413 Fit      -0.015931
 1414 Fit      -0.010080
 1415 Fit      -0.004225
 1416 Fit      -0.011770
 1417 Fit      -0.015658
 1418 Fit      -0.016355
 1419 Fit      -0.015577
 1420 Fit      -0.015083
 1421 Fit      -0.015168
 1422 Fit      -0.014162
 1423 Fit      -0.008983
 1424 Fit      -0.004676
 1425 Fit      -0.011141
 1426 Fit      -0.013218
 1427 Fit      -0.012715
 1428 Fit      -0.011426
 1429 Fit      -0.008650
 1430 Fit      -0.001685
 1431 Fit      -0.005989
 1432 Fit      -0.005029
 1433 Fit       0.001522
 1434 Fit       0.003514
 1435 Fit       0.018144
 1436 Fit       0.016540
 1437 Fit       0.009342
 1438 Fit       0.007402
 1439 Fit       0.002082
 1440 Fit       0.002734
 1441 Fit       0.000005
 1442 Fit      -0.003619
 1443 Fit       0.002547
 1444 Fit       0.003258
 1445 Fit       0.003704
 1446 Fit       0.002091
 1447 Fit       0.001820
 1448 Fit       0.000196
 1449 Fit       0.011954
 1450 Fit       0.004643
 1451 Fit       0.005990
 1452 Fit       0.006233
 1453 Fit      -0.002466
 1454 Fit       0.001029
 1455 Fit      -0.003276
 1456 Fit       0.001109
 1457 Fit       0.000240
 1458 Fit      -0.000870
 1459 Fit       0.001940
 1460 Fit       0.001607
 1461 Fit       0.003420
 1462 Fit       0.001467
 1463 Fit      -0.007391
 1464 Fit      -0.011235
 1465 Fit      -0.005708
 1466 Fit      -0.013958
 1467 Fit      -0.016747
 1468 Fit      -0.012875
 1469 Fit      -0.009530
 1470 Fit      -0.001116
 1471 Fit       0.000969
 1472 Fit      -0.006873
 1473 Fit      -0.015228
 1474 Fit      -0.018609
 1475 Fit      -0.016266
 1476 Fit      -0.012336
 1477 Fit      -0.006085
 1478 Fit      -0.001334
 1479 Fit      -0.001067
 1480 Fit      -0.005244
 1481 Fit      -0.008728
 1482 Fit      -0.008250
 1483 Fit      -0.004866
 1484 Fit      -0.012768
 1485 Fit      -0.017407
 1486 Fit      -0.017021
 1487 Fit      -0.014489
 1488 Fit      -0.011140
 1489 Fit      -0.010407
 1490 Fit      -0.013002
 1491 Fit      -0.015008
 1492 Fit      -0.012251
 1493 Fit      -0.005642
 1494 Fit      -0.003279
 1495 Fit      -0.004662
 1496 Fit      -0.009132
 1497 Fit      -0.014450
 1498 Fit      -0.016573
 1499 Fit      -0.016173
 1500 Fit      -0.016010
 1501 Fit      -0.017092
 1502 Fit      -0.013939
 1503 Fit      -0.012181
 1504 Fit      -0.015138
 1505 Fit      -0.016526
 1506 Fit       0.012081
 1507 Fit       0.010540
 1508 Fit       0.011393
 1509 Fit       0.007529
 1510 Fit       0.009326
 1511 Fit       0.010172
 1512 Fit       0.009994
 1513 Fit       0.009445
 1514 Fit       0.005498
 1515 Fit       0.007958
 1516 Fit       0.008468
 1517 Fit       0.007322
 1518 Fit       0.004805
 1519 Fit       0.004459
 1520 Fit       0.000693
 1521 Fit       0.013053
 1522 Fit       0.014983
 1523 Fit       0.013328
 1524 Fit       0.016882
 1525 Fit       0.011121
 1526 Fit       0.013026
 1527 Fit       0.017543
 1528 Fit       0.008717
 1529 Fit       0.010864
 1530 Fit       0.003386
 1531 Fit       0.003359
 1532 Fit       0.003205
 1533 Fit       0.003094
 1534 Fit       0.004309
 1535 Fit       0.002848
 1536 Fit       0.002374
 1537 Fit       0.004808
 1538 Fit      -0.001158
 1539 Fit       0.006555
 1540 Fit       0.004703
 1541 Fit       0.004928
 1542 Fit       0.007001
 1543 Fit       0.006706
 1544 Fit       0.003929
 1545 Fit       0.004466
 1546 Fit       0.006785
 1547 Fit       0.008692
 1548 Fit       0.009489
 1549 Fit       0.008933
 1550 Fit       0.006873
 1551 Fit       0.006411
 1552 Fit       0.008753
 1553 Fit       0.010389
 1554 Fit       0.011469
 1555 Fit       0.011101
 1556 Fit       0.003968
 1557 Fit       0.003232
 1558 Fit       0.004782
 1559 Fit       0.007016
 1560 Fit       0.004612
 1561 Fit       0.008203
 1562 Fit       0.014749
 1563 Fit       0.008596
 1564 Fit       0.004175
 1565 Fit       0.004506
 1566 Fit       0.003544
 1567 Fit       0.003836
 1568 Fit       0.001111
 1569 Fit       0.002670
 1570 Fit       0.003679
 1571 Fit       0.004448
 1572 Fit      -0.004290
 1573 Fit      -0.000749
 1574 Fit       0.002106
 1575 Fit       0.002156
 1576 Fit       0.004914
 1577 Fit      -0.009613
 1578 Fit      -0.001867
 1579 Fit       0.000201
 1580 Fit      -0.001100
 1581 Fit      -0.001149
 1582 Fit       0.001913
 1583 Fit      -0.000181
 1584 Fit      -0.001893
 1585 Fit      -0.002998
 1586 Fit       0.004551
 1587 Fit      -0.000191
 1588 Fit      -0.004915
 1589 Fit       0.001707
 1590 Fit      -0.009182
 1591 Fit       0.002169
 1592 Fit      -0.020429
 1593 Fit      -0.000808
 1594 Fit      -0.001959
 1595 Fit      -0.003941
 1596 Fit       0.000014
 1597 Fit      -0.000861
 1598 Fit      -0.002417
 1599 Fit      -0.004992
 1600 Fit      -0.008467
 1601 Fit      -0.000250
 1602 Fit      -0.001767
 1603 Fit      -0.004101
 1604 Fit      -0.007929
 1605 Fit      -0.013820
 1606 Fit      -0.000674
 1607 Fit      -0.003741
 1608 Fit      -0.007700
 1609 Fit      -0.014861
 1610 Fit       0.000327
 1611 Fit      -0.001113
 1612 Fit       0.000359
 1613 Fit       0.001641
 1614 Fit      -0.004053
 1615 Fit      -0.003025
 1616 Fit      -0.001353
 1617 Fit      -0.001714
 1618 Fit       0.000966
 1619 Fit      -0.007499
 1620 Fit      -0.006210
 1621 Fit      -0.004184
 1622 Fit      -0.009909
 1623 Fit      -0.015560
 1624 Fit      -0.015139
 1625 Fit      -0.013479
 1626 Fit       0.002223
 1627 Fit       0.001496
 1628 Fit       0.003717
 1629 Fit       0.004218
 1630 Fit       0.002621
 1631 Fit       0.000459
 1632 Fit       0.003473
 1633 Fit       0.005379
 1634 Fit       0.005965
 1635 Fit       0.005300
 1636 Fit       0.003619
 1637 Fit       0.001381
 1638 Fit       0.007584
 1639 Fit       0.007337
 1640 Fit       0.006268
 1641 Fit       0.004460
 1642 Fit       0.002151
 1643 Fit       0.007432
 1644 Fit       0.004989
 1645 Fit       0.009312
 1646 Fit       0.008954
 1647 Fit       0.009315
 1648 Fit       0.012379
 1649 Fit       0.007951
 1650 Fit       0.008855
 1651 Fit       0.007660
 1652 Fit       0.006190
 1653 Fit       0.004132
 1654 Fit       0.009223
 1655 Fit       0.007867
 1656 Fit       0.006294
 1657 Fit       0.004058
 1658 Fit       0.000713
 1659 Fit       0.010908
 1660 Fit       0.008468
 1661 Fit       0.006020
 1662 Fit       0.002487
 1663 Fit      -0.003951
 1664 Fit       0.006724
 1665 Fit       0.004272
 1666 Fit       0.007548
 1667 Fit       0.008614
 1668 Fit       0.008874
 1669 Fit       0.004789
 1670 Fit       0.009848
 1671 Fit       0.010726
 1672 Fit       0.010253
 1673 Fit       0.009684
 1674 Fit       0.012325
 1675 Fit       0.010843
 1676 Fit      -0.024604
 1677 Fit      -0.027541
 1678 Fit      -0.029180
 1679 Fit      -0.019826
 1680 Fit      -0.024555
 1681 Fit      -0.027919
 1682 Fit      -0.031673
 1683 Fit      -0.007715
 1684 Fit      -0.014461
 1685 Fit      -0.019110
 1686 Fit      -0.022304
 1687 Fit      -0.001655
 1688 Fit      -0.007603
 1689 Fit       0.000600
 1690 Fit       0.002175
 1691 Fit       0.007654
 1692 Fit       0.004515
 1693 Fit       0.004108
 1694 Fit       0.012203
 1695 Fit       0.011499
 1696 Fit       0.009678
 1697 Fit       0.007617
 1698 Fit       0.004591
 1699 Fit       0.000347
 1700 Fit       0.010918
 1701 Fit       0.008830
 1702 Fit       0.006473
 1703 Fit       0.003528
 1704 Fit       0.008532
 1705 Fit       0.005852
 1706 Fit      -0.016807
 1707 Fit      -0.018483
 1708 Fit      -0.022036
 1709 Fit      -0.005140
 1710 Fit      -0.007511
 1711 Fit      -0.009726
 1712 Fit      -0.013623
 1713 Fit      -0.023258
 1714 Fit      -0.000434
 1715 Fit      -0.002884
 1716 Fit      -0.005512
 1717 Fit      -0.010245
 1718 Fit      -0.019232
 1719 Fit      -0.004828
 1720 Fit       0.001895
 1721 Fit      -0.001230
 1722 Fit      -0.004839
 1723 Fit       0.000594
 1724 Fit       0.014268
 1725 Fit       0.011075
 1726 Fit       0.011304
 1727 Fit       0.012369
 1728 Fit       0.010044
 1729 Fit       0.010041
 1730 Fit       0.010850
 1731 Fit       0.012256
 1732 Fit       0.008288
 1733 Fit       0.009156
 1734 Fit       0.009931
 1735 Fit       0.010247
 1736 Fit       0.001357
 1737 Fit       0.005962
 1738 Fit       0.007318
 1739 Fit       0.006359
 1740 Fit       0.001784
 1741 Fit      -0.003169
 1742 Fit       0.003646
 1743 Fit       0.010495
 1744 Fit       0.011619
 1745 Fit       0.012407
 1746 Fit       0.012070
 1747 Fit       0.011687
 1748 Fit       0.012255
 1749 Fit       0.013353
 1750 Fit       0.011761
 1751 Fit       0.011418
 1752 Fit       0.012152
 1753 Fit      -0.010179
 1754 Fit      -0.027490
 1755 Fit      -0.029339
 1756 Fit      -0.027761
 1757 Fit      -0.018086
 1758 Fit      -0.003801
 1759 Fit       0.012921
 1760 Fit       0.011247
 1761 Fit       0.007118
 1762 Fit       0.010313
 1763 Fit       0.009892
 1764 Fit       0.008596
 1765 Fit       0.003692
 1766 Fit       0.001251
 1767 Fit       0.007995
 1768 Fit       0.013491
 1769 Fit       0.011907
 1770 Fit       0.011049
 1771 Fit       0.010874
 1772 Fit       0.013467
 1773 Fit       0.011813
 1774 Fit       0.011280
 1775 Fit       0.011862
 1776 Fit       0.011253
 1777 Fit       0.008248
 1778 Fit       0.008878
 1779 Fit       0.009227
 1780 Fit       0.010040
 1781 Fit      -0.001351
 1782 Fit       0.004790
 1783 Fit       0.006731
 1784 Fit       0.007708
 1785 Fit      -0.004328
 1786 Fit       0.002555
 1787 Fit       0.003521
 1788 Fit      -0.004244
 1789 Fit       0.010144
 1790 Fit       0.010816
 1791 Fit       0.011225
 1792 Fit       0.006501
 1793 Fit       0.004211
 1794 Fit       0.008177
 1795 Fit       0.003255
 1796 Fit      -0.003220
 1797 Fit       0.000176
 1798 Fit       0.005119
 1799 Fit      -0.016590
 1800 Fit      -0.006410
 1801 Fit       0.001016
 1802 Fit       0.005624
 1803 Fit       0.009404
 1804 Fit      -0.010044
 1805 Fit       0.011905
 1806 Fit       0.012603
 1807 Fit       0.012915
 1808 Fit       0.012431
 1809 Fit       0.013344
 1810 Fit       0.012254
 1811 Fit       0.012398
 1812 Fit       0.014040
 1813 Fit       0.011128
 1814 Fit       0.011061
 1815 Fit       0.008059
 1816 Fit       0.008231
 1817 Fit      -0.000992
 1818 Fit      -0.025953
 1819 Fit      -0.007957
 1820 Fit      -0.018884
 1821 Fit      -0.020613
 1822 Fit      -0.010446
 1823 Fit      -0.015274
 1824 Fit      -0.015381
 1825 Fit      -0.009442
 1826 Fit      -0.019490
 1827 Fit      -0.015819
 1828 Fit      -0.006475
 1829 Fit       0.002388
 1830 Fit      -0.011092
 1831 Fit      -0.004017
 1832 Fit       0.000424
 1833 Fit      -0.008632
 1834 Fit      -0.002391
 1835 Fit       0.002540
 1836 Fit       0.002822
 1837 Fit      -0.003360
 1838 Fit      -0.000610
 1839 Fit       0.007834
 1840 Fit      -0.000051
 1841 Fit       0.001243
 1842 Fit      -0.007070
 1843 Fit      -0.003459
 1844 Fit      -0.003984
 1845 Fit      -0.017661
 1846 Fit      -0.008290
 1847 Fit      -0.004703
 1848 Fit      -0.006338
 1849 Fit      -0.004061
 1850 Fit       0.008735
 1851 Fit       0.010777
 1852 Fit       0.010676
 1853 Fit       0.008718
 1854 Fit       0.012530
 1855 Fit       0.007985
 1856 Fit       0.005725
 1857 Fit       0.010085
 1858 Fit       0.013939
 1859 Fit       0.007543
 1860 Fit       0.011117
 1861 Fit       0.009148
 1862 Fit       0.008265
 1863 Fit       0.010257
 1864 Fit       0.009619
 1865 Fit       0.006902
 1866 Fit      -0.000871
 1867 Fit       0.012893
 1868 Fit       0.009334
 1869 Fit       0.003533
 1870 Fit       0.011615
 1871 Fit       0.005985
 1872 Fit       0.006997
 1873 Fit      -0.001944
 1874 Fit      -0.003592
 1875 Fit       0.002959
 1876 Fit       0.005376
 1877 Fit      -0.001136
 1878 Fit      -0.006778
 1879 Fit      -0.006898
 1880 Fit      -0.005853
 1881 Fit      -0.000966
 1882 Fit      -0.007578
 1883 Fit      -0.010420
 1884 Fit      -0.010163
 1885 Fit      -0.009090
 1886 Fit      -0.008013
 1887 Fit      -0.007494
 1888 Fit      -0.004277
 1889 Fit       0.002223
 1890 Fit      -0.007460
 1891 Fit      -0.011280
 1892 Fit      -0.011197
 1893 Fit      -0.009608
 1894 Fit      -0.008333
 1895 Fit      -0.007996
 1896 Fit      -0.008191
 1897 Fit      -0.006811
 1898 Fit      -0.005381
 1899 Fit      -0.001092
 1900 Fit      -0.008543
 1901 Fit      -0.009837
 1902 Fit      -0.008107
 1903 Fit      -0.005648
 1904 Fit      -0.004307
 1905 Fit      -0.003897
 1906 Fit      -0.004431
 1907 Fit      -0.005890
 1908 Fit      -0.002211
 1909 Fit      -0.002611
 1910 Fit      -0.000250
 1911 Fit       0.004027
 1912 Fit      -0.004519
 1913 Fit      -0.004993
 1914 Fit       0.000964
 1915 Fit       0.004900
 1916 Fit       0.005996
 1917 Fit       0.006502
 1918 Fit       0.002150
 1919 Fit       0.002702
 1920 Fit       0.002993
 1921 Fit       0.003292
 1922 Fit       0.001057
 1923 Fit       0.002628
 1924 Fit       0.000584
 1925 Fit      -0.003165
 1926 Fit       0.018156
 1927 Fit       0.015679
 1928 Fit       0.016486
 1929 Fit       0.011587
 1930 Fit       0.007123
 1931 Fit       0.007546
 1932 Fit       0.001404
 1933 Fit      -0.002865
 1934 Fit      -0.001844
 1935 Fit       0.000950
 1936 Fit       0.001739
 1937 Fit       0.001936
 1938 Fit       0.001959
 1939 Fit       0.001955
 1940 Fit       0.002002
 1941 Fit       0.001504
 1942 Fit       0.000992
 1943 Fit       0.006759
 1944 Fit       0.004262
 1945 Fit       0.006517
 1946 Fit       0.007557
 1947 Fit      -0.000795
 1948 Fit      -0.003083
 1949 Fit      -0.002919
 1950 Fit       0.001665
 1951 Fit      -0.003051
 1952 Fit      -0.004125
 1953 Fit      -0.005362
 1954 Fit      -0.007296
 1955 Fit      -0.009033
 1956 Fit      -0.009001
 1957 Fit      -0.005874
 1958 Fit      -0.004947
 1959 Fit      -0.007716
 1960 Fit      -0.008766
 1961 Fit      -0.009080
 1962 Fit      -0.009690
 1963 Fit      -0.010904
 1964 Fit      -0.012185
 1965 Fit      -0.012407
 1966 Fit      -0.010276
 1967 Fit      -0.001072
 1968 Fit      -0.006824
 1969 Fit      -0.010355
 1970 Fit      -0.012006
 1971 Fit      -0.012258
 1972 Fit      -0.012079
 1973 Fit      -0.012281
 1974 Fit      -0.012863
 1975 Fit      -0.012890
 1976 Fit      -0.010787
 1977 Fit      -0.002622
 1978 Fit      -0.008280
 1979 Fit      -0.011564
 1980 Fit      -0.012609
 1981 Fit      -0.012421
 1982 Fit      -0.012040
 1983 Fit      -0.011632
 1984 Fit      -0.010162
 1985 Fit      -0.005704
 1986 Fit      -0.002827
 1987 Fit      -0.007745
 1988 Fit      -0.009738
 1989 Fit      -0.009731
 1990 Fit      -0.008720
 1991 Fit      -0.006320
 1992 Fit      -0.001176
 1993 Fit      -0.004570
 1994 Fit      -0.004088
 1995 Fit       0.000592
 1996 Fit       0.004885
 1997 Fit       0.003496
 1998 Fit       0.003433
 1999 Fit       0.011761
 2000 Fit       0.009398
 2001 Fit       0.005940
 2002 Fit       0.000601
 2003 Fit       0.001644
 2004 Fit      -0.000017
 2005 Fit       0.002247
 2006 Fit      -0.003931
 2007 Fit       0.000994
 2008 Fit       0.001683
 2009 Fit       0.001848
 2010 Fit       0.000140
 2011 Fit       0.000197
 2012 Fit      -0.001711
 2013 Fit       0.001750
 2014 Fit       0.010526
 2015 Fit       0.005215
 2016 Fit       0.005908
 2017 Fit       0.001478
 2018 Fit      -0.002921
 2019 Fit      -0.003763
 2020 Fit      -0.000288
 2021 Fit      -0.001181
 2022 Fit      -0.001431
 2023 Fit       0.000287
 2024 Fit      -0.001694
 2025 Fit      -0.000589
 2026 Fit       0.000751
 2027 Fit       0.000003
 2028 Fit       0.001759
 2029 Fit      -0.003558
 2030 Fit      -0.006071
 2031 Fit      -0.005264
 2032 Fit      -0.009897
 2033 Fit      -0.010714
 2034 Fit      -0.005387
 2035 Fit       0.000554
 2036 Fit      -0.009221
 2037 Fit      -0.013043
 2038 Fit      -0.013541
 2039 Fit      -0.010629
 2040 Fit      -0.008504
 2041 Fit      -0.003033
 2042 Fit       0.000649
 2043 Fit      -0.001167
 2044 Fit      -0.000560
 2045 Fit      -0.007772
 2046 Fit      -0.012684
 2047 Fit      -0.014490
 2048 Fit      -0.012828
 2049 Fit      -0.010532
 2050 Fit      -0.006509
 2051 Fit      -0.003499
 2052 Fit      -0.003261
 2053 Fit      -0.005530
 2054 Fit      -0.007501
 2055 Fit      -0.006875
 2056 Fit       0.002084
 2057 Fit      -0.000768
 2058 Fit      -0.005532
 2059 Fit      -0.010600
 2060 Fit      -0.013655
 2061 Fit      -0.013491
 2062 Fit      -0.012092
 2063 Fit      -0.009953
 2064 Fit      -0.009314
 2065 Fit      -0.010610
 2066 Fit      -0.011514
 2067 Fit      -0.009566
 2068 Fit      -0.005635
 2069 Fit      -0.004275
 2070 Fit      -0.005465
 2071 Fit      -0.008503
 2072 Fit      -0.011941
 2073 Fit      -0.013349
 2074 Fit      -0.013122
 2075 Fit      -0.012813
 2076 Fit      -0.013098
 2077 Fit      -0.011081
 2078 Fit      -0.010328
 2079 Fit      -0.012426
 2080 Fit      -0.013086
 2081 Fit       0.011402
 2082 Fit       0.010092
 2083 Fit       0.008816
 2084 Fit       0.005014
 2085 Fit       0.008173
 2086 Fit       0.009146
 2087 Fit       0.009454
 2088 Fit       0.005203
 2089 Fit       0.007128
 2090 Fit       0.008046
 2091 Fit       0.008107
 2092 Fit       0.007621
 2093 Fit       0.003008
 2094 Fit       0.005487
 2095 Fit       0.006063
 2096 Fit       0.005078
 2097 Fit       0.002345
 2098 Fit       0.001981
 2099 Fit       0.010630
 2100 Fit       0.012117
 2101 Fit       0.014632
 2102 Fit       0.011901
 2103 Fit       0.015123
 2104 Fit       0.009955
 2105 Fit       0.012410
 2106 Fit       0.007371
 2107 Fit       0.002963
 2108 Fit       0.003126
 2109 Fit       0.002866
 2110 Fit       0.002998
 2111 Fit       0.001309
 2112 Fit       0.002714
 2113 Fit       0.002276
 2114 Fit       0.003071
 2115 Fit       0.007473
 2116 Fit       0.001989
 2117 Fit       0.001662
 2118 Fit       0.004198
 2119 Fit       0.000554
 2120 Fit       0.006840
 2121 Fit       0.005939
 2122 Fit       0.004028
 2123 Fit       0.004336
 2124 Fit       0.005798
 2125 Fit       0.005440
 2126 Fit       0.003131
 2127 Fit       0.004162
 2128 Fit       0.005872
 2129 Fit       0.007295
 2130 Fit       0.007862
 2131 Fit       0.007082
 2132 Fit       0.004403
 2133 Fit       0.005597
 2134 Fit       0.007332
 2135 Fit       0.008660
 2136 Fit       0.009514
 2137 Fit       0.010129
 2138 Fit       0.007986
 2139 Fit       0.009585
 2140 Fit       0.010839
 2141 Fit       0.003073
 2142 Fit       0.002549
 2143 Fit       0.004956
 2144 Fit       0.003758
 2145 Fit       0.010345
 2146 Fit       0.006664
 2147 Fit       0.003746
 2148 Fit       0.003573
 2149 Fit       0.002916
 2150 Fit       0.001270
 2151 Fit       0.002151
 2152 Fit       0.003045
 2153 Fit       0.003766
 2154 Fit      -0.001458
 2155 Fit       0.000269
 2156 Fit       0.001954
 2157 Fit       0.002398
 2158 Fit       0.003879
 2159 Fit      -0.007323
 2160 Fit      -0.002805
 2161 Fit       0.000378
 2162 Fit       0.000386
 2163 Fit       0.004013
 2164 Fit      -0.004373
 Job cpu time:       0 days  0 hours  4 minutes 40.3 seconds.
 Normal termination of Gaussian 16 at Sat Jul  8 20:57:38 2023.
