 Copyright (c) 1988-2019, Gaussian, Inc.  All Rights Reserved.
  
 This is part of the Gaussian(R) 16 program.  It is based on
 the Gaussian(R) 09 system (copyright 2009, Gaussian, Inc.),
 the Gaussian(R) 03 system (copyright 2003, Gaussian, Inc.),
 the Gaussian(R) 98 system (copyright 1998, Gaussian, Inc.),
 the Gaussian(R) 94 system (copyright 1995, Gaussian, Inc.),
 the Gaussian 92(TM) system (copyright 1992, Gaussian, Inc.),
 the Gaussian 90(TM) system (copyright 1990, Gaussian, Inc.),
 the Gaussian 88(TM) system (copyright 1988, Gaussian, Inc.),
 the Gaussian 86(TM) system (copyright 1986, Carnegie Mellon
 University), and the Gaussian 82(TM) system (copyright 1983,
 Carnegie Mellon University). Gaussian is a federally registered
 trademark of Gaussian, Inc.
 Cite this work as:
 Gaussian 16, Revision C.01,
 M. J. Frisch, G. W. Trucks, H. B. Schlegel, G. E. Scuseria, 
 M. A. Robb, J. R. Cheeseman, G. Scalmani, V. Barone, 
 G. A. Petersson, H. Nakatsuji, X. Li, M. Caricato, A. V. Marenich, 
 J. Bloino, B. G. Janesko, R. Gomperts, B. Mennucci, H. P. Hratchian, 
 J. V. Ortiz, A. F. Izmaylov, J. L. Sonnenberg, D. Williams-Young, 
 F. Ding, F. Lipparini, F. Egidi, J. Goings, B. Peng, A. Petrone, 
 T. Henderson, D. Ranasinghe, V. G. Zakrzewski, J. Gao, N. Rega, 
 G. Zheng, W. Liang, M. Hada, M. Ehara, K. Toyota, R. Fukuda, 
 J. Hasegawa, M. Ishida, T. Nakajima, Y. Honda, O. Kitao, H. Nakai, 
 T. Vreven, K. Throssell, J. A. Montgomery, Jr., J. E. Peralta, 
 F. Ogliaro, M. J. Bearpark, J. J. Heyd, E. N. Brothers, K. N. Kudin, 
 V. N. Staroverov, T. A. Keith, R. Kobayashi, J. Normand, 
 K. Raghavachari, A. P. Rendell, J. C. Burant, S. S. Iyengar, 
 J. Tomasi, M. Cossi, J. M. Millam, M. Klene, C. Adamo, R. Cammi, 
 J. W. Ochterski, R. L. Martin, K. Morokuma, O. Farkas, 
 J. B. Foresman, and D. J. Fox, Gaussian, Inc., Wallingford CT, 2019.
 
 ******************************************
 Gaussian 16:  EM64L-G16RevC.01  3-Jul-2019
                 8-Jul-2023 
 ******************************************
 ----------------------------------------------------------------------
 #P HF/6-31G(d) SCF(Conver=8,XQC,MaxConventionalCycles=64,MaxCycle=128)
  NoSymm Test Pop=mk IOp(6/33=2) GFInput GFPrint
 ----------------------------------------------------------------------
 1/38=1,172=1/1;
 2/12=2,15=1,17=6,18=5,40=1/2;
 3/5=1,6=6,7=1,11=9,24=110,25=1,30=1/1,2,3;
 4//1;
 5/5=2,6=8,7=128,8=3,13=1,38=5,85=64/2,8;
 6/7=2,8=2,9=2,10=2,15=8,20=1,28=1,33=2/1,2;
 99/5=1,9=1/99;
 -------------------------------------------------
 MEP step - Input generated by PyRED DVE-DMDS-OPLS
 -------------------------------------------------
 Symbolic Z-matrix:
 Charge =  0 Multiplicity = 1
 C                    -1.92612   0.16756   7.63521 
 H                    -0.98469   0.45719   8.09093 
 H                    -2.71728   0.74249   8.10747 
 H                    -2.09217  -0.8833    7.84366 
 C                    -1.91851   0.40833   6.13282 
 H                    -2.87206   0.12051   5.70782 
 H                    -1.77497   1.4648    5.91689 
 O                    -0.94613  -0.367     5.48177 
 C                     0.33864   0.18346   5.39004 
 H                     1.04051  -0.64106   5.40445 
 H                     0.55071   0.81663   6.24916 
 C                     0.55632   0.98802   4.11756 
 H                    -0.23167   1.72952   3.99773 
 H                     1.49825   1.51861   4.20578 
 O                     0.66402   0.20012   2.96786 
 C                    -0.53377  -0.25145   2.38732 
 H                    -1.22007   0.5806    2.24333 
 H                    -1.01366  -0.97831   3.03167 
 C                    -0.23117  -0.89866   1.05001 
 H                    -1.09975  -1.46753   0.7426 
 H                     0.59256  -1.59446   1.16447 
 O                     0.        0.        0. 
 C                     1.16348   0.77269   0. 
 H                     1.18288   1.44633   0.84918 
 H                     1.09574   1.3796   -0.89383 
 C                     2.48123   0.        0. 
 H                     2.63781  -0.48286   0.95573 
 H                     3.28503   0.71783  -0.12404 
 S                     2.67744  -1.32989  -1.22544 
 C                     2.37863  -0.48259  -2.81138 
 H                     2.65371   0.5599   -2.7165 
 H                     3.06741  -0.92496  -3.51937 
 C                     0.93929  -0.6211   -3.30628 
 H                     0.24877  -0.20778  -2.58577 
 H                     0.68028  -1.66596  -3.41791 
 S                     0.62225   0.26269  -4.86724 
 C                     1.32653  -0.8619   -6.11498 
 H                     2.29701  -1.20701  -5.78363 
 H                     1.49251  -0.25484  -6.99511 
 C                     0.40835  -2.0316   -6.46415 
 H                     0.16468  -2.61807  -5.58846 
 H                    -0.5257   -1.65399  -6.85883 
 S                     1.07895  -3.12148  -7.75872 
 C                     2.28213  -4.13974  -6.84696 
 H                     2.88821  -4.59911  -7.61869 
 H                     2.94143  -3.49656  -6.27645 
 C                     1.66684  -5.21568  -5.95688 
 H                     1.05662  -4.78804  -5.16904 
 H                     1.04315  -5.88594  -6.53658 
 H                     2.45119  -5.79999  -5.48396 
 
 ITRead=  0  0  0  0  0  0  0  0  0  0  0  0  0  0  0  0  0  0  0  0
 ITRead=  0  0  0  0  0  0  0  0  0  0  0  0  0  0  0  0  0  0  0  0
 ITRead=  0  0  0  0  0  0  0  0  0  0
 MicOpt= -1 -1 -1 -1 -1 -1 -1 -1 -1 -1 -1 -1 -1 -1 -1 -1 -1 -1 -1 -1
 MicOpt= -1 -1 -1 -1 -1 -1 -1 -1 -1 -1 -1 -1 -1 -1 -1 -1 -1 -1 -1 -1
 MicOpt= -1 -1 -1 -1 -1 -1 -1 -1 -1 -1
 NAtoms=     50 NQM=       50 NQMF=       0 NMMI=      0 NMMIF=      0
                NMic=       0 NMicF=      0.
                          Input orientation:                          
 ---------------------------------------------------------------------
 Center     Atomic      Atomic             Coordinates (Angstroms)
 Number     Number       Type             X           Y           Z
 ---------------------------------------------------------------------
      1          6           0       -1.926115    0.167562    7.635213
      2          1           0       -0.984693    0.457194    8.090931
      3          1           0       -2.717282    0.742494    8.107466
      4          1           0       -2.092173   -0.883297    7.843655
      5          6           0       -1.918514    0.408332    6.132816
      6          1           0       -2.872058    0.120514    5.707816
      7          1           0       -1.774974    1.464803    5.916889
      8          8           0       -0.946133   -0.366995    5.481771
      9          6           0        0.338637    0.183457    5.390041
     10          1           0        1.040513   -0.641064    5.404448
     11          1           0        0.550707    0.816626    6.249155
     12          6           0        0.556315    0.988024    4.117560
     13          1           0       -0.231665    1.729523    3.997731
     14          1           0        1.498245    1.518613    4.205784
     15          8           0        0.664017    0.200118    2.967862
     16          6           0       -0.533773   -0.251448    2.387316
     17          1           0       -1.220073    0.580595    2.243331
     18          1           0       -1.013659   -0.978313    3.031672
     19          6           0       -0.231172   -0.898659    1.050014
     20          1           0       -1.099749   -1.467527    0.742596
     21          1           0        0.592564   -1.594455    1.164470
     22          8           0        0.000000    0.000000    0.000000
     23          6           0        1.163481    0.772687    0.000000
     24          1           0        1.182880    1.446331    0.849183
     25          1           0        1.095742    1.379603   -0.893831
     26          6           0        2.481227    0.000000    0.000000
     27          1           0        2.637811   -0.482863    0.955733
     28          1           0        3.285029    0.717833   -0.124042
     29         16           0        2.677436   -1.329892   -1.225439
     30          6           0        2.378632   -0.482593   -2.811384
     31          1           0        2.653707    0.559898   -2.716499
     32          1           0        3.067407   -0.924957   -3.519374
     33          6           0        0.939285   -0.621098   -3.306275
     34          1           0        0.248767   -0.207784   -2.585767
     35          1           0        0.680281   -1.665958   -3.417909
     36         16           0        0.622254    0.262688   -4.867241
     37          6           0        1.326525   -0.861897   -6.114982
     38          1           0        2.297008   -1.207013   -5.783625
     39          1           0        1.492509   -0.254835   -6.995114
     40          6           0        0.408353   -2.031598   -6.464149
     41          1           0        0.164678   -2.618072   -5.588457
     42          1           0       -0.525696   -1.653992   -6.858834
     43         16           0        1.078950   -3.121478   -7.758721
     44          6           0        2.282130   -4.139742   -6.846963
     45          1           0        2.888207   -4.599111   -7.618686
     46          1           0        2.941431   -3.496558   -6.276447
     47          6           0        1.666840   -5.215682   -5.956881
     48          1           0        1.056625   -4.788042   -5.169038
     49          1           0        1.043153   -5.885941   -6.536581
     50          1           0        2.451189   -5.799985   -5.483964
 ---------------------------------------------------------------------
 Stoichiometry    C14H30O3S3
 Framework group  C1[X(C14H30O3S3)]
 Standard basis: 6-31G(d) (6D, 7F)
   372 basis functions,   752 primitive gaussians,   372 cartesian basis functions
    93 alpha electrons       93 beta electrons
 Requested convergence on RMS density matrix=1.00D-08 within  64 cycles.
 Requested convergence on MAX density matrix=1.00D-06.
 Requested convergence on             energy=1.00D-06.
 SCF Done:  E(RHF) =  -1964.68810978     A.U. after   13 cycles
            NFock= 13  Conv=0.60D-08     -V/T= 2.0006
 Mulliken charges:
     1  C   -0.493893
     2  H    0.161682
     3  H    0.158671
     4  H    0.178192
     5  C    0.004737
     6  H    0.172554
     7  H    0.138190
     8  O   -0.627828
     9  C   -0.011058
    10  H    0.184786
    11  H    0.141194
    12  C    0.000823
    13  H    0.145659
    14  H    0.167018
    15  O   -0.641990
    16  C   -0.014715
    17  H    0.148694
    18  H    0.181132
    19  C   -0.003204
    20  H    0.175522
    21  H    0.167298
    22  O   -0.631750
    23  C    0.023928
    24  H    0.176232
    25  H    0.165642
    26  C   -0.518549
    27  H    0.217301
    28  H    0.191442
    29  S    0.115242
    30  C   -0.477903
    31  H    0.203860
    32  H    0.196905
    33  C   -0.482926
    34  H    0.243461
    35  H    0.197478
    36  S    0.108411
    37  C   -0.472863
    38  H    0.192045
    39  H    0.216014
    40  C   -0.474191
    41  H    0.197464
    42  H    0.216352
    43  S    0.111956
    44  C   -0.475412
    45  H    0.200639
    46  H    0.186435
    47  C   -0.473551
    48  H    0.163814
    49  H    0.180815
    50  H    0.168247
 Sum of Mulliken charges =  -0.00000
 Dipole moment (field-independent basis, Debye):
    X=              0.3236    Y=              1.4803    Z=              5.0144  Tot=              5.2383
 Quadrupole moment (field-independent basis, Debye-Ang):
   XX=           -145.9505   YY=           -146.3066   ZZ=           -154.7447
   XY=             -0.4507   XZ=             -7.9911   YZ=             10.0931
 Traceless Quadrupole moment (field-independent basis, Debye-Ang):
   XX=              3.0501   YY=              2.6940   ZZ=             -5.7441
   XY=             -0.4507   XZ=             -7.9911   YZ=             10.0931
 Octapole moment (field-independent basis, Debye-Ang**2):
  XXX=           -362.2362  YYY=            396.0031  ZZZ=            843.0556  XYY=            -97.7820
  XXY=            140.4466  XXZ=            169.3570  XZZ=           -101.4076  YZZ=            213.3199
  YYZ=            166.2601  XYZ=             23.8785
 Hexadecapole moment (field-independent basis, Debye-Ang**3):
 XXXX=          -2370.8105 YYYY=          -3288.3939 ZZZZ=         -23381.8271 XXXY=            715.6052
 XXXZ=           2005.3288 YYYX=            590.8009 YYYZ=          -2658.3865 ZZZX=           1947.9482
 ZZZY=          -3078.9749 XXYY=           -907.0302 XXZZ=          -3763.7720 YYZZ=          -4218.2888
 XXYZ=           -829.7639 YYXZ=            539.4837 ZZXY=             -1.3814
 Merz-Kollman atomic radii used.
 Atom Element Radius
    1     6    1.50
    2     1    1.20
    3     1    1.20
    4     1    1.20
    5     6    1.50
    6     1    1.20
    7     1    1.20
    8     8    1.40
    9     6    1.50
   10     1    1.20
   11     1    1.20
   12     6    1.50
   13     1    1.20
   14     1    1.20
   15     8    1.40
   16     6    1.50
   17     1    1.20
   18     1    1.20
   19     6    1.50
   20     1    1.20
   21     1    1.20
   22     8    1.40
   23     6    1.50
   24     1    1.20
   25     1    1.20
   26     6    1.50
   27     1    1.20
   28     1    1.20
   29    16    1.75
   30     6    1.50
   31     1    1.20
   32     1    1.20
   33     6    1.50
   34     1    1.20
   35     1    1.20
   36    16    1.75
   37     6    1.50
   38     1    1.20
   39     1    1.20
   40     6    1.50
   41     1    1.20
   42     1    1.20
   43    16    1.75
   44     6    1.50
   45     1    1.20
   46     1    1.20
   47     6    1.50
   48     1    1.20
   49     1    1.20
   50     1    1.20
 Generate VDW surfaces: Layer= 4 Dens= 1 Start= 1.400 Inc= 0.200
            Electrostatic Properties Using The SCF Density.


       Atomic Center    1 is at  -1.926115  0.167562  7.635213
       Atomic Center    2 is at  -0.984693  0.457194  8.090931
       Atomic Center    3 is at  -2.717282  0.742494  8.107466
       Atomic Center    4 is at  -2.092173 -0.883297  7.843655
       Atomic Center    5 is at  -1.918514  0.408332  6.132816
       Atomic Center    6 is at  -2.872058  0.120514  5.707816
       Atomic Center    7 is at  -1.774974  1.464803  5.916889
       Atomic Center    8 is at  -0.946133 -0.366995  5.481771
       Atomic Center    9 is at   0.338637  0.183457  5.390041
       Atomic Center   10 is at   1.040513 -0.641064  5.404448
       Atomic Center   11 is at   0.550707  0.816626  6.249155
       Atomic Center   12 is at   0.556315  0.988024  4.117560
       Atomic Center   13 is at  -0.231665  1.729523  3.997731
       Atomic Center   14 is at   1.498245  1.518613  4.205784
       Atomic Center   15 is at   0.664017  0.200118  2.967862
       Atomic Center   16 is at  -0.533773 -0.251448  2.387316
       Atomic Center   17 is at  -1.220073  0.580595  2.243331
       Atomic Center   18 is at  -1.013659 -0.978313  3.031672
       Atomic Center   19 is at  -0.231172 -0.898659  1.050014
       Atomic Center   20 is at  -1.099749 -1.467527  0.742596
       Atomic Center   21 is at   0.592564 -1.594455  1.164470
       Atomic Center   22 is at   0.000000  0.000000  0.000000
       Atomic Center   23 is at   1.163481  0.772687  0.000000
       Atomic Center   24 is at   1.182880  1.446331  0.849183
       Atomic Center   25 is at   1.095742  1.379603 -0.893831
       Atomic Center   26 is at   2.481227  0.000000  0.000000
       Atomic Center   27 is at   2.637811 -0.482863  0.955733
       Atomic Center   28 is at   3.285029  0.717833 -0.124042
       Atomic Center   29 is at   2.677436 -1.329892 -1.225439
       Atomic Center   30 is at   2.378632 -0.482593 -2.811384
       Atomic Center   31 is at   2.653707  0.559898 -2.716499
       Atomic Center   32 is at   3.067407 -0.924957 -3.519374
       Atomic Center   33 is at   0.939285 -0.621098 -3.306275
       Atomic Center   34 is at   0.248767 -0.207784 -2.585767
       Atomic Center   35 is at   0.680281 -1.665958 -3.417909
       Atomic Center   36 is at   0.622254  0.262688 -4.867241
       Atomic Center   37 is at   1.326525 -0.861897 -6.114982
       Atomic Center   38 is at   2.297008 -1.207013 -5.783625
       Atomic Center   39 is at   1.492509 -0.254835 -6.995114
       Atomic Center   40 is at   0.408353 -2.031598 -6.464149
       Atomic Center   41 is at   0.164678 -2.618072 -5.588457
       Atomic Center   42 is at  -0.525696 -1.653992 -6.858834
       Atomic Center   43 is at   1.078950 -3.121478 -7.758721
       Atomic Center   44 is at   2.282130 -4.139742 -6.846963
       Atomic Center   45 is at   2.888207 -4.599111 -7.618686
       Atomic Center   46 is at   2.941431 -3.496558 -6.276447
       Atomic Center   47 is at   1.666840 -5.215682 -5.956881
       Atomic Center   48 is at   1.056625 -4.788042 -5.169038
       Atomic Center   49 is at   1.043153 -5.885941 -6.536581
       Atomic Center   50 is at   2.451189 -5.799985 -5.483964
      ESP Fit Center   51 is at  -1.926115  0.167562  9.735213
      ESP Fit Center   52 is at  -1.401115 -0.741765  9.453866
      ESP Fit Center   53 is at  -1.672988  2.252251  7.635213
      ESP Fit Center   54 is at  -3.965093 -0.335001  7.635213
      ESP Fit Center   55 is at  -0.984693  0.457194  9.770931
      ESP Fit Center   56 is at   0.002786  0.457194  9.450080
      ESP Fit Center   57 is at  -0.679545  1.396343  9.450080
      ESP Fit Center   58 is at  -0.679545 -0.481955  9.450080
      ESP Fit Center   59 is at   0.613082  0.457194  8.610080
      ESP Fit Center   60 is at   0.239274  1.484224  8.610080
      ESP Fit Center   61 is at  -0.707242  2.030695  8.610080
      ESP Fit Center   62 is at   0.239274 -0.569836  8.610080
      ESP Fit Center   63 is at  -0.707242  2.030695  7.571782
      ESP Fit Center   64 is at   0.239274 -0.569836  7.571782
      ESP Fit Center   65 is at  -2.717282  0.742494  9.787466
      ESP Fit Center   66 is at  -2.412134  1.681643  9.466615
      ESP Fit Center   67 is at  -3.516169  1.322920  9.466615
      ESP Fit Center   68 is at  -3.516169  0.162068  9.466615
      ESP Fit Center   69 is at  -2.439831  2.315995  8.626615
      ESP Fit Center   70 is at  -3.516169  2.126208  8.626615
      ESP Fit Center   71 is at  -4.218699  1.288965  8.626615
      ESP Fit Center   72 is at  -4.218699  0.196023  8.626615
      ESP Fit Center   73 is at  -2.439831  2.315995  7.588317
      ESP Fit Center   74 is at  -3.516169  2.126208  7.588317
      ESP Fit Center   75 is at  -4.218699  1.288965  7.588317
      ESP Fit Center   76 is at  -4.218699  0.196023  7.588317
      ESP Fit Center   77 is at  -2.092173 -0.883297  9.523655
      ESP Fit Center   78 is at  -2.891060 -1.463723  9.202804
      ESP Fit Center   79 is at  -1.787025 -1.822446  9.202804
      ESP Fit Center   80 is at  -3.593590 -1.429768  8.362804
      ESP Fit Center   81 is at  -2.891060 -2.267011  8.362804
      ESP Fit Center   82 is at  -1.814722 -2.456798  8.362804
      ESP Fit Center   83 is at  -0.868206 -1.910327  8.362804
      ESP Fit Center   84 is at  -3.593590 -1.429768  7.324506
      ESP Fit Center   85 is at  -2.891060 -2.267011  7.324506
      ESP Fit Center   86 is at  -1.814722 -2.456798  7.324506
      ESP Fit Center   87 is at  -0.868206 -1.910327  7.324506
      ESP Fit Center   88 is at  -2.891060 -1.463723  6.484506
      ESP Fit Center   89 is at  -3.490387  1.800890  6.132816
      ESP Fit Center   90 is at  -2.663184 -1.555202  6.132816
      ESP Fit Center   91 is at  -2.443514  1.317659  4.314163
      ESP Fit Center   92 is at  -4.373475  0.666985  6.226965
      ESP Fit Center   93 is at  -4.373475 -0.425957  6.226965
      ESP Fit Center   94 is at  -3.670945 -1.263200  6.226965
      ESP Fit Center   95 is at  -3.670945  1.504228  5.188667
      ESP Fit Center   96 is at  -4.373475  0.666985  5.188667
      ESP Fit Center   97 is at  -4.373475 -0.425957  5.188667
      ESP Fit Center   98 is at  -3.670945 -1.263200  5.188667
      ESP Fit Center   99 is at  -2.594607 -1.452987  5.188667
      ESP Fit Center  100 is at  -3.670945  0.700940  4.348667
      ESP Fit Center  101 is at  -3.670945 -0.459912  4.348667
      ESP Fit Center  102 is at  -2.566910 -0.818635  4.348667
      ESP Fit Center  103 is at  -2.872058  0.120514  4.027816
      ESP Fit Center  104 is at  -1.469826  2.403952  7.276038
      ESP Fit Center  105 is at  -0.551007  2.491833  6.436038
      ESP Fit Center  106 is at  -1.497523  3.038304  6.436038
      ESP Fit Center  107 is at  -2.573861  2.848517  6.436038
      ESP Fit Center  108 is at  -3.276391  2.011274  6.436038
      ESP Fit Center  109 is at  -1.497523  3.038304  5.397740
      ESP Fit Center  110 is at  -2.573861  2.848517  5.397740
      ESP Fit Center  111 is at  -3.276391  2.011274  5.397740
      ESP Fit Center  112 is at  -2.573861  2.045229  4.557740
      ESP Fit Center  113 is at  -1.470661 -1.981328  6.461771
      ESP Fit Center  114 is at  -0.421605 -1.981328  6.461771
      ESP Fit Center  115 is at  -1.926133 -2.064405  5.481771
      ESP Fit Center  116 is at  -0.946133 -2.326995  5.481771
      ESP Fit Center  117 is at   0.033867 -2.064405  5.481771
      ESP Fit Center  118 is at  -2.319366 -1.364707  4.501771
      ESP Fit Center  119 is at  -1.470661 -1.981328  4.501771
      ESP Fit Center  120 is at  -0.421605 -1.981328  4.501771
      ESP Fit Center  121 is at   0.863637 -0.725870  7.208694
      ESP Fit Center  122 is at   2.157290  0.183457  6.440041
      ESP Fit Center  123 is at   0.079816 -1.616685  4.340041
      ESP Fit Center  124 is at   2.027992 -0.641064  6.763597
      ESP Fit Center  125 is at   1.345661 -1.580213  6.763597
      ESP Fit Center  126 is at   2.638288 -0.641064  5.923597
      ESP Fit Center  127 is at   0.241626 -2.024778  5.923597
      ESP Fit Center  128 is at   1.317964 -2.214565  5.923597
      ESP Fit Center  129 is at   2.264480 -1.668094  5.923597
      ESP Fit Center  130 is at   2.638288 -0.641064  4.885299
      ESP Fit Center  131 is at   0.241626 -2.024778  4.885299
      ESP Fit Center  132 is at   1.317964 -2.214565  4.885299
      ESP Fit Center  133 is at   2.264480 -1.668094  4.885299
      ESP Fit Center  134 is at   1.345661 -1.580213  4.045299
      ESP Fit Center  135 is at   1.538186  0.816626  7.608304
      ESP Fit Center  136 is at   0.855855  1.755775  7.608304
      ESP Fit Center  137 is at   0.855855 -0.122523  7.608304
      ESP Fit Center  138 is at   2.148482  0.816626  6.768304
      ESP Fit Center  139 is at   1.774674  1.843656  6.768304
      ESP Fit Center  140 is at   0.828158  2.390127  6.768304
      ESP Fit Center  141 is at  -0.248180  2.200340  6.768304
      ESP Fit Center  142 is at   0.828158  2.390127  5.730006
      ESP Fit Center  143 is at  -0.248180  2.200340  5.730006
      ESP Fit Center  144 is at   0.809442  3.072713  4.117560
      ESP Fit Center  145 is at   2.415773  0.012105  4.117560
      ESP Fit Center  146 is at   0.073483  2.668672  5.356880
      ESP Fit Center  147 is at   0.045786  3.303024  4.516880
      ESP Fit Center  148 is at  -1.030552  3.113237  4.516880
      ESP Fit Center  149 is at   0.045786  3.303024  3.478582
      ESP Fit Center  150 is at  -1.030552  3.113237  3.478582
      ESP Fit Center  151 is at  -1.733082  2.275994  3.478582
      ESP Fit Center  152 is at   0.073483  2.668672  2.638582
      ESP Fit Center  153 is at  -1.030552  2.309949  2.638582
      ESP Fit Center  154 is at   2.485724  1.518613  5.564933
      ESP Fit Center  155 is at   1.803393  2.457762  5.564933
      ESP Fit Center  156 is at   3.096020  1.518613  4.724933
      ESP Fit Center  157 is at   2.722212  2.545643  4.724933
      ESP Fit Center  158 is at   1.775696  3.092114  4.724933
      ESP Fit Center  159 is at   2.722212  0.491583  4.724933
      ESP Fit Center  160 is at   3.096020  1.518613  3.686635
      ESP Fit Center  161 is at   2.722212  2.545643  3.686635
      ESP Fit Center  162 is at   1.775696  3.092114  3.686635
      ESP Fit Center  163 is at   2.722212  0.491583  3.686635
      ESP Fit Center  164 is at   2.485724  1.518613  2.846635
      ESP Fit Center  165 is at   1.803393  2.457762  2.846635
      ESP Fit Center  166 is at   2.037250 -0.797594  3.947862
      ESP Fit Center  167 is at   2.624017  0.200118  2.967862
      ESP Fit Center  168 is at   1.644017 -1.497292  2.967862
      ESP Fit Center  169 is at   2.361427 -0.779882  2.967862
      ESP Fit Center  170 is at  -2.572751 -0.754011  2.387316
      ESP Fit Center  171 is at  -2.018960  1.161021  3.602480
      ESP Fit Center  172 is at  -2.018960  1.964309  2.762480
      ESP Fit Center  173 is at  -2.721490  1.127066  2.762480
      ESP Fit Center  174 is at  -2.721490  0.034124  2.762480
      ESP Fit Center  175 is at  -0.942622  2.154096  1.724182
      ESP Fit Center  176 is at  -2.018960  1.964309  1.724182
      ESP Fit Center  177 is at  -2.721490  1.127066  1.724182
      ESP Fit Center  178 is at  -2.721490  0.034124  1.724182
      ESP Fit Center  179 is at  -0.914925  1.519744  0.884182
      ESP Fit Center  180 is at  -2.018960  1.161021  0.884182
      ESP Fit Center  181 is at  -2.515076 -0.431842  3.550821
      ESP Fit Center  182 is at  -2.515076 -1.524784  3.550821
      ESP Fit Center  183 is at  -1.812546 -2.362027  3.550821
      ESP Fit Center  184 is at  -0.736208 -2.551814  3.550821
      ESP Fit Center  185 is at   0.210308 -2.005343  3.550821
      ESP Fit Center  186 is at  -2.515076 -1.524784  2.512523
      ESP Fit Center  187 is at  -1.812546 -2.362027  2.512523
      ESP Fit Center  188 is at  -0.736208 -2.551814  2.512523
      ESP Fit Center  189 is at  -0.489993 -2.698801  2.100014
      ESP Fit Center  190 is at   0.293828 -1.807986 -0.768639
      ESP Fit Center  191 is at  -2.601166 -0.921056  1.261745
      ESP Fit Center  192 is at  -2.601166 -2.013998  1.261745
      ESP Fit Center  193 is at  -1.898636 -2.851241  1.261745
      ESP Fit Center  194 is at  -0.822298 -3.041028  1.261745
      ESP Fit Center  195 is at  -2.601166 -0.921056  0.223447
      ESP Fit Center  196 is at  -2.601166 -2.013998  0.223447
      ESP Fit Center  197 is at  -1.898636 -2.851241  0.223447
      ESP Fit Center  198 is at  -0.822298 -3.041028  0.223447
      ESP Fit Center  199 is at  -1.898636 -0.887101 -0.616553
      ESP Fit Center  200 is at  -1.898636 -2.047953 -0.616553
      ESP Fit Center  201 is at  -0.794601 -2.406676 -0.616553
      ESP Fit Center  202 is at  -1.099749 -1.467527 -0.937404
      ESP Fit Center  203 is at   1.580043 -1.594455  2.523619
      ESP Fit Center  204 is at   0.897712 -2.533604  2.523619
      ESP Fit Center  205 is at  -0.206323 -2.978169  1.683619
      ESP Fit Center  206 is at   0.870015 -3.167956  1.683619
      ESP Fit Center  207 is at   1.816531 -2.621485  1.683619
      ESP Fit Center  208 is at  -0.206323 -2.978169  0.645321
      ESP Fit Center  209 is at   0.870015 -3.167956  0.645321
      ESP Fit Center  210 is at  -0.524528  1.614333  0.980000
      ESP Fit Center  211 is at  -0.980000  1.697410  0.000000
      ESP Fit Center  212 is at  -1.697410  0.980000  0.000000
      ESP Fit Center  213 is at  -1.960000  0.000000  0.000000
      ESP Fit Center  214 is at  -1.373233  0.997712 -0.980000
      ESP Fit Center  215 is at  -1.697410  0.000000 -0.980000
      ESP Fit Center  216 is at  -1.373233 -0.997712 -0.980000
      ESP Fit Center  217 is at  -0.524528 -1.614333 -0.980000
      ESP Fit Center  218 is at   2.356417  2.500953  0.000000
      ESP Fit Center  219 is at   0.418811  2.736221  0.000000
      ESP Fit Center  220 is at  -0.408392  2.165245  0.000000
      ESP Fit Center  221 is at   2.170359  1.446331  2.208332
      ESP Fit Center  222 is at   1.488028  2.385480  2.208332
      ESP Fit Center  223 is at   0.383993  2.026757  2.208332
      ESP Fit Center  224 is at   2.406847  2.473361  1.368332
      ESP Fit Center  225 is at   1.460331  3.019832  1.368332
      ESP Fit Center  226 is at   0.383993  2.830045  1.368332
      ESP Fit Center  227 is at  -0.318537  1.992802  1.368332
      ESP Fit Center  228 is at   2.406847  2.473361  0.330034
      ESP Fit Center  229 is at   1.460331  3.019832  0.330034
      ESP Fit Center  230 is at   0.383993  2.830045  0.330034
      ESP Fit Center  231 is at   1.373193  2.953104 -0.374682
      ESP Fit Center  232 is at   0.296855  2.763317 -0.374682
      ESP Fit Center  233 is at   2.319709  2.406633 -1.412980
      ESP Fit Center  234 is at   1.373193  2.953104 -1.412980
      ESP Fit Center  235 is at   0.296855  2.763317 -1.412980
      ESP Fit Center  236 is at  -0.405675  1.926074 -1.412980
      ESP Fit Center  237 is at   1.400890  2.318752 -2.252980
      ESP Fit Center  238 is at   0.296855  1.960029 -2.252980
      ESP Fit Center  239 is at   1.095742  1.379603 -2.573831
      ESP Fit Center  240 is at   4.299880  0.000000  1.050000
      ESP Fit Center  241 is at   2.637811 -0.482863  2.635733
      ESP Fit Center  242 is at   3.625290 -0.482863  2.314882
      ESP Fit Center  243 is at   2.942959  0.456286  2.314882
      ESP Fit Center  244 is at   2.942959 -1.422012  2.314882
      ESP Fit Center  245 is at   4.235586 -0.482863  1.474882
      ESP Fit Center  246 is at   2.915262 -2.056364  1.474882
      ESP Fit Center  247 is at   3.861778 -1.509893  1.474882
      ESP Fit Center  248 is at   4.272508  0.717833  1.235107
      ESP Fit Center  249 is at   3.590177  1.656982  1.235107
      ESP Fit Center  250 is at   4.882804  0.717833  0.395107
      ESP Fit Center  251 is at   4.508996  1.744863  0.395107
      ESP Fit Center  252 is at   3.562480  2.291334  0.395107
      ESP Fit Center  253 is at   4.882804  0.717833 -0.643191
      ESP Fit Center  254 is at   4.508996  1.744863 -0.643191
      ESP Fit Center  255 is at   3.562480  2.291334 -0.643191
      ESP Fit Center  256 is at   4.272508  0.717833 -1.483191
      ESP Fit Center  257 is at   3.590177  1.656982 -1.483191
      ESP Fit Center  258 is at   2.145928 -2.250490  0.981935
      ESP Fit Center  259 is at   3.208944 -2.250490  0.981935
      ESP Fit Center  260 is at   4.592923 -1.329892  0.302111
      ESP Fit Center  261 is at   1.423059 -2.777521  0.302111
      ESP Fit Center  262 is at   2.404834 -3.225882  0.302111
      ESP Fit Center  263 is at   3.473158 -3.072280  0.302111
      ESP Fit Center  264 is at   4.288846 -2.365483  0.302111
      ESP Fit Center  265 is at   5.066009 -1.329892 -0.680263
      ESP Fit Center  266 is at   4.829466 -0.293529 -0.680263
      ESP Fit Center  267 is at   0.525406 -2.366255 -0.680263
      ESP Fit Center  268 is at   1.188185 -3.197354 -0.680263
      ESP Fit Center  269 is at   2.145928 -3.658579 -0.680263
      ESP Fit Center  270 is at   3.208944 -3.658579 -0.680263
      ESP Fit Center  271 is at   4.166687 -3.197354 -0.680263
      ESP Fit Center  272 is at   4.829466 -2.366255 -0.680263
      ESP Fit Center  273 is at   5.066009 -1.329892 -1.770615
      ESP Fit Center  274 is at   4.829466 -0.293529 -1.770615
      ESP Fit Center  275 is at   4.166687  0.537570 -1.770615
      ESP Fit Center  276 is at   0.525406 -2.366255 -1.770615
      ESP Fit Center  277 is at   1.188185 -3.197354 -1.770615
      ESP Fit Center  278 is at   2.145928 -3.658579 -1.770615
      ESP Fit Center  279 is at   3.208944 -3.658579 -1.770615
      ESP Fit Center  280 is at   4.166687 -3.197354 -1.770615
      ESP Fit Center  281 is at   4.829466 -2.366255 -1.770615
      ESP Fit Center  282 is at   4.592923 -1.329892 -2.752989
      ESP Fit Center  283 is at   2.404834 -3.225882 -2.752989
      ESP Fit Center  284 is at   3.473158 -3.072280 -2.752989
      ESP Fit Center  285 is at   4.288846 -2.365483 -2.752989
      ESP Fit Center  286 is at   3.908581  0.500645 -3.861384
      ESP Fit Center  287 is at   4.251482  0.559898 -2.197350
      ESP Fit Center  288 is at   3.877674  1.586928 -2.197350
      ESP Fit Center  289 is at   2.931158  2.133399 -2.197350
      ESP Fit Center  290 is at   4.251482  0.559898 -3.235648
      ESP Fit Center  291 is at   3.877674  1.586928 -3.235648
      ESP Fit Center  292 is at   2.931158  2.133399 -3.235648
      ESP Fit Center  293 is at   1.854820  1.943612 -3.235648
      ESP Fit Center  294 is at   2.958855  1.499047 -4.075648
      ESP Fit Center  295 is at   4.665182 -0.924957 -3.000225
      ESP Fit Center  296 is at   4.291374 -1.951987 -3.000225
      ESP Fit Center  297 is at   4.665182 -0.924957 -4.038523
      ESP Fit Center  298 is at   4.291374  0.102073 -4.038523
      ESP Fit Center  299 is at   2.268520 -2.308671 -4.038523
      ESP Fit Center  300 is at   3.344858 -2.498458 -4.038523
      ESP Fit Center  301 is at   4.291374 -1.951987 -4.038523
      ESP Fit Center  302 is at   4.054886 -0.924957 -4.878523
      ESP Fit Center  303 is at   3.372555  0.014192 -4.878523
      ESP Fit Center  304 is at  -1.099693 -1.123661 -3.306275
      ESP Fit Center  305 is at  -0.550120  1.175930 -2.066618
      ESP Fit Center  306 is at  -1.252650  0.338687 -2.066618
      ESP Fit Center  307 is at  -1.252650 -0.754255 -2.066618
      ESP Fit Center  308 is at  -0.550120 -1.591498 -2.066618
      ESP Fit Center  309 is at  -1.252650  0.338687 -3.104916
      ESP Fit Center  310 is at  -1.252650 -0.754255 -3.104916
      ESP Fit Center  311 is at  -0.118606 -2.246384 -2.058760
      ESP Fit Center  312 is at  -0.821136 -2.212429 -2.898760
      ESP Fit Center  313 is at  -0.118606 -3.049672 -2.898760
      ESP Fit Center  314 is at   0.957732 -3.239459 -2.898760
      ESP Fit Center  315 is at  -0.821136 -2.212429 -3.937058
      ESP Fit Center  316 is at  -0.118606 -3.049672 -3.937058
      ESP Fit Center  317 is at   0.957732 -3.239459 -3.937058
      ESP Fit Center  318 is at   1.904248 -2.692988 -3.937058
      ESP Fit Center  319 is at   1.417976  2.005076 -3.339691
      ESP Fit Center  320 is at   0.349652  2.158678 -3.339691
      ESP Fit Center  321 is at  -0.632123  1.710317 -3.339691
      ESP Fit Center  322 is at  -1.215642  0.802343 -3.339691
      ESP Fit Center  323 is at   2.774284  1.299051 -4.322065
      ESP Fit Center  324 is at   2.111505  2.130150 -4.322065
      ESP Fit Center  325 is at   1.153762  2.591375 -4.322065
      ESP Fit Center  326 is at   0.090746  2.591375 -4.322065
      ESP Fit Center  327 is at  -0.866997  2.130150 -4.322065
      ESP Fit Center  328 is at  -1.529776  1.299051 -4.322065
      ESP Fit Center  329 is at  -1.766319  0.262688 -4.322065
      ESP Fit Center  330 is at  -1.529776 -0.773675 -4.322065
      ESP Fit Center  331 is at  -0.866997 -1.604774 -4.322065
      ESP Fit Center  332 is at   2.774284  1.299051 -5.412417
      ESP Fit Center  333 is at   2.111505  2.130150 -5.412417
      ESP Fit Center  334 is at   1.153762  2.591375 -5.412417
      ESP Fit Center  335 is at   0.090746  2.591375 -5.412417
      ESP Fit Center  336 is at  -0.866997  2.130150 -5.412417
      ESP Fit Center  337 is at  -1.529776  1.299051 -5.412417
      ESP Fit Center  338 is at  -1.766319  0.262688 -5.412417
      ESP Fit Center  339 is at  -1.529776 -0.773675 -5.412417
      ESP Fit Center  340 is at   2.233664  1.298279 -6.394791
      ESP Fit Center  341 is at   1.417976  2.005076 -6.394791
      ESP Fit Center  342 is at   0.349652  2.158678 -6.394791
      ESP Fit Center  343 is at  -0.632123  1.710317 -6.394791
      ESP Fit Center  344 is at  -1.215642  0.802343 -6.394791
      ESP Fit Center  345 is at   0.090746  1.183286 -7.074615
      ESP Fit Center  346 is at  -0.440761  0.262688 -7.074615
      ESP Fit Center  347 is at   3.894783 -1.207013 -5.264476
      ESP Fit Center  348 is at   3.520975 -0.179983 -5.264476
      ESP Fit Center  349 is at   3.520975 -2.234043 -5.264476
      ESP Fit Center  350 is at   3.894783 -1.207013 -6.302774
      ESP Fit Center  351 is at   3.520975 -0.179983 -6.302774
      ESP Fit Center  352 is at   3.284487 -1.207013 -7.142774
      ESP Fit Center  353 is at   2.716476  0.772195 -6.475965
      ESP Fit Center  354 is at   3.090284 -0.254835 -7.514263
      ESP Fit Center  355 is at   2.716476  0.772195 -7.514263
      ESP Fit Center  356 is at   1.769960  1.318666 -7.514263
      ESP Fit Center  357 is at   0.693622  1.128879 -7.514263
      ESP Fit Center  358 is at  -0.008908  0.291636 -7.514263
      ESP Fit Center  359 is at   2.479988 -0.254835 -8.354263
      ESP Fit Center  360 is at   1.797657  0.684314 -8.354263
      ESP Fit Center  361 is at   0.693622  0.325591 -8.354263
      ESP Fit Center  362 is at   1.492509 -0.254835 -8.675114
      ESP Fit Center  363 is at  -1.163520 -3.424156 -6.464149
      ESP Fit Center  364 is at  -0.634209 -3.198498 -4.229308
      ESP Fit Center  365 is at  -1.336739 -2.071601 -5.069308
      ESP Fit Center  366 is at  -1.336739 -3.164543 -5.069308
      ESP Fit Center  367 is at  -0.634209 -4.001786 -5.069308
      ESP Fit Center  368 is at  -1.336739 -3.164543 -6.107606
      ESP Fit Center  369 is at  -0.634209 -4.001786 -6.107606
      ESP Fit Center  370 is at  -1.324583 -0.270278 -6.339685
      ESP Fit Center  371 is at  -2.027113 -1.107521 -6.339685
      ESP Fit Center  372 is at  -2.027113 -2.200463 -6.339685
      ESP Fit Center  373 is at  -0.248245 -0.080491 -7.377983
      ESP Fit Center  374 is at  -1.324583 -0.270278 -7.377983
      ESP Fit Center  375 is at  -2.027113 -1.107521 -7.377983
      ESP Fit Center  376 is at  -2.027113 -2.200463 -7.377983
      ESP Fit Center  377 is at  -0.220548 -0.714843 -8.217983
      ESP Fit Center  378 is at  -1.324583 -1.073566 -8.217983
      ESP Fit Center  379 is at  -1.324583 -2.234418 -8.217983
      ESP Fit Center  380 is at   3.230980 -2.085115 -7.213545
      ESP Fit Center  381 is at  -1.309623 -3.121478 -7.213545
      ESP Fit Center  382 is at  -1.073080 -4.157841 -7.213545
      ESP Fit Center  383 is at  -0.410301 -4.988940 -7.213545
      ESP Fit Center  384 is at   3.467523 -3.121478 -8.303897
      ESP Fit Center  385 is at   3.230980 -2.085115 -8.303897
      ESP Fit Center  386 is at   2.568201 -1.254016 -8.303897
      ESP Fit Center  387 is at   0.547442 -0.792791 -8.303897
      ESP Fit Center  388 is at  -1.309623 -3.121478 -8.303897
      ESP Fit Center  389 is at  -1.073080 -4.157841 -8.303897
      ESP Fit Center  390 is at  -0.410301 -4.988940 -8.303897
      ESP Fit Center  391 is at   0.547442 -5.450165 -8.303897
      ESP Fit Center  392 is at   2.994437 -3.121478 -9.286271
      ESP Fit Center  393 is at   2.690360 -2.085887 -9.286271
      ESP Fit Center  394 is at   1.874672 -1.379090 -9.286271
      ESP Fit Center  395 is at   0.806348 -1.225488 -9.286271
      ESP Fit Center  396 is at  -0.175427 -1.673849 -9.286271
      ESP Fit Center  397 is at  -0.758946 -2.581823 -9.286271
      ESP Fit Center  398 is at  -0.758946 -3.661133 -9.286271
      ESP Fit Center  399 is at  -0.175427 -4.569107 -9.286271
      ESP Fit Center  400 is at   0.806348 -5.017468 -9.286271
      ESP Fit Center  401 is at   1.874672 -4.863866 -9.286271
      ESP Fit Center  402 is at   2.690360 -4.157069 -9.286271
      ESP Fit Center  403 is at   2.141965 -3.121478 -9.966095
      ESP Fit Center  404 is at   1.610458 -2.200880 -9.966095
      ESP Fit Center  405 is at   0.547442 -2.200880 -9.966095
      ESP Fit Center  406 is at   0.015935 -3.121478 -9.966095
      ESP Fit Center  407 is at   0.547442 -4.042076 -9.966095
      ESP Fit Center  408 is at   1.610458 -4.042076 -9.966095
      ESP Fit Center  409 is at   1.078950 -3.121478-10.208721
      ESP Fit Center  410 is at   1.757130 -3.230415 -5.028310
      ESP Fit Center  411 is at   3.812079 -3.156504 -7.896963
      ESP Fit Center  412 is at   4.485982 -4.599111 -7.099537
      ESP Fit Center  413 is at   3.165658 -6.172612 -7.099537
      ESP Fit Center  414 is at   4.112174 -5.626141 -7.099537
      ESP Fit Center  415 is at   4.485982 -4.599111 -8.137835
      ESP Fit Center  416 is at   4.112174 -3.572081 -8.137835
      ESP Fit Center  417 is at   2.089320 -5.982825 -8.137835
      ESP Fit Center  418 is at   3.165658 -6.172612 -8.137835
      ESP Fit Center  419 is at   4.112174 -5.626141 -8.137835
      ESP Fit Center  420 is at   3.875686 -4.599111 -8.977835
      ESP Fit Center  421 is at   3.193355 -3.659962 -8.977835
      ESP Fit Center  422 is at   2.089320 -5.179537 -8.977835
      ESP Fit Center  423 is at   3.193355 -5.538260 -8.977835
      ESP Fit Center  424 is at   2.888207 -4.599111 -9.298686
      ESP Fit Center  425 is at   2.941431 -3.496558 -4.596447
      ESP Fit Center  426 is at   3.928910 -3.496558 -4.917298
      ESP Fit Center  427 is at   3.246579 -2.557409 -4.917298
      ESP Fit Center  428 is at   2.142544 -2.916132 -4.917298
      ESP Fit Center  429 is at   4.539206 -3.496558 -5.757298
      ESP Fit Center  430 is at   4.165398 -2.469528 -5.757298
      ESP Fit Center  431 is at   4.165398 -4.523588 -5.757298
      ESP Fit Center  432 is at   4.539206 -3.496558 -6.795596
      ESP Fit Center  433 is at   4.165398 -2.469528 -6.795596
      ESP Fit Center  434 is at   1.141840 -6.125009 -4.138228
      ESP Fit Center  435 is at   0.475875 -6.590128 -4.906881
      ESP Fit Center  436 is at   1.408019 -7.015824 -4.906881
      ESP Fit Center  437 is at   2.422336 -6.869987 -7.006881
      ESP Fit Center  438 is at   3.196789 -6.198920 -7.006881
      ESP Fit Center  439 is at   2.191840 -6.125009 -7.775534
      ESP Fit Center  440 is at   1.056625 -4.788042 -3.489038
      ESP Fit Center  441 is at   2.044104 -4.788042 -3.809889
      ESP Fit Center  442 is at   1.361773 -3.848893 -3.809889
      ESP Fit Center  443 is at   0.257738 -4.207616 -3.809889
      ESP Fit Center  444 is at   0.257738 -5.368468 -3.809889
      ESP Fit Center  445 is at   1.361773 -5.727191 -3.809889
      ESP Fit Center  446 is at  -0.444792 -4.241571 -4.649889
      ESP Fit Center  447 is at  -0.444792 -5.334513 -4.649889
      ESP Fit Center  448 is at   0.257738 -6.171756 -4.649889
      ESP Fit Center  449 is at  -0.444792 -4.241571 -5.688187
      ESP Fit Center  450 is at  -0.444792 -5.334513 -5.688187
      ESP Fit Center  451 is at  -0.458264 -5.339470 -6.017432
      ESP Fit Center  452 is at  -0.458264 -6.432412 -6.017432
      ESP Fit Center  453 is at   0.244266 -7.269655 -6.017432
      ESP Fit Center  454 is at   1.320604 -7.459442 -6.017432
      ESP Fit Center  455 is at  -0.458264 -5.339470 -7.055730
      ESP Fit Center  456 is at  -0.458264 -6.432412 -7.055730
      ESP Fit Center  457 is at   0.244266 -7.269655 -7.055730
      ESP Fit Center  458 is at   1.320604 -7.459442 -7.055730
      ESP Fit Center  459 is at   2.267120 -6.912971 -7.055730
      ESP Fit Center  460 is at   0.244266 -6.466367 -7.895730
      ESP Fit Center  461 is at   1.348301 -6.825090 -7.895730
      ESP Fit Center  462 is at   1.043153 -5.885941 -8.216581
      ESP Fit Center  463 is at   2.451189 -5.799985 -3.803964
      ESP Fit Center  464 is at   3.438668 -5.799985 -4.124815
      ESP Fit Center  465 is at   2.756337 -4.860836 -4.124815
      ESP Fit Center  466 is at   1.652302 -6.380411 -4.124815
      ESP Fit Center  467 is at   2.756337 -6.739134 -4.124815
      ESP Fit Center  468 is at   4.048964 -5.799985 -4.964815
      ESP Fit Center  469 is at   3.675156 -4.772955 -4.964815
      ESP Fit Center  470 is at   1.652302 -7.183699 -4.964815
      ESP Fit Center  471 is at   2.728640 -7.373486 -4.964815
      ESP Fit Center  472 is at   3.675156 -6.827015 -4.964815
      ESP Fit Center  473 is at   4.048964 -5.799985 -6.003113
      ESP Fit Center  474 is at   2.728640 -7.373486 -6.003113
      ESP Fit Center  475 is at   3.675156 -6.827015 -6.003113
      ESP Fit Center  476 is at  -1.926115  0.167562 10.035213
      ESP Fit Center  477 is at  -2.446775 -0.734248  9.797538
      ESP Fit Center  478 is at  -1.405455 -0.734248  9.797538
      ESP Fit Center  479 is at  -1.405455  2.448725  8.169263
      ESP Fit Center  480 is at  -4.034226 -0.847651  8.169263
      ESP Fit Center  481 is at  -4.265942  0.167562  7.101163
      ESP Fit Center  482 is at  -4.034226 -0.847651  7.101163
      ESP Fit Center  483 is at  -0.984693  0.457194 10.010931
      ESP Fit Center  484 is at  -0.024693  0.457194  9.753700
      ESP Fit Center  485 is at  -0.504693  1.288578  9.753700
      ESP Fit Center  486 is at  -1.464693  1.288578  9.753700
      ESP Fit Center  487 is at  -0.504693 -0.374190  9.753700
      ESP Fit Center  488 is at   0.678076  0.457194  9.050931
      ESP Fit Center  489 is at   0.360515  1.434545  9.050931
      ESP Fit Center  490 is at  -0.470869  2.038581  9.050931
      ESP Fit Center  491 is at  -0.470869 -1.124193  9.050931
      ESP Fit Center  492 is at   0.360515 -0.520157  9.050931
      ESP Fit Center  493 is at   0.678076  1.417194  8.090931
      ESP Fit Center  494 is at  -0.024693  2.119963  8.090931
      ESP Fit Center  495 is at  -0.984693  2.377194  8.090931
      ESP Fit Center  496 is at   0.678076 -0.502806  8.090931
      ESP Fit Center  497 is at  -2.717282  0.742494 10.027466
      ESP Fit Center  498 is at  -2.237282  1.573878  9.770235
      ESP Fit Center  499 is at  -3.197282  1.573878  9.770235
      ESP Fit Center  500 is at  -3.677282  0.742494  9.770235
      ESP Fit Center  501 is at  -3.197282 -0.088890  9.770235
      ESP Fit Center  502 is at  -2.203458  2.323881  9.067466
      ESP Fit Center  503 is at  -3.231106  2.323881  9.067466
      ESP Fit Center  504 is at  -4.062490  1.719845  9.067466
      ESP Fit Center  505 is at  -4.380051  0.742494  9.067466
      ESP Fit Center  506 is at  -4.062490 -0.234857  9.067466
      ESP Fit Center  507 is at  -2.717282  2.662494  8.107466
      ESP Fit Center  508 is at  -3.677282  2.405263  8.107466
      ESP Fit Center  509 is at  -4.380051  1.702494  8.107466
      ESP Fit Center  510 is at  -4.637282  0.742494  8.107466
      ESP Fit Center  511 is at  -4.380051 -0.217506  8.107466
      ESP Fit Center  512 is at  -3.231106  2.323881  7.147466
      ESP Fit Center  513 is at  -4.062490  1.719845  7.147466
      ESP Fit Center  514 is at  -4.380051  0.742494  7.147466
      ESP Fit Center  515 is at  -3.052173 -0.883297  9.506424
      ESP Fit Center  516 is at  -2.572173 -1.714681  9.506424
      ESP Fit Center  517 is at  -1.612173 -1.714681  9.506424
      ESP Fit Center  518 is at  -3.754942 -0.883297  8.803655
      ESP Fit Center  519 is at  -3.437381 -1.860648  8.803655
      ESP Fit Center  520 is at  -2.605997 -2.464684  8.803655
      ESP Fit Center  521 is at  -1.578349 -2.464684  8.803655
      ESP Fit Center  522 is at  -0.746965 -1.860648  8.803655
      ESP Fit Center  523 is at  -3.754942 -1.843297  7.843655
      ESP Fit Center  524 is at  -3.052173 -2.546066  7.843655
      ESP Fit Center  525 is at  -2.092173 -2.803297  7.843655
      ESP Fit Center  526 is at  -1.132173 -2.546066  7.843655
      ESP Fit Center  527 is at  -0.429404 -1.843297  7.843655
      ESP Fit Center  528 is at  -3.437381 -1.860648  6.883655
      ESP Fit Center  529 is at  -2.605997 -2.464684  6.883655
      ESP Fit Center  530 is at  -1.578349 -2.464684  6.883655
      ESP Fit Center  531 is at  -3.377372  2.237682  6.666866
      ESP Fit Center  532 is at  -4.026625  1.423545  6.666866
      ESP Fit Center  533 is at  -2.439174  1.310142  3.970491
      ESP Fit Center  534 is at  -4.217266  1.097865  6.667816
      ESP Fit Center  535 is at  -4.534827  0.120514  6.667816
      ESP Fit Center  536 is at  -4.217266 -0.856837  6.667816
      ESP Fit Center  537 is at  -4.534827  1.080514  5.707816
      ESP Fit Center  538 is at  -4.792058  0.120514  5.707816
      ESP Fit Center  539 is at  -4.534827 -0.839486  5.707816
      ESP Fit Center  540 is at  -3.832058 -1.542255  5.707816
      ESP Fit Center  541 is at  -2.872058 -1.799486  5.707816
      ESP Fit Center  542 is at  -4.217266  1.097865  4.747816
      ESP Fit Center  543 is at  -4.534827  0.120514  4.747816
      ESP Fit Center  544 is at  -4.217266 -0.856837  4.747816
      ESP Fit Center  545 is at  -3.385882 -1.460873  4.747816
      ESP Fit Center  546 is at  -3.352058  0.951898  4.045047
      ESP Fit Center  547 is at  -3.832058  0.120514  4.045047
      ESP Fit Center  548 is at  -3.352058 -0.710870  4.045047
      ESP Fit Center  549 is at  -2.872058  0.120514  3.787816
      ESP Fit Center  550 is at  -0.429766  2.442154  6.876889
      ESP Fit Center  551 is at  -1.261150  3.046190  6.876889
      ESP Fit Center  552 is at  -2.288798  3.046190  6.876889
      ESP Fit Center  553 is at  -3.120182  2.442154  6.876889
      ESP Fit Center  554 is at  -0.814974  3.127572  5.916889
      ESP Fit Center  555 is at  -1.774974  3.384803  5.916889
      ESP Fit Center  556 is at  -2.734974  3.127572  5.916889
      ESP Fit Center  557 is at  -3.437743  2.424803  5.916889
      ESP Fit Center  558 is at  -1.261150  3.046190  4.956889
      ESP Fit Center  559 is at  -2.288798  3.046190  4.956889
      ESP Fit Center  560 is at  -3.120182  2.442154  4.956889
      ESP Fit Center  561 is at  -2.254974  2.296187  4.254120
      ESP Fit Center  562 is at  -0.404951 -2.032583  6.878388
      ESP Fit Center  563 is at  -1.720533 -2.408919  5.980218
      ESP Fit Center  564 is at  -0.682900 -2.534911  5.980218
      ESP Fit Center  565 is at  -2.580760 -1.815148  4.983324
      ESP Fit Center  566 is at  -1.720533 -2.408919  4.983324
      ESP Fit Center  567 is at  -0.682900 -2.534911  4.983324
      ESP Fit Center  568 is at   0.859297 -0.718353  7.552366
      ESP Fit Center  569 is at   2.446748  1.198670  5.924091
      ESP Fit Center  570 is at   2.000513 -0.641064  7.067217
      ESP Fit Center  571 is at   1.520513 -1.472448  7.067217
      ESP Fit Center  572 is at   2.703282 -0.641064  6.364448
      ESP Fit Center  573 is at   0.526689 -2.222451  6.364448
      ESP Fit Center  574 is at   1.554337 -2.222451  6.364448
      ESP Fit Center  575 is at   2.385721 -1.618415  6.364448
      ESP Fit Center  576 is at   2.960513 -0.641064  5.404448
      ESP Fit Center  577 is at   1.040513 -2.561064  5.404448
      ESP Fit Center  578 is at   2.000513 -2.303833  5.404448
      ESP Fit Center  579 is at   2.703282 -1.601064  5.404448
      ESP Fit Center  580 is at   2.703282 -0.641064  4.444448
      ESP Fit Center  581 is at   0.526689 -2.222451  4.444448
      ESP Fit Center  582 is at   1.554337 -2.222451  4.444448
      ESP Fit Center  583 is at   2.385721 -1.618415  4.444448
      ESP Fit Center  584 is at   1.510707  0.816626  7.911924
      ESP Fit Center  585 is at   1.030707  1.648010  7.911924
      ESP Fit Center  586 is at   1.030707 -0.014758  7.911924
      ESP Fit Center  587 is at   2.213476  0.816626  7.209155
      ESP Fit Center  588 is at   1.895915  1.793977  7.209155
      ESP Fit Center  589 is at   1.064531  2.398013  7.209155
      ESP Fit Center  590 is at   0.036883  2.398013  7.209155
      ESP Fit Center  591 is at   1.895915 -0.160725  7.209155
      ESP Fit Center  592 is at   2.213476  1.776626  6.249155
      ESP Fit Center  593 is at   1.510707  2.479395  6.249155
      ESP Fit Center  594 is at   0.550707  2.736626  6.249155
      ESP Fit Center  595 is at   0.289276  2.845321  5.613936
      ESP Fit Center  596 is at   1.335798  2.694853  2.621184
      ESP Fit Center  597 is at   0.282159  3.310910  4.957731
      ESP Fit Center  598 is at  -0.745489  3.310910  4.957731
      ESP Fit Center  599 is at   0.728335  3.392292  3.997731
      ESP Fit Center  600 is at  -0.231665  3.649523  3.997731
      ESP Fit Center  601 is at  -1.191665  3.392292  3.997731
      ESP Fit Center  602 is at  -1.894434  2.689523  3.997731
      ESP Fit Center  603 is at  -2.151665  1.729523  3.997731
      ESP Fit Center  604 is at   0.282159  3.310910  3.037731
      ESP Fit Center  605 is at  -0.745489  3.310910  3.037731
      ESP Fit Center  606 is at  -1.576873  2.706874  3.037731
      ESP Fit Center  607 is at  -0.711665  2.560907  2.334962
      ESP Fit Center  608 is at   2.458245  1.518613  5.868553
      ESP Fit Center  609 is at   1.978245  2.349997  5.868553
      ESP Fit Center  610 is at   3.161014  1.518613  5.165784
      ESP Fit Center  611 is at   2.843453  2.495964  5.165784
      ESP Fit Center  612 is at   2.012069  3.100000  5.165784
      ESP Fit Center  613 is at   2.843453  0.541262  5.165784
      ESP Fit Center  614 is at   3.418245  1.518613  4.205784
      ESP Fit Center  615 is at   3.161014  2.478613  4.205784
      ESP Fit Center  616 is at   2.458245  3.181382  4.205784
      ESP Fit Center  617 is at   1.498245  3.438613  4.205784
      ESP Fit Center  618 is at   3.161014  0.558613  4.205784
      ESP Fit Center  619 is at   3.161014  1.518613  3.245784
      ESP Fit Center  620 is at   2.843453  2.495964  3.245784
      ESP Fit Center  621 is at   2.012069  3.100000  3.245784
      ESP Fit Center  622 is at   2.458245  1.518613  2.543015
      ESP Fit Center  623 is at   1.978245  2.349997  2.543015
      ESP Fit Center  624 is at   2.847856  0.200118  3.466309
      ESP Fit Center  625 is at   0.927250 -1.967798  3.466309
      ESP Fit Center  626 is at   1.904579 -1.597146  3.466309
      ESP Fit Center  627 is at   2.597710 -0.814762  3.466309
      ESP Fit Center  628 is at   2.597710  1.214998  2.469415
      ESP Fit Center  629 is at  -2.873600 -0.251448  2.921366
      ESP Fit Center  630 is at  -2.565281  1.557946  3.203331
      ESP Fit Center  631 is at  -2.882842  0.580595  3.203331
      ESP Fit Center  632 is at  -1.220073  2.500595  2.243331
      ESP Fit Center  633 is at  -2.180073  2.243364  2.243331
      ESP Fit Center  634 is at  -2.882842  1.540595  2.243331
      ESP Fit Center  635 is at  -3.140073  0.580595  2.243331
      ESP Fit Center  636 is at  -0.706249  2.161982  1.283331
      ESP Fit Center  637 is at  -1.733897  2.161982  1.283331
      ESP Fit Center  638 is at  -2.565281  1.557946  1.283331
      ESP Fit Center  639 is at  -2.882842  0.580595  1.283331
      ESP Fit Center  640 is at  -1.700073  1.411979  0.580562
      ESP Fit Center  641 is at  -2.180073  0.580595  0.580562
      ESP Fit Center  642 is at  -2.676428 -0.978313  3.991672
      ESP Fit Center  643 is at  -2.358867 -1.955664  3.991672
      ESP Fit Center  644 is at  -1.527483 -2.559700  3.991672
      ESP Fit Center  645 is at  -0.499835 -2.559700  3.991672
      ESP Fit Center  646 is at   0.331549 -1.955664  3.991672
      ESP Fit Center  647 is at  -2.933659 -0.978313  3.031672
      ESP Fit Center  648 is at  -2.676428 -1.938313  3.031672
      ESP Fit Center  649 is at  -1.973659 -2.641082  3.031672
      ESP Fit Center  650 is at  -1.013659 -2.898313  3.031672
      ESP Fit Center  651 is at  -0.053659 -2.641082  3.031672
      ESP Fit Center  652 is at  -0.751832 -3.179822  1.584064
      ESP Fit Center  653 is at  -2.339283  0.116554  0.515964
      ESP Fit Center  654 is at  -2.762518 -1.467527  1.702596
      ESP Fit Center  655 is at  -2.444957 -2.444878  1.702596
      ESP Fit Center  656 is at  -1.613573 -3.048914  1.702596
      ESP Fit Center  657 is at  -2.762518 -0.507527  0.742596
      ESP Fit Center  658 is at  -3.019749 -1.467527  0.742596
      ESP Fit Center  659 is at  -2.762518 -2.427527  0.742596
      ESP Fit Center  660 is at  -2.059749 -3.130296  0.742596
      ESP Fit Center  661 is at  -1.099749 -3.387527  0.742596
      ESP Fit Center  662 is at  -2.444957 -0.490176 -0.217404
      ESP Fit Center  663 is at  -2.762518 -1.467527 -0.217404
      ESP Fit Center  664 is at  -2.444957 -2.444878 -0.217404
      ESP Fit Center  665 is at  -1.613573 -3.048914 -0.217404
      ESP Fit Center  666 is at  -0.585925 -3.048914 -0.217404
      ESP Fit Center  667 is at  -2.059749 -1.467527 -0.920173
      ESP Fit Center  668 is at  -1.579749 -2.298911 -0.920173
      ESP Fit Center  669 is at  -0.619749 -2.298911 -0.920173
      ESP Fit Center  670 is at   1.072564 -2.425839  2.827239
      ESP Fit Center  671 is at   0.078740 -3.175842  2.124470
      ESP Fit Center  672 is at   1.106388 -3.175842  2.124470
      ESP Fit Center  673 is at   1.937772 -2.571806  2.124470
      ESP Fit Center  674 is at   0.592564 -3.514455  1.164470
      ESP Fit Center  675 is at   1.552564 -3.257224  1.164470
      ESP Fit Center  676 is at   0.078740 -3.175842  0.204470
      ESP Fit Center  677 is at   1.106388 -3.175842  0.204470
      ESP Fit Center  678 is at  -1.634627  1.448153  0.498447
      ESP Fit Center  679 is at  -2.120380  0.522627  0.498447
      ESP Fit Center  680 is at  -1.634627  1.448153 -0.498447
      ESP Fit Center  681 is at  -2.120380  0.522627 -0.498447
      ESP Fit Center  682 is at  -1.416834  1.029390 -1.396617
      ESP Fit Center  683 is at  -1.751303  0.000000 -1.396617
      ESP Fit Center  684 is at  -1.416834 -1.029390 -1.396617
      ESP Fit Center  685 is at  -0.541182 -1.665588 -1.396617
      ESP Fit Center  686 is at   2.622339  2.602037 -0.534050
      ESP Fit Center  687 is at   2.528088  2.423682  1.809183
      ESP Fit Center  688 is at   1.696704  3.027718  1.809183
      ESP Fit Center  689 is at   0.669056  3.027718  1.809183
      ESP Fit Center  690 is at  -0.162328  2.423682  1.809183
      ESP Fit Center  691 is at   2.845649  2.406331  0.849183
      ESP Fit Center  692 is at   2.142880  3.109100  0.849183
      ESP Fit Center  693 is at   1.182880  3.366331  0.849183
      ESP Fit Center  694 is at   0.222880  3.109100  0.849183
      ESP Fit Center  695 is at  -0.479889  2.406331  0.849183
      ESP Fit Center  696 is at   2.055742  3.042372 -0.893831
      ESP Fit Center  697 is at   1.095742  3.299603 -0.893831
      ESP Fit Center  698 is at   0.135742  3.042372 -0.893831
      ESP Fit Center  699 is at  -0.567027  2.339603 -0.893831
      ESP Fit Center  700 is at   2.440950  2.356954 -1.853831
      ESP Fit Center  701 is at   1.609566  2.960990 -1.853831
      ESP Fit Center  702 is at   0.581918  2.960990 -1.853831
      ESP Fit Center  703 is at  -0.249466  2.356954 -1.853831
      ESP Fit Center  704 is at  -0.567027  1.379603 -1.853831
      ESP Fit Center  705 is at   1.575742  2.210987 -2.556600
      ESP Fit Center  706 is at   0.615742  2.210987 -2.556600
      ESP Fit Center  707 is at   3.597811 -0.482863  2.618502
      ESP Fit Center  708 is at   3.117811  0.348521  2.618502
      ESP Fit Center  709 is at   3.117811 -1.314247  2.618502
      ESP Fit Center  710 is at   4.300580 -0.482863  1.915733
      ESP Fit Center  711 is at   3.983019  0.494488  1.915733
      ESP Fit Center  712 is at   3.151635 -2.064250  1.915733
      ESP Fit Center  713 is at   3.983019 -1.460214  1.915733
      ESP Fit Center  714 is at   4.245029  0.717833  1.538727
      ESP Fit Center  715 is at   3.765029  1.549217  1.538727
      ESP Fit Center  716 is at   4.947798  0.717833  0.835958
      ESP Fit Center  717 is at   4.630237  1.695184  0.835958
      ESP Fit Center  718 is at   3.798853  2.299220  0.835958
      ESP Fit Center  719 is at   5.205029  0.717833 -0.124042
      ESP Fit Center  720 is at   4.947798  1.677833 -0.124042
      ESP Fit Center  721 is at   4.245029  2.380602 -0.124042
      ESP Fit Center  722 is at   3.285029  2.637833 -0.124042
      ESP Fit Center  723 is at   4.947798  0.717833 -1.084042
      ESP Fit Center  724 is at   4.630237  1.695184 -1.084042
      ESP Fit Center  725 is at   3.798853  2.299220 -1.084042
      ESP Fit Center  726 is at   2.771205  2.299220 -1.084042
      ESP Fit Center  727 is at   4.657335 -1.329892  0.754460
      ESP Fit Center  728 is at   2.677436 -3.309791  0.754460
      ESP Fit Center  729 is at   3.667385 -3.044535  0.754460
      ESP Fit Center  730 is at   4.392079 -2.319841  0.754460
      ESP Fit Center  731 is at   5.264299 -1.329892 -0.153925
      ESP Fit Center  732 is at   5.040653 -0.277720 -0.153925
      ESP Fit Center  733 is at   1.384005 -3.570181 -0.153925
      ESP Fit Center  734 is at   2.407035 -3.902584 -0.153925
      ESP Fit Center  735 is at   3.476821 -3.790145 -0.153925
      ESP Fit Center  736 is at   4.408385 -3.252306 -0.153925
      ESP Fit Center  737 is at   5.040653 -2.382064 -0.153925
      ESP Fit Center  738 is at   5.477436 -1.329892 -1.225439
      ESP Fit Center  739 is at   5.288358 -0.318415 -1.225439
      ESP Fit Center  740 is at   0.296828 -2.803902 -1.225439
      ESP Fit Center  741 is at   0.990059 -3.564340 -1.225439
      ESP Fit Center  742 is at   1.911180 -4.023004 -1.225439
      ESP Fit Center  743 is at   2.935787 -4.117948 -1.225439
      ESP Fit Center  744 is at   3.925503 -3.836349 -1.225439
      ESP Fit Center  745 is at   4.746661 -3.216240 -1.225439
      ESP Fit Center  746 is at   5.288358 -2.341369 -1.225439
      ESP Fit Center  747 is at   5.264299 -1.329892 -2.296953
      ESP Fit Center  748 is at   5.040653 -0.277720 -2.296953
      ESP Fit Center  749 is at   1.384005 -3.570181 -2.296953
      ESP Fit Center  750 is at   2.407035 -3.902584 -2.296953
      ESP Fit Center  751 is at   3.476821 -3.790145 -2.296953
      ESP Fit Center  752 is at   4.408385 -3.252306 -2.296953
      ESP Fit Center  753 is at   5.040653 -2.382064 -2.296953
      ESP Fit Center  754 is at   2.677436 -3.309791 -3.205338
      ESP Fit Center  755 is at   3.667385 -3.044535 -3.205338
      ESP Fit Center  756 is at   4.392079 -2.319841 -3.205338
      ESP Fit Center  757 is at   4.486743  0.532620 -3.345434
      ESP Fit Center  758 is at   3.998915  1.537249 -1.756499
      ESP Fit Center  759 is at   3.167531  2.141285 -1.756499
      ESP Fit Center  760 is at   4.573707  0.559898 -2.716499
      ESP Fit Center  761 is at   4.316476  1.519898 -2.716499
      ESP Fit Center  762 is at   3.613707  2.222667 -2.716499
      ESP Fit Center  763 is at   2.653707  2.479898 -2.716499
      ESP Fit Center  764 is at   1.693707  2.222667 -2.716499
      ESP Fit Center  765 is at   3.998915  1.537249 -3.676499
      ESP Fit Center  766 is at   3.167531  2.141285 -3.676499
      ESP Fit Center  767 is at   4.987407 -0.924957 -3.519374
      ESP Fit Center  768 is at   4.730176  0.035043 -3.519374
      ESP Fit Center  769 is at   4.027407 -2.587726 -3.519374
      ESP Fit Center  770 is at   4.730176 -1.884957 -3.519374
      ESP Fit Center  771 is at   4.730176 -0.924957 -4.479374
      ESP Fit Center  772 is at   4.412615  0.052394 -4.479374
      ESP Fit Center  773 is at   3.581231 -2.506344 -4.479374
      ESP Fit Center  774 is at   4.412615 -1.902308 -4.479374
      ESP Fit Center  775 is at  -1.168826 -1.636311 -2.772225
      ESP Fit Center  776 is at  -1.096441 -1.185135 -1.625767
      ESP Fit Center  777 is at  -0.711233  1.454985 -2.585767
      ESP Fit Center  778 is at  -1.414002  0.752216 -2.585767
      ESP Fit Center  779 is at  -1.671233 -0.207784 -2.585767
      ESP Fit Center  780 is at  -1.414002 -1.167784 -2.585767
      ESP Fit Center  781 is at  -0.664927 -2.643309 -2.457909
      ESP Fit Center  782 is at   0.166457 -3.247345 -2.457909
      ESP Fit Center  783 is at  -1.239719 -1.665958 -3.417909
      ESP Fit Center  784 is at  -0.982488 -2.625958 -3.417909
      ESP Fit Center  785 is at  -0.279719 -3.328727 -3.417909
      ESP Fit Center  786 is at   0.680281 -3.585958 -3.417909
      ESP Fit Center  787 is at   1.640281 -3.328727 -3.417909
      ESP Fit Center  788 is at   2.025489 -2.643309 -4.377909
      ESP Fit Center  789 is at   0.622254  2.242587 -2.887342
      ESP Fit Center  790 is at  -0.367695  1.977331 -2.887342
      ESP Fit Center  791 is at  -1.092389  1.252637 -2.887342
      ESP Fit Center  792 is at   2.353203  2.185102 -3.795727
      ESP Fit Center  793 is at   1.421639  2.722941 -3.795727
      ESP Fit Center  794 is at   0.351853  2.835380 -3.795727
      ESP Fit Center  795 is at  -0.671177  2.502977 -3.795727
      ESP Fit Center  796 is at  -1.470562  1.783208 -3.795727
      ESP Fit Center  797 is at  -1.908080  0.800527 -3.795727
      ESP Fit Center  798 is at  -1.908080 -0.275151 -3.795727
      ESP Fit Center  799 is at  -1.470562 -1.257832 -3.795727
      ESP Fit Center  800 is at   3.233176  1.274165 -4.867241
      ESP Fit Center  801 is at   2.691479  2.149036 -4.867241
      ESP Fit Center  802 is at   1.870321  2.769145 -4.867241
      ESP Fit Center  803 is at   0.880605  3.050744 -4.867241
      ESP Fit Center  804 is at  -0.144002  2.955800 -4.867241
      ESP Fit Center  805 is at  -1.065123  2.497136 -4.867241
      ESP Fit Center  806 is at  -1.758354  1.736698 -4.867241
      ESP Fit Center  807 is at  -2.130071  0.777187 -4.867241
      ESP Fit Center  808 is at  -2.130071 -0.251811 -4.867241
      ESP Fit Center  809 is at  -1.758354 -1.211322 -4.867241
      ESP Fit Center  810 is at   2.985471  1.314860 -5.938755
      ESP Fit Center  811 is at   2.353203  2.185102 -5.938755
      ESP Fit Center  812 is at   1.421639  2.722941 -5.938755
      ESP Fit Center  813 is at   0.351853  2.835380 -5.938755
      ESP Fit Center  814 is at  -0.671177  2.502977 -5.938755
      ESP Fit Center  815 is at  -1.470562  1.783208 -5.938755
      ESP Fit Center  816 is at  -1.908080  0.800527 -5.938755
      ESP Fit Center  817 is at  -1.908080 -0.275151 -5.938755
      ESP Fit Center  818 is at   1.612203  1.977331 -6.847140
      ESP Fit Center  819 is at   0.622254  2.242587 -6.847140
      ESP Fit Center  820 is at  -0.367695  1.977331 -6.847140
      ESP Fit Center  821 is at  -1.092389  1.252637 -6.847140
      ESP Fit Center  822 is at  -1.357645  0.262688 -6.847140
      ESP Fit Center  823 is at   0.086497  1.190646 -7.454104
      ESP Fit Center  824 is at  -0.449260  0.262688 -7.454104
      ESP Fit Center  825 is at   3.434636  0.153316 -6.649032
      ESP Fit Center  826 is at   4.217008 -1.207013 -5.783625
      ESP Fit Center  827 is at   3.959777 -0.247013 -5.783625
      ESP Fit Center  828 is at   3.959777 -1.207013 -6.743625
      ESP Fit Center  829 is at   3.642216 -0.229662 -6.743625
      ESP Fit Center  830 is at   3.155278  0.705165 -6.995114
      ESP Fit Center  831 is at   2.452509  1.407934 -6.995114
      ESP Fit Center  832 is at   3.155278 -0.254835 -7.955114
      ESP Fit Center  833 is at   2.837717  0.722516 -7.955114
      ESP Fit Center  834 is at   2.006333  1.326552 -7.955114
      ESP Fit Center  835 is at   0.978685  1.326552 -7.955114
      ESP Fit Center  836 is at   0.147301  0.722516 -7.955114
      ESP Fit Center  837 is at   2.452509 -0.254835 -8.657883
      ESP Fit Center  838 is at   1.972509  0.576549 -8.657883
      ESP Fit Center  839 is at   1.012509  0.576549 -8.657883
      ESP Fit Center  840 is at   0.532509 -0.254835 -8.657883
      ESP Fit Center  841 is at   1.492509 -0.254835 -8.915114
      ESP Fit Center  842 is at  -1.699758 -3.046811 -5.930099
      ESP Fit Center  843 is at  -0.315322 -3.449456 -3.925688
      ESP Fit Center  844 is at  -1.498091 -2.618072 -4.628457
      ESP Fit Center  845 is at  -1.180530 -3.595423 -4.628457
      ESP Fit Center  846 is at  -1.755322 -2.618072 -5.588457
      ESP Fit Center  847 is at  -1.498091 -3.578072 -5.588457
      ESP Fit Center  848 is at  -0.795322 -4.280841 -5.588457
      ESP Fit Center  849 is at  -1.870904 -0.676641 -5.898834
      ESP Fit Center  850 is at  -2.188465 -1.653992 -5.898834
      ESP Fit Center  851 is at  -1.870904 -2.631343 -5.898834
      ESP Fit Center  852 is at  -1.485696  0.008777 -6.858834
      ESP Fit Center  853 is at  -2.188465 -0.693992 -6.858834
      ESP Fit Center  854 is at  -2.445696 -1.653992 -6.858834
      ESP Fit Center  855 is at  -2.188465 -2.613992 -6.858834
      ESP Fit Center  856 is at  -1.039520 -0.072605 -7.818834
      ESP Fit Center  857 is at  -1.870904 -0.676641 -7.818834
      ESP Fit Center  858 is at  -2.188465 -1.653992 -7.818834
      ESP Fit Center  859 is at  -1.870904 -2.631343 -7.818834
      ESP Fit Center  860 is at  -1.005696 -0.822608 -8.521603
      ESP Fit Center  861 is at  -1.485696 -1.653992 -8.521603
      ESP Fit Center  862 is at  -1.451384 -3.659317 -6.687207
      ESP Fit Center  863 is at  -1.013866 -4.641998 -6.687207
      ESP Fit Center  864 is at   3.689872 -2.110001 -7.758721
      ESP Fit Center  865 is at   3.148175 -1.235130 -7.758721
      ESP Fit Center  866 is at  -1.673375 -3.635977 -7.758721
      ESP Fit Center  867 is at  -1.301658 -4.595488 -7.758721
      ESP Fit Center  868 is at  -0.608427 -5.355926 -7.758721
      ESP Fit Center  869 is at   3.665813 -3.121478 -8.830235
      ESP Fit Center  870 is at   3.442167 -2.069306 -8.830235
      ESP Fit Center  871 is at   2.809899 -1.199064 -8.830235
      ESP Fit Center  872 is at   0.808549 -0.548786 -8.830235
      ESP Fit Center  873 is at  -0.214481 -0.881189 -8.830235
      ESP Fit Center  874 is at  -1.013866 -1.600958 -8.830235
      ESP Fit Center  875 is at  -1.451384 -2.583639 -8.830235
      ESP Fit Center  876 is at  -1.451384 -3.659317 -8.830235
      ESP Fit Center  877 is at  -1.013866 -4.641998 -8.830235
      ESP Fit Center  878 is at  -0.214481 -5.361767 -8.830235
      ESP Fit Center  879 is at   0.808549 -5.694170 -8.830235
      ESP Fit Center  880 is at   3.058849 -3.121478 -9.738620
      ESP Fit Center  881 is at   2.793593 -2.131529 -9.738620
      ESP Fit Center  882 is at   2.068899 -1.406835 -9.738620
      ESP Fit Center  883 is at   1.078950 -1.141579 -9.738620
      ESP Fit Center  884 is at   0.089001 -1.406835 -9.738620
      ESP Fit Center  885 is at  -0.635693 -2.131529 -9.738620
      ESP Fit Center  886 is at  -0.900949 -3.121478 -9.738620
      ESP Fit Center  887 is at  -0.635693 -4.111427 -9.738620
      ESP Fit Center  888 is at   0.089001 -4.836121 -9.738620
      ESP Fit Center  889 is at   1.078950 -5.101377 -9.738620
      ESP Fit Center  890 is at   2.068899 -4.836121 -9.738620
      ESP Fit Center  891 is at   2.793593 -4.111427 -9.738620
      ESP Fit Center  892 is at   2.150464 -3.121478-10.345584
      ESP Fit Center  893 is at   1.614707 -2.193520-10.345584
      ESP Fit Center  894 is at   0.543193 -2.193520-10.345584
      ESP Fit Center  895 is at   0.007436 -3.121478-10.345584
      ESP Fit Center  896 is at   0.543193 -4.049436-10.345584
      ESP Fit Center  897 is at   1.614707 -4.049436-10.345584
      ESP Fit Center  898 is at   1.078950 -3.121478-10.558721
      ESP Fit Center  899 is at   4.390241 -5.154955 -6.312913
      ESP Fit Center  900 is at   4.233415 -5.576462 -6.658686
      ESP Fit Center  901 is at   4.808207 -4.599111 -7.618686
      ESP Fit Center  902 is at   4.550976 -3.639111 -7.618686
      ESP Fit Center  903 is at   2.888207 -6.519111 -7.618686
      ESP Fit Center  904 is at   3.848207 -6.261880 -7.618686
      ESP Fit Center  905 is at   4.550976 -5.559111 -7.618686
      ESP Fit Center  906 is at   4.550976 -4.599111 -8.578686
      ESP Fit Center  907 is at   4.233415 -3.621760 -8.578686
      ESP Fit Center  908 is at   2.374383 -6.180498 -8.578686
      ESP Fit Center  909 is at   3.402031 -6.180498 -8.578686
      ESP Fit Center  910 is at   4.233415 -5.576462 -8.578686
      ESP Fit Center  911 is at   3.848207 -4.599111 -9.281455
      ESP Fit Center  912 is at   3.368207 -3.767727 -9.281455
      ESP Fit Center  913 is at   2.408207 -5.430495 -9.281455
      ESP Fit Center  914 is at   3.368207 -5.430495 -9.281455
      ESP Fit Center  915 is at   2.888207 -4.599111 -9.538686
      ESP Fit Center  916 is at   2.941431 -3.496558 -4.356447
      ESP Fit Center  917 is at   3.901431 -3.496558 -4.613678
      ESP Fit Center  918 is at   3.421431 -2.665174 -4.613678
      ESP Fit Center  919 is at   4.604200 -3.496558 -5.316447
      ESP Fit Center  920 is at   4.286639 -2.519207 -5.316447
      ESP Fit Center  921 is at   4.286639 -4.473909 -5.316447
      ESP Fit Center  922 is at   4.861431 -3.496558 -6.276447
      ESP Fit Center  923 is at   4.604200 -2.536558 -6.276447
      ESP Fit Center  924 is at   4.604200 -4.456558 -6.276447
      ESP Fit Center  925 is at   4.604200 -3.496558 -7.236447
      ESP Fit Center  926 is at   4.286639 -2.519207 -7.236447
      ESP Fit Center  927 is at   3.245364 -4.201226 -4.460505
      ESP Fit Center  928 is at   0.438062 -6.633767 -4.460505
      ESP Fit Center  929 is at   1.399801 -7.072979 -4.460505
      ESP Fit Center  930 is at   1.146180 -7.496845 -5.422831
      ESP Fit Center  931 is at   2.187500 -7.496845 -6.490931
      ESP Fit Center  932 is at   2.446323 -6.922511 -7.453257
      ESP Fit Center  933 is at   1.056625 -4.788042 -3.249038
      ESP Fit Center  934 is at   2.016625 -4.788042 -3.506269
      ESP Fit Center  935 is at   1.536625 -3.956658 -3.506269
      ESP Fit Center  936 is at   0.576625 -3.956658 -3.506269
      ESP Fit Center  937 is at   0.096625 -4.788042 -3.506269
      ESP Fit Center  938 is at   0.576625 -5.619426 -3.506269
      ESP Fit Center  939 is at   1.536625 -5.619426 -3.506269
      ESP Fit Center  940 is at   1.570449 -3.206655 -4.209038
      ESP Fit Center  941 is at  -0.606144 -4.788042 -4.209038
      ESP Fit Center  942 is at  -0.288583 -5.765393 -4.209038
      ESP Fit Center  943 is at  -0.863375 -4.788042 -5.169038
      ESP Fit Center  944 is at  -0.606144 -5.748042 -5.169038
      ESP Fit Center  945 is at  -0.619616 -5.885941 -5.576581
      ESP Fit Center  946 is at  -0.302055 -6.863292 -5.576581
      ESP Fit Center  947 is at   0.529329 -7.467328 -5.576581
      ESP Fit Center  948 is at  -0.876847 -5.885941 -6.536581
      ESP Fit Center  949 is at  -0.619616 -6.845941 -6.536581
      ESP Fit Center  950 is at   0.083153 -7.548710 -6.536581
      ESP Fit Center  951 is at   1.043153 -7.805941 -6.536581
      ESP Fit Center  952 is at   2.003153 -7.548710 -6.536581
      ESP Fit Center  953 is at  -0.619616 -5.885941 -7.496581
      ESP Fit Center  954 is at  -0.302055 -6.863292 -7.496581
      ESP Fit Center  955 is at   0.529329 -7.467328 -7.496581
      ESP Fit Center  956 is at   1.556977 -7.467328 -7.496581
      ESP Fit Center  957 is at   0.083153 -5.885941 -8.199350
      ESP Fit Center  958 is at   0.563153 -6.717325 -8.199350
      ESP Fit Center  959 is at   1.523153 -6.717325 -8.199350
      ESP Fit Center  960 is at   1.043153 -5.885941 -8.456581
      ESP Fit Center  961 is at   2.451189 -5.799985 -3.563964
      ESP Fit Center  962 is at   3.411189 -5.799985 -3.821195
      ESP Fit Center  963 is at   2.931189 -4.968601 -3.821195
      ESP Fit Center  964 is at   1.971189 -6.631369 -3.821195
      ESP Fit Center  965 is at   2.931189 -6.631369 -3.821195
      ESP Fit Center  966 is at   4.113958 -5.799985 -4.523964
      ESP Fit Center  967 is at   3.796397 -4.822634 -4.523964
      ESP Fit Center  968 is at   1.937365 -7.381372 -4.523964
      ESP Fit Center  969 is at   2.965013 -7.381372 -4.523964
      ESP Fit Center  970 is at   3.796397 -6.777336 -4.523964
      ESP Fit Center  971 is at   4.371189 -5.799985 -5.483964
      ESP Fit Center  972 is at   2.451189 -7.719985 -5.483964
      ESP Fit Center  973 is at   3.411189 -7.462754 -5.483964
      ESP Fit Center  974 is at   4.113958 -6.759985 -5.483964
      ESP Fit Center  975 is at   4.113958 -5.799985 -6.443964
      ESP Fit Center  976 is at   2.965013 -7.381372 -6.443964
      ESP Fit Center  977 is at   3.796397 -6.777336 -6.443964
      ESP Fit Center  978 is at  -1.926115  0.167562 10.335213
      ESP Fit Center  979 is at  -1.409492  1.062379 10.129688
      ESP Fit Center  980 is at  -2.442738 -0.727255 10.129688
      ESP Fit Center  981 is at  -1.409492 -0.727255 10.129688
      ESP Fit Center  982 is at  -1.371042  2.599495  8.668458
      ESP Fit Center  983 is at  -4.173559 -0.914750  8.668458
      ESP Fit Center  984 is at  -0.892870  2.662037  7.635213
      ESP Fit Center  985 is at  -1.926115  2.867562  7.635213
      ESP Fit Center  986 is at  -4.420590 -0.865683  7.635213
      ESP Fit Center  987 is at  -0.016927 -1.741626  7.635213
      ESP Fit Center  988 is at  -0.984693  0.457194 10.250931
      ESP Fit Center  989 is at   0.095307  0.457194  9.961546
      ESP Fit Center  990 is at  -0.444693  1.392501  9.961546
      ESP Fit Center  991 is at  -0.444693 -0.478113  9.961546
      ESP Fit Center  992 is at   0.885922  0.457194  9.170931
      ESP Fit Center  993 is at   0.588968  1.468525  9.170931
      ESP Fit Center  994 is at  -0.207611  2.158765  9.170931
      ESP Fit Center  995 is at  -1.250909  2.308769  9.170931
      ESP Fit Center  996 is at  -0.207611 -1.244377  9.170931
      ESP Fit Center  997 is at   0.588968 -0.554137  9.170931
      ESP Fit Center  998 is at   0.242327  2.234839  8.090931
      ESP Fit Center  999 is at  -0.724334  2.601445  8.090931
      ESP Fit Center 1000 is at   0.927892 -0.546608  8.090931
      ESP Fit Center 1001 is at  -2.717282  0.742494 10.267466
      ESP Fit Center 1002 is at  -2.177282  1.677801  9.978081
      ESP Fit Center 1003 is at  -3.257282  1.677801  9.978081
      ESP Fit Center 1004 is at  -3.797282  0.742494  9.978081
      ESP Fit Center 1005 is at  -3.257282 -0.192813  9.978081
      ESP Fit Center 1006 is at  -1.940200  2.444065  9.187466
      ESP Fit Center 1007 is at  -2.983498  2.594069  9.187466
      ESP Fit Center 1008 is at  -3.942274  2.156210  9.187466
      ESP Fit Center 1009 is at  -4.512124  1.269507  9.187466
      ESP Fit Center 1010 is at  -4.512124  0.215481  9.187466
      ESP Fit Center 1011 is at  -2.456923  2.886745  8.107466
      ESP Fit Center 1012 is at  -3.483229  2.762129  8.107466
      ESP Fit Center 1013 is at  -4.334065  2.174839  8.107466
      ESP Fit Center 1014 is at  -4.814516  1.259416  8.107466
      ESP Fit Center 1015 is at  -4.814516  0.225572  8.107466
      ESP Fit Center 1016 is at  -3.942274  2.156210  7.027466
      ESP Fit Center 1017 is at  -4.512124  1.269507  7.027466
      ESP Fit Center 1018 is at  -2.632173 -1.818604  9.714270
      ESP Fit Center 1019 is at  -1.552173 -1.818604  9.714270
      ESP Fit Center 1020 is at  -3.887015 -1.410310  8.923655
      ESP Fit Center 1021 is at  -3.317165 -2.297013  8.923655
      ESP Fit Center 1022 is at  -2.358389 -2.734872  8.923655
      ESP Fit Center 1023 is at  -1.315091 -2.584868  8.923655
      ESP Fit Center 1024 is at  -0.518512 -1.894628  8.923655
      ESP Fit Center 1025 is at  -4.189407 -1.400219  7.843655
      ESP Fit Center 1026 is at  -3.708956 -2.315642  7.843655
      ESP Fit Center 1027 is at  -2.858120 -2.902932  7.843655
      ESP Fit Center 1028 is at  -1.831814 -3.027548  7.843655
      ESP Fit Center 1029 is at  -0.865153 -2.660942  7.843655
      ESP Fit Center 1030 is at  -0.179588 -1.887099  7.843655
      ESP Fit Center 1031 is at  -3.317165 -2.297013  6.763655
      ESP Fit Center 1032 is at  -2.358389 -2.734872  6.763655
      ESP Fit Center 1033 is at  -1.315091 -2.584868  6.763655
      ESP Fit Center 1034 is at  -3.827702  2.317520  6.132816
      ESP Fit Center 1035 is at  -2.951759 -2.086143  6.132816
      ESP Fit Center 1036 is at  -3.168766  1.851200  4.223628
      ESP Fit Center 1037 is at  -4.666900  0.647527  6.787816
      ESP Fit Center 1038 is at  -4.666900 -0.406499  6.787816
      ESP Fit Center 1039 is at  -4.097050 -1.293202  6.787816
      ESP Fit Center 1040 is at  -4.488841  1.552859  5.707816
      ESP Fit Center 1041 is at  -4.969292  0.637436  5.707816
      ESP Fit Center 1042 is at  -4.969292 -0.396408  5.707816
      ESP Fit Center 1043 is at  -4.488841 -1.311831  5.707816
      ESP Fit Center 1044 is at  -3.638005 -1.899121  5.707816
      ESP Fit Center 1045 is at  -4.097050  1.534230  4.627816
      ESP Fit Center 1046 is at  -4.666900  0.647527  4.627816
      ESP Fit Center 1047 is at  -4.666900 -0.406499  4.627816
      ESP Fit Center 1048 is at  -4.097050 -1.293202  4.627816
[...]
 1241 Fit      -0.019048
 1242 Fit      -0.015847
 1243 Fit      -0.010338
 1244 Fit      -0.000983
 1245 Fit      -0.013151
 1246 Fit      -0.012652
 1247 Fit      -0.012163
 1248 Fit      -0.012205
 1249 Fit      -0.013628
 1250 Fit      -0.015933
 1251 Fit      -0.017331
 1252 Fit      -0.008389
 1253 Fit      -0.004572
 1254 Fit      -0.001434
 1255 Fit      -0.003251
 1256 Fit      -0.004749
 1257 Fit      -0.007146
 1258 Fit      -0.008999
 1259 Fit       0.009427
 1260 Fit       0.007112
 1261 Fit       0.000601
 1262 Fit       0.002257
 1263 Fit       0.013813
 1264 Fit       0.005061
 1265 Fit       0.006524
 1266 Fit       0.005588
 1267 Fit       0.003582
 1268 Fit       0.001185
 1269 Fit      -0.001986
 1270 Fit       0.000489
 1271 Fit       0.001460
 1272 Fit       0.000950
 1273 Fit       0.007404
 1274 Fit       0.004322
 1275 Fit       0.011120
 1276 Fit      -0.010359
 1277 Fit      -0.007286
 1278 Fit      -0.011435
 1279 Fit      -0.013840
 1280 Fit      -0.012331
 1281 Fit      -0.007480
 1282 Fit      -0.003915
 1283 Fit      -0.005001
 1284 Fit      -0.002917
 1285 Fit       0.003834
 1286 Fit       0.008356
 1287 Fit      -0.004241
 1288 Fit      -0.006365
 1289 Fit      -0.008972
 1290 Fit      -0.010690
 1291 Fit      -0.013017
 1292 Fit      -0.015418
 1293 Fit      -0.016021
 1294 Fit      -0.013183
 1295 Fit      -0.011194
 1296 Fit      -0.015151
 1297 Fit      -0.016264
 1298 Fit      -0.016195
 1299 Fit      -0.016701
 1300 Fit      -0.018354
 1301 Fit      -0.020191
 1302 Fit      -0.020273
 1303 Fit      -0.016789
 1304 Fit      -0.008701
 1305 Fit      -0.008364
 1306 Fit      -0.014790
 1307 Fit      -0.017936
 1308 Fit      -0.018549
 1309 Fit      -0.018236
 1310 Fit      -0.018559
 1311 Fit      -0.019953
 1312 Fit      -0.021332
 1313 Fit      -0.020582
 1314 Fit      -0.015786
 1315 Fit      -0.006504
 1316 Fit      -0.012030
 1317 Fit      -0.014730
 1318 Fit      -0.015468
 1319 Fit      -0.015891
 1320 Fit      -0.016874
 1321 Fit      -0.017492
 1322 Fit      -0.015038
 1323 Fit      -0.005944
 1324 Fit      -0.008753
 1325 Fit      -0.010068
 1326 Fit      -0.010203
 1327 Fit      -0.001501
 1328 Fit       0.010354
 1329 Fit       0.005648
 1330 Fit       0.004371
 1331 Fit       0.001802
 1332 Fit      -0.001129
 1333 Fit      -0.004559
 1334 Fit      -0.003659
 1335 Fit      -0.000832
 1336 Fit      -0.000569
 1337 Fit      -0.000798
 1338 Fit      -0.000540
 1339 Fit       0.001578
 1340 Fit      -0.007809
 1341 Fit      -0.001517
 1342 Fit      -0.000749
 1343 Fit      -0.008084
 1344 Fit       0.010055
 1345 Fit      -0.004366
 1346 Fit       0.001779
 1347 Fit       0.005715
 1348 Fit      -0.001539
 1349 Fit      -0.000976
 1350 Fit      -0.009845
 1351 Fit      -0.003957
 1352 Fit      -0.007317
 1353 Fit      -0.003452
 1354 Fit      -0.002649
 1355 Fit      -0.005345
 1356 Fit      -0.000061
 1357 Fit      -0.001450
 1358 Fit      -0.001139
 1359 Fit      -0.003241
 1360 Fit      -0.000891
 1361 Fit      -0.003213
 1362 Fit      -0.006586
 1363 Fit      -0.013986
 1364 Fit      -0.015502
 1365 Fit      -0.008276
 1366 Fit      -0.010836
 1367 Fit      -0.011905
 1368 Fit      -0.018487
 1369 Fit      -0.020039
 1370 Fit      -0.015039
 1371 Fit      -0.008064
 1372 Fit      -0.015035
 1373 Fit      -0.017410
 1374 Fit      -0.014305
 1375 Fit      -0.009478
 1376 Fit      -0.006747
 1377 Fit      -0.006223
 1378 Fit      -0.009546
 1379 Fit      -0.015666
 1380 Fit      -0.020538
 1381 Fit      -0.020778
 1382 Fit      -0.015613
 1383 Fit      -0.007586
 1384 Fit      -0.013374
 1385 Fit      -0.018892
 1386 Fit      -0.019745
 1387 Fit      -0.016734
 1388 Fit      -0.013979
 1389 Fit      -0.014474
 1390 Fit      -0.017939
 1391 Fit      -0.020320
 1392 Fit      -0.018035
 1393 Fit      -0.012071
 1394 Fit      -0.007010
 1395 Fit      -0.007464
 1396 Fit      -0.016857
 1397 Fit      -0.019806
 1398 Fit      -0.018449
 1399 Fit      -0.018885
 1400 Fit      -0.017878
 1401 Fit      -0.014421
 1402 Fit      -0.018585
 1403 Fit       0.008050
 1404 Fit       0.006016
 1405 Fit       0.000920
 1406 Fit       0.005658
 1407 Fit       0.006186
 1408 Fit       0.007245
 1409 Fit       0.006925
 1410 Fit       0.004531
 1411 Fit       0.000442
 1412 Fit       0.004413
 1413 Fit       0.006131
 1414 Fit       0.006222
 1415 Fit       0.002235
 1416 Fit       0.000540
 1417 Fit       0.003825
 1418 Fit       0.012096
 1419 Fit       0.009982
 1420 Fit       0.008778
 1421 Fit       0.012913
 1422 Fit       0.008064
 1423 Fit       0.006919
 1424 Fit       0.008301
 1425 Fit       0.002595
 1426 Fit       0.000269
 1427 Fit       0.006732
 1428 Fit       0.012895
 1429 Fit      -0.000088
 1430 Fit       0.000317
 1431 Fit      -0.000901
 1432 Fit      -0.000504
 1433 Fit       0.000084
 1434 Fit      -0.005446
 1435 Fit       0.000848
 1436 Fit       0.001915
 1437 Fit       0.004445
 1438 Fit       0.003955
 1439 Fit       0.001350
 1440 Fit       0.000954
 1441 Fit       0.005503
 1442 Fit       0.007830
 1443 Fit       0.003673
 1444 Fit       0.001128
 1445 Fit       0.000179
 1446 Fit       0.006537
 1447 Fit       0.002270
 1448 Fit       0.000519
 1449 Fit      -0.000860
 1450 Fit      -0.001692
 1451 Fit      -0.000325
 1452 Fit       0.000217
 1453 Fit      -0.009193
 1454 Fit      -0.003734
 1455 Fit      -0.000531
 1456 Fit       0.000885
 1457 Fit       0.001178
 1458 Fit      -0.006221
 1459 Fit      -0.000971
 1460 Fit       0.001055
 1461 Fit       0.001950
 1462 Fit      -0.002571
 1463 Fit       0.001153
 1464 Fit       0.000517
 1465 Fit       0.002677
 1466 Fit       0.002261
 1467 Fit       0.000740
 1468 Fit       0.002459
 1469 Fit       0.005275
 1470 Fit       0.006281
 1471 Fit       0.001844
 1472 Fit       0.003744
 1473 Fit       0.004894
 1474 Fit       0.006962
 1475 Fit       0.002693
 1476 Fit       0.004636
 1477 Fit       0.005996
 1478 Fit       0.003770
 1479 Fit       0.006204
 1480 Fit       0.005173
 1481 Fit       0.006645
 1482 Fit       0.005605
 1483 Fit       0.004356
 1484 Fit       0.004339
 1485 Fit       0.003647
 1486 Fit       0.010537
 1487 Fit       0.002671
 1488 Fit       0.012819
 1489 Fit       0.005575
 1490 Fit       0.000378
 1491 Fit       0.009135
 1492 Fit       0.006522
 1493 Fit       0.006267
 1494 Fit       0.007790
 1495 Fit       0.008358
 1496 Fit       0.005509
 1497 Fit       0.009687
 1498 Fit       0.011050
 1499 Fit       0.010588
 1500 Fit       0.006818
 1501 Fit       0.012302
 1502 Fit       0.014612
 1503 Fit       0.014430
 1504 Fit       0.012961
 1505 Fit       0.003577
 1506 Fit       0.008134
 1507 Fit       0.006297
 1508 Fit       0.007434
 1509 Fit       0.007984
 1510 Fit       0.007111
 1511 Fit       0.009047
 1512 Fit       0.009466
 1513 Fit       0.009457
 1514 Fit       0.008660
 1515 Fit       0.007101
 1516 Fit       0.011269
 1517 Fit       0.011134
 1518 Fit       0.010833
 1519 Fit       0.010096
 1520 Fit       0.008801
 1521 Fit       0.007045
 1522 Fit       0.013442
 1523 Fit       0.012437
 1524 Fit       0.011454
 1525 Fit       0.010199
 1526 Fit       0.004260
 1527 Fit       0.003792
 1528 Fit       0.004848
 1529 Fit       0.004534
 1530 Fit       0.003941
 1531 Fit       0.003063
 1532 Fit       0.002816
 1533 Fit       0.004977
 1534 Fit       0.004200
 1535 Fit       0.003064
 1536 Fit       0.001525
 1537 Fit       0.000216
 1538 Fit       0.005145
 1539 Fit       0.002981
 1540 Fit       0.000404
 1541 Fit      -0.002956
 1542 Fit      -0.006410
 1543 Fit       0.000623
 1544 Fit      -0.006540
 1545 Fit       0.014080
 1546 Fit       0.013247
 1547 Fit       0.012161
 1548 Fit       0.011129
 1549 Fit       0.010957
 1550 Fit       0.011553
 1551 Fit       0.009905
 1552 Fit       0.008027
 1553 Fit       0.005431
 1554 Fit       0.011624
 1555 Fit       0.010297
 1556 Fit       0.009076
 1557 Fit       0.007298
 1558 Fit       0.004267
 1559 Fit      -0.001658
 1560 Fit       0.009953
 1561 Fit       0.008711
 1562 Fit       0.007122
 1563 Fit       0.004128
 1564 Fit      -0.002148
 1565 Fit       0.008786
 1566 Fit       0.006895
 1567 Fit       0.003756
 1568 Fit       0.016187
 1569 Fit       0.014620
 1570 Fit       0.019278
 1571 Fit       0.016232
 1572 Fit       0.014565
 1573 Fit       0.013848
 1574 Fit       0.017118
 1575 Fit       0.014658
 1576 Fit       0.013188
 1577 Fit       0.015672
 1578 Fit       0.012875
 1579 Fit      -0.011328
 1580 Fit      -0.010325
 1581 Fit      -0.008478
 1582 Fit      -0.013077
 1583 Fit      -0.013550
 1584 Fit      -0.009369
 1585 Fit      -0.011439
 1586 Fit      -0.010131
 1587 Fit       0.003315
 1588 Fit       0.007950
 1589 Fit       0.011675
 1590 Fit       0.011527
 1591 Fit       0.004799
 1592 Fit       0.009298
 1593 Fit      -0.002559
 1594 Fit       0.003045
 1595 Fit       0.006363
 1596 Fit       0.008657
 1597 Fit      -0.006468
 1598 Fit       0.000166
 1599 Fit       0.003620
 1600 Fit       0.006032
 1601 Fit       0.005847
 1602 Fit      -0.006870
 1603 Fit      -0.001485
 1604 Fit       0.001257
 1605 Fit       0.003274
 1606 Fit      -0.006222
 1607 Fit      -0.004756
 1608 Fit      -0.004092
 1609 Fit       0.013360
 1610 Fit       0.015710
 1611 Fit       0.012776
 1612 Fit       0.014737
 1613 Fit       0.016209
 1614 Fit       0.017430
 1615 Fit       0.015681
 1616 Fit       0.017035
 1617 Fit       0.017990
 1618 Fit       0.019351
 1619 Fit       0.017493
 1620 Fit       0.018426
 1621 Fit       0.014782
 1622 Fit       0.006774
 1623 Fit       0.012023
 1624 Fit       0.009698
 1625 Fit       0.018815
 1626 Fit       0.014724
 1627 Fit       0.015034
 1628 Fit       0.016040
 1629 Fit       0.011798
 1630 Fit       0.012087
 1631 Fit       0.012553
 1632 Fit       0.012780
 1633 Fit       0.009416
 1634 Fit       0.009708
 1635 Fit       0.013846
 1636 Fit       0.014769
 1637 Fit       0.015980
 1638 Fit       0.010586
 1639 Fit       0.012123
 1640 Fit       0.013127
 1641 Fit       0.013933
 1642 Fit       0.008722
 1643 Fit       0.007623
 1644 Fit       0.010050
 1645 Fit       0.011245
 1646 Fit       0.011761
 1647 Fit       0.003428
 1648 Fit       0.004707
 1649 Fit       0.008603
 1650 Fit       0.009845
 1651 Fit      -0.001320
 1652 Fit       0.004971
 1653 Fit       0.005570
 1654 Fit       0.009540
 1655 Fit       0.007977
 1656 Fit       0.006689
 1657 Fit       0.005620
 1658 Fit       0.005139
 1659 Fit       0.004650
 1660 Fit       0.004232
 1661 Fit       0.004199
 1662 Fit      -0.003385
 1663 Fit      -0.002649
 1664 Fit      -0.001928
 1665 Fit       0.003070
 1666 Fit       0.000641
 1667 Fit      -0.001034
 1668 Fit      -0.002177
 1669 Fit      -0.002963
 1670 Fit       0.005035
 1671 Fit       0.004419
 1672 Fit       0.003518
 1673 Fit       0.001443
 1674 Fit       0.001897
 1675 Fit      -0.007489
 1676 Fit      -0.012843
 1677 Fit       0.005264
 1678 Fit       0.004735
 1679 Fit       0.004616
 1680 Fit       0.003841
 1681 Fit       0.002336
 1682 Fit      -0.002183
 1683 Fit       0.000931
 1684 Fit       0.002102
 1685 Fit       0.001809
 1686 Fit       0.000015
 1687 Fit      -0.006849
 1688 Fit      -0.002411
 1689 Fit      -0.001534
 1690 Fit      -0.003836
 1691 Fit      -0.010434
 1692 Fit      -0.007522
 1693 Fit      -0.000193
 1694 Fit      -0.001882
 1695 Fit      -0.002986
 1696 Fit      -0.000658
 1697 Fit      -0.002905
 1698 Fit      -0.003861
 1699 Fit      -0.004623
 1700 Fit      -0.008849
 1701 Fit      -0.010166
 1702 Fit      -0.011793
 1703 Fit      -0.009917
 1704 Fit      -0.011796
 1705 Fit      -0.016452
 1706 Fit      -0.016605
 1707 Fit      -0.013347
 1708 Fit       0.000148
 1709 Fit       0.009326
 1710 Fit      -0.002600
 1711 Fit       0.008154
 1712 Fit       0.009386
 1713 Fit       0.009379
 1714 Fit       0.008309
 1715 Fit       0.006891
 1716 Fit       0.004988
 1717 Fit       0.007555
 1718 Fit       0.004830
 1719 Fit       0.008916
 1720 Fit       0.005206
 1721 Fit       0.001929
 1722 Fit      -0.002087
 1723 Fit      -0.008626
 1724 Fit       0.003847
 1725 Fit      -0.000136
 1726 Fit      -0.003623
 1727 Fit       0.004142
 1728 Fit       0.005639
 1729 Fit       0.000709
 1730 Fit      -0.000643
 1731 Fit      -0.003633
 1732 Fit       0.001315
 1733 Fit       0.002931
 1734 Fit      -0.001207
 1735 Fit      -0.000154
 1736 Fit       0.002956
 1737 Fit       0.006123
 1738 Fit       0.008416
 1739 Fit       0.001373
 1740 Fit       0.005452
 1741 Fit       0.008008
 1742 Fit       0.009803
 1743 Fit      -0.000390
 1744 Fit       0.005065
 1745 Fit       0.008007
 1746 Fit       0.009897
 1747 Fit       0.006139
 1748 Fit       0.009582
 1749 Fit      -0.005241
 1750 Fit      -0.005788
 1751 Fit      -0.005000
 1752 Fit      -0.007661
 1753 Fit      -0.008722
 1754 Fit      -0.009894
 1755 Fit      -0.010317
 1756 Fit      -0.010610
 1757 Fit      -0.010102
 1758 Fit      -0.011531
 1759 Fit      -0.006521
 1760 Fit      -0.011501
 1761 Fit      -0.012229
 1762 Fit      -0.012265
 1763 Fit      -0.012412
 1764 Fit      -0.013070
 1765 Fit      -0.013837
 1766 Fit      -0.013698
 1767 Fit      -0.012603
 1768 Fit      -0.008515
 1769 Fit      -0.001880
 1770 Fit      -0.012862
 1771 Fit      -0.011785
 1772 Fit      -0.011573
 1773 Fit      -0.011328
 1774 Fit      -0.011244
 1775 Fit      -0.011763
 1776 Fit      -0.012905
 1777 Fit      -0.014056
 1778 Fit      -0.014260
 1779 Fit      -0.009846
 1780 Fit      -0.006413
 1781 Fit      -0.000754
 1782 Fit      -0.004763
 1783 Fit      -0.005679
 1784 Fit      -0.006384
 1785 Fit      -0.007007
 1786 Fit      -0.008368
 1787 Fit      -0.010037
 1788 Fit      -0.010881
 1789 Fit      -0.002935
 1790 Fit       0.001546
 1791 Fit       0.000167
 1792 Fit      -0.001775
 1793 Fit      -0.003189
 1794 Fit       0.000812
 1795 Fit       0.005198
 1796 Fit       0.007627
 1797 Fit       0.007921
 1798 Fit       0.002557
 1799 Fit       0.002688
 1800 Fit       0.000741
 1801 Fit      -0.000998
 1802 Fit      -0.005820
 1803 Fit       0.002699
 1804 Fit       0.002162
 1805 Fit       0.006872
 1806 Fit       0.004021
 1807 Fit       0.007304
 1808 Fit       0.003909
 1809 Fit       0.011617
 1810 Fit      -0.010904
 1811 Fit      -0.010540
 1812 Fit      -0.011908
 1813 Fit      -0.016230
 1814 Fit      -0.015646
 1815 Fit      -0.012559
 1816 Fit      -0.007562
 1817 Fit      -0.002771
 1818 Fit       0.000824
 1819 Fit       0.002248
 1820 Fit       0.000154
 1821 Fit      -0.003970
 1822 Fit      -0.007274
 1823 Fit      -0.010537
 1824 Fit      -0.013208
 1825 Fit      -0.013911
 1826 Fit      -0.007463
 1827 Fit      -0.009864
 1828 Fit      -0.010997
 1829 Fit      -0.012017
 1830 Fit      -0.013480
 1831 Fit      -0.015087
 1832 Fit      -0.015865
 1833 Fit      -0.014699
 1834 Fit      -0.010842
 1835 Fit      -0.003928
 1836 Fit      -0.008691
 1837 Fit      -0.011949
 1838 Fit      -0.013645
 1839 Fit      -0.014198
 1840 Fit      -0.014411
 1841 Fit      -0.014955
 1842 Fit      -0.015994
 1843 Fit      -0.017076
 1844 Fit      -0.017298
 1845 Fit      -0.015700
 1846 Fit      -0.011733
 1847 Fit      -0.005307
 1848 Fit      -0.010088
 1849 Fit      -0.012909
 1850 Fit      -0.014097
 1851 Fit      -0.014426
 1852 Fit      -0.014772
 1853 Fit      -0.015539
 1854 Fit      -0.016328
 1855 Fit      -0.016009
 1856 Fit      -0.013165
 1857 Fit      -0.007942
 1858 Fit      -0.010409
 1859 Fit      -0.011529
 1860 Fit      -0.012188
 1861 Fit      -0.012816
 1862 Fit      -0.012705
 1863 Fit      -0.009860
 1864 Fit      -0.004094
 1865 Fit      -0.006613
 1866 Fit      -0.007759
 1867 Fit      -0.007539
 1868 Fit       0.000871
 1869 Fit      -0.002209
 1870 Fit       0.006474
 1871 Fit       0.003230
 1872 Fit       0.000759
 1873 Fit      -0.001420
 1874 Fit      -0.002858
 1875 Fit      -0.005638
 1876 Fit      -0.002247
 1877 Fit      -0.001595
 1878 Fit      -0.001712
 1879 Fit      -0.001660
 1880 Fit      -0.000472
 1881 Fit      -0.009150
 1882 Fit      -0.003397
 1883 Fit      -0.002738
 1884 Fit      -0.003729
 1885 Fit       0.001169
 1886 Fit       0.004825
 1887 Fit      -0.003040
 1888 Fit      -0.000462
 1889 Fit      -0.008788
 1890 Fit      -0.004810
 1891 Fit      -0.003828
 1892 Fit      -0.006121
 1893 Fit      -0.003984
 1894 Fit      -0.003165
 1895 Fit      -0.004865
 1896 Fit      -0.001118
 1897 Fit      -0.002264
 1898 Fit      -0.002570
 1899 Fit      -0.005049
 1900 Fit      -0.007180
 1901 Fit      -0.009719
 1902 Fit      -0.001460
 1903 Fit      -0.003559
 1904 Fit      -0.010735
 1905 Fit      -0.013845
 1906 Fit      -0.013606
 1907 Fit      -0.003068
 1908 Fit      -0.007974
 1909 Fit      -0.010187
 1910 Fit      -0.001824
 1911 Fit      -0.008828
 1912 Fit      -0.013676
 1913 Fit      -0.016376
 1914 Fit      -0.015536
 1915 Fit      -0.010977
 1916 Fit      -0.007693
 1917 Fit      -0.012424
 1918 Fit      -0.014226
 1919 Fit      -0.012671
 1920 Fit      -0.009911
 1921 Fit      -0.008190
 1922 Fit      -0.008007
 1923 Fit      -0.010105
 1924 Fit      -0.013778
 1925 Fit      -0.016617
 1926 Fit      -0.016486
 1927 Fit      -0.012926
 1928 Fit      -0.007491
 1929 Fit      -0.002304
 1930 Fit      -0.011462
 1931 Fit      -0.015036
 1932 Fit      -0.015816
 1933 Fit      -0.014252
 1934 Fit      -0.012784
 1935 Fit      -0.013180
 1936 Fit      -0.015199
 1937 Fit      -0.016418
 1938 Fit      -0.014731
 1939 Fit      -0.010797
 1940 Fit      -0.007521
 1941 Fit      -0.007780
 1942 Fit      -0.013996
 1943 Fit      -0.015989
 1944 Fit      -0.015448
 1945 Fit      -0.015724
 1946 Fit      -0.014861
 1947 Fit      -0.012544
 1948 Fit      -0.015360
 1949 Fit       0.006141
 1950 Fit       0.004556
 1951 Fit       0.003280
 1952 Fit      -0.000736
 1953 Fit       0.006527
 1954 Fit       0.006084
 1955 Fit       0.004143
 1956 Fit       0.002047
 1957 Fit       0.004962
 1958 Fit       0.005612
 1959 Fit       0.005303
 1960 Fit       0.002700
 1961 Fit      -0.001216
 1962 Fit       0.002470
 1963 Fit       0.004147
 1964 Fit       0.004242
 1965 Fit       0.000285
 1966 Fit       0.001682
 1967 Fit       0.007889
 1968 Fit       0.007328
 1969 Fit       0.011728
 1970 Fit       0.006717
 1971 Fit       0.006490
 1972 Fit       0.008220
 1973 Fit       0.006418
 1974 Fit       0.004942
 1975 Fit       0.004903
 1976 Fit      -0.000368
 1977 Fit      -0.000244
 1978 Fit       0.003816
 1979 Fit      -0.000159
 1980 Fit       0.000071
 1981 Fit      -0.000605
 1982 Fit      -0.000414
 1983 Fit       0.000351
 1984 Fit      -0.002562
 1985 Fit       0.000178
 1986 Fit       0.001062
 1987 Fit       0.001160
 1988 Fit       0.002191
 1989 Fit       0.004538
 1990 Fit       0.003327
 1991 Fit      -0.000513
 1992 Fit      -0.000734
 1993 Fit       0.001795
 1994 Fit       0.000239
 1995 Fit       0.004636
 1996 Fit       0.001649
 1997 Fit       0.000352
 1998 Fit       0.001404
 1999 Fit      -0.000353
 2000 Fit      -0.004307
 2001 Fit      -0.002003
 2002 Fit      -0.000426
 2003 Fit       0.000339
 2004 Fit      -0.008502
 2005 Fit      -0.003441
 2006 Fit      -0.000772
 2007 Fit       0.000496
 2008 Fit       0.001115
 2009 Fit      -0.007833
 2010 Fit      -0.002427
 2011 Fit      -0.000044
 2012 Fit       0.001396
 2013 Fit      -0.003892
 2014 Fit      -0.000038
 2015 Fit      -0.000323
 2016 Fit       0.001137
 2017 Fit       0.000206
 2018 Fit       0.001249
 2019 Fit       0.003405
 2020 Fit       0.003976
 2021 Fit       0.001250
 2022 Fit       0.002546
 2023 Fit       0.003278
 2024 Fit       0.005256
 2025 Fit       0.006771
 2026 Fit       0.001083
 2027 Fit       0.002532
 2028 Fit       0.003796
 2029 Fit       0.004631
 2030 Fit       0.006488
 2031 Fit       0.002487
 2032 Fit       0.004031
 2033 Fit       0.005323
 2034 Fit       0.005836
 Job cpu time:       0 days  0 hours  5 minutes 15.6 seconds.
 Normal termination of Gaussian 16 at Sat Jul  8 20:48:33 2023.
