 Copyright (c) 1988-2019, Gaussian, Inc.  All Rights Reserved.
  
 This is part of the Gaussian(R) 16 program.  It is based on
 the Gaussian(R) 09 system (copyright 2009, Gaussian, Inc.),
 the Gaussian(R) 03 system (copyright 2003, Gaussian, Inc.),
 the Gaussian(R) 98 system (copyright 1998, Gaussian, Inc.),
 the Gaussian(R) 94 system (copyright 1995, Gaussian, Inc.),
 the Gaussian 92(TM) system (copyright 1992, Gaussian, Inc.),
 the Gaussian 90(TM) system (copyright 1990, Gaussian, Inc.),
 the Gaussian 88(TM) system (copyright 1988, Gaussian, Inc.),
 the Gaussian 86(TM) system (copyright 1986, Carnegie Mellon
 University), and the Gaussian 82(TM) system (copyright 1983,
 Carnegie Mellon University). Gaussian is a federally registered
 trademark of Gaussian, Inc.
 Cite this work as:
 Gaussian 16, Revision C.01,
 M. J. Frisch, G. W. Trucks, H. B. Schlegel, G. E. Scuseria, 
 M. A. Robb, J. R. Cheeseman, G. Scalmani, V. Barone, 
 G. A. Petersson, H. Nakatsuji, X. Li, M. Caricato, A. V. Marenich, 
 J. Bloino, B. G. Janesko, R. Gomperts, B. Mennucci, H. P. Hratchian, 
 J. V. Ortiz, A. F. Izmaylov, J. L. Sonnenberg, D. Williams-Young, 
 F. Ding, F. Lipparini, F. Egidi, J. Goings, B. Peng, A. Petrone, 
 T. Henderson, D. Ranasinghe, V. G. Zakrzewski, J. Gao, N. Rega, 
 G. Zheng, W. Liang, M. Hada, M. Ehara, K. Toyota, R. Fukuda, 
 J. Hasegawa, M. Ishida, T. Nakajima, Y. Honda, O. Kitao, H. Nakai, 
 T. Vreven, K. Throssell, J. A. Montgomery, Jr., J. E. Peralta, 
 F. Ogliaro, M. J. Bearpark, J. J. Heyd, E. N. Brothers, K. N. Kudin, 
 V. N. Staroverov, T. A. Keith, R. Kobayashi, J. Normand, 
 K. Raghavachari, A. P. Rendell, J. C. Burant, S. S. Iyengar, 
 J. Tomasi, M. Cossi, J. M. Millam, M. Klene, C. Adamo, R. Cammi, 
 J. W. Ochterski, R. L. Martin, K. Morokuma, O. Farkas, 
 J. B. Foresman, and D. J. Fox, Gaussian, Inc., Wallingford CT, 2019.
 
 ******************************************
 Gaussian 16:  EM64L-G16RevC.01  3-Jul-2019
                 8-Jul-2023 
 ******************************************
 ----------------------------------------------------------------------
 #P HF/6-31G(d) SCF(Conver=8,XQC,MaxConventionalCycles=64,MaxCycle=128)
  NoSymm Test Pop=mk IOp(6/33=2) GFInput GFPrint
 ----------------------------------------------------------------------
 1/38=1,172=1/1;
 2/12=2,15=1,17=6,18=5,40=1/2;
 3/5=1,6=6,7=1,11=9,24=110,25=1,30=1/1,2,3;
 4//1;
 5/5=2,6=8,7=128,8=3,13=1,38=5,85=64/2,8;
 6/7=2,8=2,9=2,10=2,15=8,20=1,28=1,33=2/1,2;
 99/5=1,9=1/99;
 -------------------------------------------------
 MEP step - Input generated by PyRED DVE-DMDS-OPLS
 -------------------------------------------------
 Symbolic Z-matrix:
 Charge =  0 Multiplicity = 1
 C                    -6.41027  -0.10707   3.18401 
 H                    -6.55284   0.86364   3.64605 
 H                    -6.24189   0.04467   2.12362 
 H                    -7.32902  -0.67266   3.30843 
 C                    -5.24165  -0.865     3.7985 
 H                    -5.40537  -1.02389   4.86296 
 H                    -5.15347  -1.83981   3.33523 
 O                    -4.00946  -0.22761   3.59275 
 C                    -3.69465   0.79974   4.48512 
 H                    -3.59302   0.39962   5.49453 
 H                    -4.46761   1.5624    4.50143 
 C                    -2.3864    1.44006   4.0685 
 H                    -2.06398   2.11328   4.8552 
 H                    -1.628     0.66983   3.95502 
 O                    -2.51364   2.20504   2.9054 
 C                    -2.24354   1.57269   1.68201 
 H                    -2.92193   1.98239   0.94462 
 H                    -2.42659   0.50781   1.74225 
 C                    -0.81159   1.86268   1.25285 
 H                    -0.10989   1.50918   2.00506 
 H                    -0.67749   2.93287   1.16085 
 O                    -0.54338   1.29191   0. 
 C                     0.        0.        0. 
 H                    -0.36739  -0.5002   -0.8859 
 H                    -0.35028  -0.55687   0.8669 
 C                     1.52539   0.        0. 
 H                     1.87308  -1.01206   0.17847 
 H                     1.90489   0.60708   0.81397 
 S                     2.32816   0.46833  -1.56288 
 C                     2.05274   2.26281  -1.67337 
 H                     2.24905   2.50842  -2.70961 
 H                     1.00848   2.46303  -1.48373 
 C                     2.9171    3.12221  -0.74877 
 H                     2.87037   2.75405   0.26786 
 H                     2.52093   4.13135  -0.729 
 S                     4.68659   3.19545  -1.16654 
 C                     4.70735   4.45909  -2.47487 
 H                     3.87903   4.29184  -3.15249 
 H                     5.61599   4.28437  -3.03644 
 C                     4.69343   5.88955  -1.94103 
 H                     3.81673   6.05735  -1.32995 
 H                     5.56896   6.05865  -1.32706 
 S                     4.7043    7.0575   -3.33906 
 C                     4.92747   8.6471   -2.48407 
 H                     5.80119   8.57823  -1.84603 
 H                     5.16618   9.35109  -3.27238 
 C                     3.71562   9.13524  -1.69581 
 H                     2.84628   9.22356  -2.33702 
 H                     3.4678    8.46232  -0.8824 
 H                     3.92237   10.11038  -1.2638 
 
 ITRead=  0  0  0  0  0  0  0  0  0  0  0  0  0  0  0  0  0  0  0  0
 ITRead=  0  0  0  0  0  0  0  0  0  0  0  0  0  0  0  0  0  0  0  0
 ITRead=  0  0  0  0  0  0  0  0  0  0
 MicOpt= -1 -1 -1 -1 -1 -1 -1 -1 -1 -1 -1 -1 -1 -1 -1 -1 -1 -1 -1 -1
 MicOpt= -1 -1 -1 -1 -1 -1 -1 -1 -1 -1 -1 -1 -1 -1 -1 -1 -1 -1 -1 -1
 MicOpt= -1 -1 -1 -1 -1 -1 -1 -1 -1 -1
 NAtoms=     50 NQM=       50 NQMF=       0 NMMI=      0 NMMIF=      0
                NMic=       0 NMicF=      0.
                          Input orientation:                          
 ---------------------------------------------------------------------
 Center     Atomic      Atomic             Coordinates (Angstroms)
 Number     Number       Type             X           Y           Z
 ---------------------------------------------------------------------
      1          6           0       -6.410274   -0.107067    3.184008
      2          1           0       -6.552844    0.863639    3.646053
      3          1           0       -6.241887    0.044667    2.123621
      4          1           0       -7.329023   -0.672656    3.308426
      5          6           0       -5.241646   -0.865004    3.798499
      6          1           0       -5.405369   -1.023888    4.862956
      7          1           0       -5.153467   -1.839807    3.335235
      8          8           0       -4.009459   -0.227611    3.592754
      9          6           0       -3.694646    0.799735    4.485121
     10          1           0       -3.593022    0.399622    5.494530
     11          1           0       -4.467606    1.562397    4.501426
     12          6           0       -2.386401    1.440055    4.068501
     13          1           0       -2.063975    2.113280    4.855201
     14          1           0       -1.628000    0.669830    3.955024
     15          8           0       -2.513638    2.205042    2.905403
     16          6           0       -2.243537    1.572686    1.682011
     17          1           0       -2.921926    1.982387    0.944617
     18          1           0       -2.426586    0.507808    1.742249
     19          6           0       -0.811592    1.862676    1.252852
     20          1           0       -0.109891    1.509184    2.005060
     21          1           0       -0.677486    2.932871    1.160850
     22          8           0       -0.543384    1.291908    0.000000
     23          6           0        0.000000    0.000000    0.000000
     24          1           0       -0.367385   -0.500199   -0.885897
     25          1           0       -0.350279   -0.556868    0.866902
     26          6           0        1.525391    0.000000    0.000000
     27          1           0        1.873083   -1.012065    0.178468
     28          1           0        1.904887    0.607079    0.813965
     29         16           0        2.328164    0.468326   -1.562879
     30          6           0        2.052736    2.262812   -1.673374
     31          1           0        2.249051    2.508418   -2.709606
     32          1           0        1.008476    2.463026   -1.483734
     33          6           0        2.917102    3.122212   -0.748768
     34          1           0        2.870370    2.754045    0.267859
     35          1           0        2.520930    4.131351   -0.728996
     36         16           0        4.686592    3.195448   -1.166544
     37          6           0        4.707348    4.459091   -2.474875
     38          1           0        3.879033    4.291842   -3.152491
     39          1           0        5.615992    4.284373   -3.036443
     40          6           0        4.693425    5.889545   -1.941029
     41          1           0        3.816734    6.057354   -1.329953
     42          1           0        5.568961    6.058646   -1.327061
     43         16           0        4.704295    7.057502   -3.339056
     44          6           0        4.927472    8.647100   -2.484069
     45          1           0        5.801188    8.578231   -1.846028
     46          1           0        5.166176    9.351094   -3.272382
     47          6           0        3.715616    9.135238   -1.695812
     48          1           0        2.846281    9.223561   -2.337023
     49          1           0        3.467804    8.462321   -0.882400
     50          1           0        3.922374   10.110380   -1.263798
 ---------------------------------------------------------------------
 Stoichiometry    C14H30O3S3
 Framework group  C1[X(C14H30O3S3)]
 Standard basis: 6-31G(d) (6D, 7F)
   372 basis functions,   752 primitive gaussians,   372 cartesian basis functions
    93 alpha electrons       93 beta electrons
 Requested convergence on RMS density matrix=1.00D-08 within  64 cycles.
 Requested convergence on MAX density matrix=1.00D-06.
 Requested convergence on             energy=1.00D-06.
 SCF Done:  E(RHF) =  -1964.68712942     A.U. after   13 cycles
            NFock= 13  Conv=0.47D-08     -V/T= 2.0006
 Mulliken charges:
     1  C   -0.499375
     2  H    0.165685
     3  H    0.176498
     4  H    0.159065
     5  C    0.013333
     6  H    0.139674
     7  H    0.171623
     8  O   -0.630855
     9  C    0.012163
    10  H    0.135665
    11  H    0.155961
    12  C   -0.003398
    13  H    0.169025
    14  H    0.150078
    15  O   -0.640256
    16  C   -0.010304
    17  H    0.177788
    18  H    0.178569
    19  C   -0.010274
    20  H    0.138614
    21  H    0.177001
    22  O   -0.636031
    23  C    0.014112
    24  H    0.192093
    25  H    0.148902
    26  C   -0.501325
    27  H    0.197850
    28  H    0.190037
    29  S    0.128892
    30  C   -0.482471
    31  H    0.199621
    32  H    0.240036
    33  C   -0.475594
    34  H    0.200886
    35  H    0.193557
    36  S    0.140484
    37  C   -0.501314
    38  H    0.204419
    39  H    0.219336
    40  C   -0.450951
    41  H    0.190170
    42  H    0.200575
    43  S    0.110416
    44  C   -0.475393
    45  H    0.190199
    46  H    0.199562
    47  C   -0.475859
    48  H    0.179452
    49  H    0.164550
    50  H    0.167510
 Sum of Mulliken charges =  -0.00000
 Dipole moment (field-independent basis, Debye):
    X=             -2.9749    Y=              0.3666    Z=              4.5061  Tot=              5.4120
 Quadrupole moment (field-independent basis, Debye-Ang):
   XX=           -154.0385   YY=           -132.4085   ZZ=           -145.9652
   XY=              9.0765   XZ=              0.5216   YZ=              3.2800
 Traceless Quadrupole moment (field-independent basis, Debye-Ang):
   XX=             -9.9011   YY=             11.7289   ZZ=             -1.8278
   XY=              9.0765   XZ=              0.5216   YZ=              3.2800
 Octapole moment (field-independent basis, Debye-Ang**2):
  XXX=           -559.5232  YYY=          -1066.7760  ZZZ=             89.3737  XYY=            -45.1973
  XXY=           -425.3760  XXZ=             77.4282  XZZ=           -224.3339  YZZ=           -458.0180
  YYZ=              3.7680  XYZ=             29.6563
 Hexadecapole moment (field-independent basis, Debye-Ang**3):
 XXXX=         -12649.3545 YYYY=         -12946.1906 ZZZZ=          -5445.7178 XXXY=          -4475.5694
 XXXZ=           3546.8569 YYYX=          -3539.2712 YYYZ=           2030.1611 ZZZX=           3578.0115
 ZZZY=           2416.7148 XXYY=          -4249.2367 XXZZ=          -2990.4685 YYZZ=          -3758.3255
 XXYZ=            780.7292 YYXZ=           1322.3974 ZZXY=          -1736.5165
 Merz-Kollman atomic radii used.
 Atom Element Radius
    1     6    1.50
    2     1    1.20
    3     1    1.20
    4     1    1.20
    5     6    1.50
    6     1    1.20
    7     1    1.20
    8     8    1.40
    9     6    1.50
   10     1    1.20
   11     1    1.20
   12     6    1.50
   13     1    1.20
   14     1    1.20
   15     8    1.40
   16     6    1.50
   17     1    1.20
   18     1    1.20
   19     6    1.50
   20     1    1.20
   21     1    1.20
   22     8    1.40
   23     6    1.50
   24     1    1.20
   25     1    1.20
   26     6    1.50
   27     1    1.20
   28     1    1.20
   29    16    1.75
   30     6    1.50
   31     1    1.20
   32     1    1.20
   33     6    1.50
   34     1    1.20
   35     1    1.20
   36    16    1.75
   37     6    1.50
   38     1    1.20
   39     1    1.20
   40     6    1.50
   41     1    1.20
   42     1    1.20
   43    16    1.75
   44     6    1.50
   45     1    1.20
   46     1    1.20
   47     6    1.50
   48     1    1.20
   49     1    1.20
   50     1    1.20
 Generate VDW surfaces: Layer= 4 Dens= 1 Start= 1.400 Inc= 0.200
            Electrostatic Properties Using The SCF Density.


       Atomic Center    1 is at  -6.410274 -0.107067  3.184008
       Atomic Center    2 is at  -6.552844  0.863639  3.646053
       Atomic Center    3 is at  -6.241887  0.044667  2.123621
       Atomic Center    4 is at  -7.329023 -0.672656  3.308426
       Atomic Center    5 is at  -5.241646 -0.865004  3.798499
       Atomic Center    6 is at  -5.405369 -1.023888  4.862956
       Atomic Center    7 is at  -5.153467 -1.839807  3.335235
       Atomic Center    8 is at  -4.009459 -0.227611  3.592754
       Atomic Center    9 is at  -3.694646  0.799735  4.485121
       Atomic Center   10 is at  -3.593022  0.399622  5.494530
       Atomic Center   11 is at  -4.467606  1.562397  4.501426
       Atomic Center   12 is at  -2.386401  1.440055  4.068501
       Atomic Center   13 is at  -2.063975  2.113280  4.855201
       Atomic Center   14 is at  -1.628000  0.669830  3.955024
       Atomic Center   15 is at  -2.513638  2.205042  2.905403
       Atomic Center   16 is at  -2.243537  1.572686  1.682011
       Atomic Center   17 is at  -2.921926  1.982387  0.944617
       Atomic Center   18 is at  -2.426586  0.507808  1.742249
       Atomic Center   19 is at  -0.811592  1.862676  1.252852
       Atomic Center   20 is at  -0.109891  1.509184  2.005060
       Atomic Center   21 is at  -0.677486  2.932871  1.160850
       Atomic Center   22 is at  -0.543384  1.291908  0.000000
       Atomic Center   23 is at   0.000000  0.000000  0.000000
       Atomic Center   24 is at  -0.367385 -0.500199 -0.885897
       Atomic Center   25 is at  -0.350279 -0.556868  0.866902
       Atomic Center   26 is at   1.525391  0.000000  0.000000
       Atomic Center   27 is at   1.873083 -1.012065  0.178468
       Atomic Center   28 is at   1.904887  0.607079  0.813965
       Atomic Center   29 is at   2.328164  0.468326 -1.562879
       Atomic Center   30 is at   2.052736  2.262812 -1.673374
       Atomic Center   31 is at   2.249051  2.508418 -2.709606
       Atomic Center   32 is at   1.008476  2.463026 -1.483734
       Atomic Center   33 is at   2.917102  3.122212 -0.748768
       Atomic Center   34 is at   2.870370  2.754045  0.267859
       Atomic Center   35 is at   2.520930  4.131351 -0.728996
       Atomic Center   36 is at   4.686592  3.195448 -1.166544
       Atomic Center   37 is at   4.707348  4.459091 -2.474875
       Atomic Center   38 is at   3.879033  4.291842 -3.152491
       Atomic Center   39 is at   5.615992  4.284373 -3.036443
       Atomic Center   40 is at   4.693425  5.889545 -1.941029
       Atomic Center   41 is at   3.816734  6.057354 -1.329953
       Atomic Center   42 is at   5.568961  6.058646 -1.327061
       Atomic Center   43 is at   4.704295  7.057502 -3.339056
       Atomic Center   44 is at   4.927472  8.647100 -2.484069
       Atomic Center   45 is at   5.801188  8.578231 -1.846028
       Atomic Center   46 is at   5.166176  9.351094 -3.272382
       Atomic Center   47 is at   3.715616  9.135238 -1.695812
       Atomic Center   48 is at   2.846281  9.223561 -2.337023
       Atomic Center   49 is at   3.467804  8.462321 -0.882400
       Atomic Center   50 is at   3.922374 10.110380 -1.263798
      ESP Fit Center   51 is at  -7.460274 -0.107067  5.002661
      ESP Fit Center   52 is at  -6.669095  1.693075  2.134008
      ESP Fit Center   53 is at  -7.601239  1.267379  2.134008
      ESP Fit Center   54 is at  -8.155259  0.405307  2.134008
      ESP Fit Center   55 is at  -6.669095 -1.907209  2.134008
      ESP Fit Center   56 is at  -6.552844  0.863639  5.326053
      ESP Fit Center   57 is at  -6.247696  1.802788  5.005202
      ESP Fit Center   58 is at  -7.351731  1.444065  5.005202
      ESP Fit Center   59 is at  -6.275393  2.437140  4.165202
      ESP Fit Center   60 is at  -7.351731  2.247353  4.165202
      ESP Fit Center   61 is at  -8.054261  1.410110  4.165202
      ESP Fit Center   62 is at  -6.275393  2.437140  3.126904
      ESP Fit Center   63 is at  -7.351731  2.247353  3.126904
      ESP Fit Center   64 is at  -8.054261  1.410110  3.126904
      ESP Fit Center   65 is at  -6.247696  1.802788  2.286904
      ESP Fit Center   66 is at  -4.644112  0.044667  1.604472
      ESP Fit Center   67 is at  -5.017920  1.071697  1.604472
      ESP Fit Center   68 is at  -5.964436  1.618168  1.604472
      ESP Fit Center   69 is at  -7.040774  1.428381  1.604472
      ESP Fit Center   70 is at  -7.743304  0.591138  1.604472
      ESP Fit Center   71 is at  -7.743304 -0.501804  1.604472
      ESP Fit Center   72 is at  -7.040774 -1.339047  1.604472
      ESP Fit Center   73 is at  -5.964436 -1.528834  1.604472
      ESP Fit Center   74 is at  -5.017920 -0.982363  1.604472
      ESP Fit Center   75 is at  -5.254408  0.044667  0.764472
      ESP Fit Center   76 is at  -5.936739  0.983816  0.764472
      ESP Fit Center   77 is at  -7.040774  0.625093  0.764472
      ESP Fit Center   78 is at  -7.040774 -0.535759  0.764472
      ESP Fit Center   79 is at  -5.936739 -0.894482  0.764472
      ESP Fit Center   80 is at  -6.241887  0.044667  0.443621
      ESP Fit Center   81 is at  -7.329023 -0.672656  4.988426
      ESP Fit Center   82 is at  -8.127910 -0.092230  4.667575
      ESP Fit Center   83 is at  -8.127910 -1.253082  4.667575
      ESP Fit Center   84 is at  -7.023875 -1.611805  4.667575
      ESP Fit Center   85 is at  -8.830440 -0.126185  3.827575
      ESP Fit Center   86 is at  -8.830440 -1.219127  3.827575
      ESP Fit Center   87 is at  -8.127910 -2.056370  3.827575
      ESP Fit Center   88 is at  -7.051572 -2.246157  3.827575
      ESP Fit Center   89 is at  -8.830440 -0.126185  2.789277
      ESP Fit Center   90 is at  -8.830440 -1.219127  2.789277
      ESP Fit Center   91 is at  -8.127910 -2.056370  2.789277
      ESP Fit Center   92 is at  -7.051572 -2.246157  2.789277
      ESP Fit Center   93 is at  -8.127910 -0.092230  1.949277
      ESP Fit Center   94 is at  -8.127910 -1.253082  1.949277
      ESP Fit Center   95 is at  -4.486150 -2.519309  4.848499
      ESP Fit Center   96 is at  -3.711697 -1.848242  4.848499
      ESP Fit Center   97 is at  -6.813519 -2.257562  3.798499
      ESP Fit Center   98 is at  -5.405369 -1.023888  6.542956
      ESP Fit Center   99 is at  -4.417890 -1.023888  6.222105
      ESP Fit Center  100 is at  -5.100221 -0.084739  6.222105
      ESP Fit Center  101 is at  -6.204256 -0.443462  6.222105
      ESP Fit Center  102 is at  -6.204256 -1.604314  6.222105
      ESP Fit Center  103 is at  -5.100221 -1.963037  6.222105
      ESP Fit Center  104 is at  -6.204256  0.359826  5.382105
      ESP Fit Center  105 is at  -6.906786 -0.477417  5.382105
      ESP Fit Center  106 is at  -6.906786 -1.570359  5.382105
      ESP Fit Center  107 is at  -6.204256 -2.407602  5.382105
      ESP Fit Center  108 is at  -5.127918 -2.597389  5.382105
      ESP Fit Center  109 is at  -4.181402 -2.050918  5.382105
      ESP Fit Center  110 is at  -4.848319 -2.778956  4.694384
      ESP Fit Center  111 is at  -5.952354 -3.223521  3.854384
      ESP Fit Center  112 is at  -4.876016 -3.413308  3.854384
      ESP Fit Center  113 is at  -3.929500 -2.866837  3.854384
      ESP Fit Center  114 is at  -6.654884 -2.386278  2.816086
      ESP Fit Center  115 is at  -5.952354 -3.223521  2.816086
      ESP Fit Center  116 is at  -4.876016 -3.413308  2.816086
      ESP Fit Center  117 is at  -3.929500 -2.866837  2.816086
      ESP Fit Center  118 is at  -4.165988 -1.839807  1.976086
      ESP Fit Center  119 is at  -5.952354 -2.420233  1.976086
      ESP Fit Center  120 is at  -4.848319 -2.778956  1.976086
      ESP Fit Center  121 is at  -5.153467 -1.839807  1.655235
      ESP Fit Center  122 is at  -3.484931 -1.841944  4.572754
      ESP Fit Center  123 is at  -2.636226 -1.225323  4.572754
      ESP Fit Center  124 is at  -3.029459 -1.925021  3.592754
      ESP Fit Center  125 is at  -2.312049 -1.207611  3.592754
      ESP Fit Center  126 is at  -4.533987  1.386722  2.612754
      ESP Fit Center  127 is at  -3.484931 -1.841944  2.612754
      ESP Fit Center  128 is at  -2.636226 -1.225323  2.612754
      ESP Fit Center  129 is at  -4.499459  0.621094  1.895344
      ESP Fit Center  130 is at  -3.519459 -1.076316  1.895344
      ESP Fit Center  131 is at  -4.009459 -0.227611  1.632754
      ESP Fit Center  132 is at  -3.593022  0.399622  7.174530
      ESP Fit Center  133 is at  -2.605543  0.399622  6.853679
      ESP Fit Center  134 is at  -3.287874  1.338771  6.853679
      ESP Fit Center  135 is at  -4.391909  0.980048  6.853679
      ESP Fit Center  136 is at  -4.391909 -0.180804  6.853679
      ESP Fit Center  137 is at  -3.287874 -0.539527  6.853679
      ESP Fit Center  138 is at  -1.995247  0.399622  6.013679
      ESP Fit Center  139 is at  -3.315571 -1.173879  6.013679
      ESP Fit Center  140 is at  -2.369055 -0.627408  6.013679
      ESP Fit Center  141 is at  -4.162458  2.501546  5.860575
      ESP Fit Center  142 is at  -5.266493  2.142823  5.860575
      ESP Fit Center  143 is at  -4.190155  3.135898  5.020575
      ESP Fit Center  144 is at  -5.266493  2.946111  5.020575
      ESP Fit Center  145 is at  -5.969023  2.108868  5.020575
      ESP Fit Center  146 is at  -4.190155  3.135898  3.982277
      ESP Fit Center  147 is at  -5.266493  2.946111  3.982277
      ESP Fit Center  148 is at  -5.266493  2.142823  3.142277
      ESP Fit Center  149 is at  -1.861401  0.530728  5.887154
      ESP Fit Center  150 is at  -0.526943  2.415974  4.068501
      ESP Fit Center  151 is at  -2.063975  2.113280  6.535201
      ESP Fit Center  152 is at  -1.076496  2.113280  6.214350
      ESP Fit Center  153 is at  -1.758827  3.052429  6.214350
      ESP Fit Center  154 is at  -2.862862  2.693706  6.214350
      ESP Fit Center  155 is at  -1.758827  1.174131  6.214350
      ESP Fit Center  156 is at  -0.466200  2.113280  5.374350
      ESP Fit Center  157 is at  -0.840008  3.140310  5.374350
      ESP Fit Center  158 is at  -1.786524  3.686781  5.374350
      ESP Fit Center  159 is at  -2.862862  3.496994  5.374350
      ESP Fit Center  160 is at  -0.840008  3.140310  4.336052
      ESP Fit Center  161 is at  -1.786524  3.686781  4.336052
      ESP Fit Center  162 is at  -0.640521  0.669830  5.314173
      ESP Fit Center  163 is at  -1.322852 -0.269319  5.314173
      ESP Fit Center  164 is at  -0.030225  0.669830  4.474173
      ESP Fit Center  165 is at  -1.350549 -0.903671  4.474173
      ESP Fit Center  166 is at  -0.404033 -0.357200  4.474173
      ESP Fit Center  167 is at  -1.350549 -0.903671  3.435875
      ESP Fit Center  168 is at  -0.404033 -0.357200  3.435875
      ESP Fit Center  169 is at  -1.140405  3.202754  3.885403
      ESP Fit Center  170 is at  -1.989110  3.819375  3.885403
      ESP Fit Center  171 is at  -3.038166  3.819375  3.885403
      ESP Fit Center  172 is at  -3.886871  3.202754  3.885403
      ESP Fit Center  173 is at  -0.816228  3.185042  2.905403
      ESP Fit Center  174 is at  -1.533638  3.902452  2.905403
      ESP Fit Center  175 is at  -2.513638  4.165042  2.905403
      ESP Fit Center  176 is at  -3.493638  3.902452  2.905403
      ESP Fit Center  177 is at  -4.211048  3.185042  2.905403
      ESP Fit Center  178 is at  -4.473638  2.205042  2.905403
      ESP Fit Center  179 is at  -1.989110  3.819375  1.925403
      ESP Fit Center  180 is at  -3.038166  3.819375  1.925403
      ESP Fit Center  181 is at  -3.886871  3.202754  1.925403
      ESP Fit Center  182 is at  -4.282515  1.070123  1.682011
      ESP Fit Center  183 is at  -2.768537  0.663359 -0.136642
      ESP Fit Center  184 is at  -3.720813  3.366101  1.463766
      ESP Fit Center  185 is at  -4.423343  2.528858  1.463766
      ESP Fit Center  186 is at  -4.423343  1.435916  1.463766
      ESP Fit Center  187 is at  -2.644475  3.555888  0.425468
      ESP Fit Center  188 is at  -3.720813  3.366101  0.425468
      ESP Fit Center  189 is at  -4.423343  2.528858  0.425468
      ESP Fit Center  190 is at  -4.423343  1.435916  0.425468
      ESP Fit Center  191 is at  -3.720813  0.598673  0.425468
      ESP Fit Center  192 is at  -2.616778  2.921536 -0.414532
      ESP Fit Center  193 is at  -3.720813  2.562813 -0.414532
      ESP Fit Center  194 is at  -3.720813  1.401961 -0.414532
      ESP Fit Center  195 is at  -2.616778  1.043238 -0.414532
      ESP Fit Center  196 is at  -2.921926  1.982387 -0.735383
      ESP Fit Center  197 is at  -2.149135 -1.065693  2.261398
      ESP Fit Center  198 is at  -3.928003 -0.038663  1.223100
      ESP Fit Center  199 is at  -3.225473 -0.875906  1.223100
      ESP Fit Center  200 is at  -2.149135 -1.065693  1.223100
      ESP Fit Center  201 is at  -3.225473 -0.072618  0.383100
      ESP Fit Center  202 is at  -2.121438 -0.431341  0.383100
      ESP Fit Center  203 is at   1.047866  2.838595  1.252852
      ESP Fit Center  204 is at   0.718357  2.845914  0.202852
      ESP Fit Center  205 is at  -0.109891  1.509184  3.685060
      ESP Fit Center  206 is at   0.877588  1.509184  3.364209
      ESP Fit Center  207 is at   0.195257  2.448333  3.364209
      ESP Fit Center  208 is at   0.195257  0.570035  3.364209
      ESP Fit Center  209 is at   1.487884  1.509184  2.524209
      ESP Fit Center  210 is at   1.114076  2.536214  2.524209
      ESP Fit Center  211 is at  -0.908778  0.125470  2.524209
      ESP Fit Center  212 is at   0.167560 -0.064317  2.524209
      ESP Fit Center  213 is at   1.114076  0.482154  2.524209
      ESP Fit Center  214 is at  -0.372338  3.872020  2.519999
      ESP Fit Center  215 is at   0.546481  3.959901  1.679999
      ESP Fit Center  216 is at  -0.400035  4.506372  1.679999
      ESP Fit Center  217 is at  -1.476373  4.316585  1.679999
      ESP Fit Center  218 is at   0.920289  2.932871  0.641701
      ESP Fit Center  219 is at   0.546481  3.959901  0.641701
      ESP Fit Center  220 is at  -0.400035  4.506372  0.641701
      ESP Fit Center  221 is at  -1.476373  4.316585  0.641701
      ESP Fit Center  222 is at  -2.178903  3.479342  0.641701
      ESP Fit Center  223 is at  -0.372338  3.872020 -0.198299
      ESP Fit Center  224 is at  -1.476373  3.513297 -0.198299
      ESP Fit Center  225 is at  -2.240794  0.311908  0.000000
      ESP Fit Center  226 is at  -1.067912  2.906241 -0.980000
      ESP Fit Center  227 is at  -1.916617  2.289620 -0.980000
      ESP Fit Center  228 is at  -2.240794  1.291908 -0.980000
      ESP Fit Center  229 is at  -1.916617  0.294196 -0.980000
      ESP Fit Center  230 is at  -1.033384  2.140613 -1.697410
      ESP Fit Center  231 is at  -1.523384  1.291908 -1.697410
      ESP Fit Center  232 is at  -0.543384  1.291908 -1.960000
      ESP Fit Center  233 is at  -2.038978 -0.502563  0.000000
      ESP Fit Center  234 is at  -1.571873 -1.392558  0.000000
      ESP Fit Center  235 is at  -0.744670 -1.963534  0.000000
      ESP Fit Center  236 is at   0.253127 -2.084689  0.000000
      ESP Fit Center  237 is at  -1.868802 -1.046670 -0.366748
      ESP Fit Center  238 is at  -1.166272 -1.883913 -0.366748
      ESP Fit Center  239 is at  -0.089934 -2.073700 -0.366748
      ESP Fit Center  240 is at  -1.868802  0.046272 -1.405046
      ESP Fit Center  241 is at  -1.868802 -1.046670 -1.405046
      ESP Fit Center  242 is at  -1.166272 -1.883913 -1.405046
      ESP Fit Center  243 is at  -0.089934 -2.073700 -1.405046
      ESP Fit Center  244 is at   0.856582 -1.527229 -1.405046
      ESP Fit Center  245 is at  -0.062237  0.438950 -2.245046
      ESP Fit Center  246 is at  -1.166272  0.080227 -2.245046
      ESP Fit Center  247 is at  -1.166272 -1.080625 -2.245046
      ESP Fit Center  248 is at  -0.062237 -1.439348 -2.245046
      ESP Fit Center  249 is at  -0.367385 -0.500199 -2.565897
      ESP Fit Center  250 is at  -0.350279 -0.556868  2.546902
      ESP Fit Center  251 is at   0.637200 -0.556868  2.226051
      ESP Fit Center  252 is at  -1.149166 -1.137294  2.226051
      ESP Fit Center  253 is at  -0.045131 -1.496017  2.226051
      ESP Fit Center  254 is at  -1.851696 -1.103339  1.386051
      ESP Fit Center  255 is at  -1.149166 -1.940582  1.386051
      ESP Fit Center  256 is at  -0.072828 -2.130369  1.386051
      ESP Fit Center  257 is at  -1.851696 -1.103339  0.347753
      ESP Fit Center  258 is at  -1.149166 -1.940582  0.347753
      ESP Fit Center  259 is at  -0.072828 -2.130369  0.347753
      ESP Fit Center  260 is at   1.000391 -0.909327  1.818653
      ESP Fit Center  261 is at   1.873083 -1.012065  1.858468
      ESP Fit Center  262 is at   2.860562 -1.012065  1.537617
      ESP Fit Center  263 is at   1.074196 -1.592491  1.537617
      ESP Fit Center  264 is at   2.178231 -1.951214  1.537617
      ESP Fit Center  265 is at   3.470858 -1.012065  0.697617
      ESP Fit Center  266 is at   1.074196 -2.395779  0.697617
      ESP Fit Center  267 is at   2.150534 -2.585566  0.697617
      ESP Fit Center  268 is at   3.097050 -2.039095  0.697617
      ESP Fit Center  269 is at   1.074196 -2.395779 -0.340681
      ESP Fit Center  270 is at   2.150534 -2.585566 -0.340681
      ESP Fit Center  271 is at   3.097050 -2.039095 -0.340681
      ESP Fit Center  272 is at   2.178231 -1.951214 -1.180681
      ESP Fit Center  273 is at   1.904887  0.607079  2.493965
      ESP Fit Center  274 is at   2.892366  0.607079  2.173114
      ESP Fit Center  275 is at   2.210035  1.546228  2.173114
      ESP Fit Center  276 is at   1.106000  0.026653  2.173114
      ESP Fit Center  277 is at   2.210035 -0.332070  2.173114
      ESP Fit Center  278 is at   3.502662  0.607079  1.333114
      ESP Fit Center  279 is at   3.128854 -0.419951  1.333114
      ESP Fit Center  280 is at   4.243651  0.468326 -0.035329
      ESP Fit Center  281 is at   3.939574 -0.567265 -0.035329
      ESP Fit Center  282 is at   4.716737  0.468326 -1.017703
      ESP Fit Center  283 is at   2.859672 -1.860361 -1.017703
      ESP Fit Center  284 is at   3.817415 -1.399136 -1.017703
      ESP Fit Center  285 is at   4.480194 -0.568037 -1.017703
      ESP Fit Center  286 is at   4.716737  0.468326 -2.108055
      ESP Fit Center  287 is at   0.838913 -1.399136 -2.108055
      ESP Fit Center  288 is at   1.796656 -1.860361 -2.108055
      ESP Fit Center  289 is at   2.859672 -1.860361 -2.108055
      ESP Fit Center  290 is at   3.817415 -1.399136 -2.108055
      ESP Fit Center  291 is at   4.480194 -0.568037 -2.108055
      ESP Fit Center  292 is at   4.243651  0.468326 -3.090429
      ESP Fit Center  293 is at   3.939574  1.503917 -3.090429
      ESP Fit Center  294 is at   0.490268  1.007981 -3.090429
      ESP Fit Center  295 is at   0.490268 -0.071329 -3.090429
      ESP Fit Center  296 is at   1.073787 -0.979303 -3.090429
      ESP Fit Center  297 is at   2.055562 -1.427664 -3.090429
      ESP Fit Center  298 is at   3.123886 -1.274062 -3.090429
      ESP Fit Center  299 is at   3.939574 -0.567265 -3.090429
      ESP Fit Center  300 is at   3.391179  0.468326 -3.770253
      ESP Fit Center  301 is at   1.265149  0.468326 -3.770253
      ESP Fit Center  302 is at   1.796656 -0.452272 -3.770253
      ESP Fit Center  303 is at   2.859672 -0.452272 -3.770253
      ESP Fit Center  304 is at   2.328164  0.468326 -4.012879
      ESP Fit Center  305 is at   0.861771  3.637258 -2.723374
      ESP Fit Center  306 is at   1.450164  3.892132 -3.228755
      ESP Fit Center  307 is at   0.747634  3.054889 -3.228755
      ESP Fit Center  308 is at   3.236530  2.508418 -4.068755
      ESP Fit Center  309 is at   2.554199  3.447567 -4.068755
      ESP Fit Center  310 is at   1.450164  3.088844 -4.068755
      ESP Fit Center  311 is at   1.450164  1.927992 -4.068755
      ESP Fit Center  312 is at   2.554199  1.569269 -4.068755
      ESP Fit Center  313 is at   2.249051  2.508418 -4.389606
      ESP Fit Center  314 is at   0.209589  3.846740 -0.964585
      ESP Fit Center  315 is at  -0.492941  3.009497 -0.964585
      ESP Fit Center  316 is at   0.209589  3.846740 -2.002883
      ESP Fit Center  317 is at  -0.492941  3.009497 -2.002883
      ESP Fit Center  318 is at  -0.492941  1.916555 -2.002883
      ESP Fit Center  319 is at   0.209589  3.043452 -2.842883
      ESP Fit Center  320 is at   0.209589  1.882600 -2.842883
      ESP Fit Center  321 is at   1.172117  3.634586  0.301232
      ESP Fit Center  322 is at   1.172117  2.609838  0.301232
      ESP Fit Center  323 is at   2.870370  2.754045  1.947859
      ESP Fit Center  324 is at   3.857849  2.754045  1.627008
      ESP Fit Center  325 is at   3.175518  3.693194  1.627008
      ESP Fit Center  326 is at   2.071483  3.334471  1.627008
      ESP Fit Center  327 is at   2.071483  2.173619  1.627008
      ESP Fit Center  328 is at   3.175518  1.814896  1.627008
      ESP Fit Center  329 is at   1.368953  3.300516  0.787008
      ESP Fit Center  330 is at   1.368953  2.207574  0.787008
      ESP Fit Center  331 is at   4.094337  1.727015  0.787008
      ESP Fit Center  332 is at   2.826078  5.070500  0.630153
      ESP Fit Center  333 is at   1.722043  4.711777  0.630153
      ESP Fit Center  334 is at   1.722043  5.515065 -0.209847
      ESP Fit Center  335 is at   1.019513  4.677822 -0.209847
      ESP Fit Center  336 is at   1.722043  5.515065 -1.248145
      ESP Fit Center  337 is at   1.019513  4.677822 -1.248145
      ESP Fit Center  338 is at   1.722043  4.711777 -2.088145
      ESP Fit Center  339 is at   4.686592  3.195448  1.283456
      ESP Fit Center  340 is at   5.749607  3.195448  1.040830
      ESP Fit Center  341 is at   5.218100  4.116046  1.040830
      ESP Fit Center  342 is at   4.155084  4.116046  1.040830
      ESP Fit Center  343 is at   5.218100  2.274850  1.040830
      ESP Fit Center  344 is at   6.602079  3.195448  0.361006
      ESP Fit Center  345 is at   6.298002  4.231039  0.361006
      ESP Fit Center  346 is at   5.482314  4.937836  0.361006
      ESP Fit Center  347 is at   4.413990  5.091438  0.361006
      ESP Fit Center  348 is at   4.413990  1.299458  0.361006
      ESP Fit Center  349 is at   5.482314  1.453060  0.361006
      ESP Fit Center  350 is at   6.298002  2.159857  0.361006
      ESP Fit Center  351 is at   7.075165  3.195448 -0.621368
      ESP Fit Center  352 is at   6.838622  4.231811 -0.621368
      ESP Fit Center  353 is at   5.218100  0.866761 -0.621368
      ESP Fit Center  354 is at   6.175843  1.327986 -0.621368
      ESP Fit Center  355 is at   6.838622  2.159085 -0.621368
      ESP Fit Center  356 is at   7.075165  3.195448 -1.711720
      ESP Fit Center  357 is at   6.838622  4.231811 -1.711720
      ESP Fit Center  358 is at   5.218100  0.866761 -1.711720
      ESP Fit Center  359 is at   6.175843  1.327986 -1.711720
      ESP Fit Center  360 is at   6.838622  2.159085 -1.711720
      ESP Fit Center  361 is at   4.413990  1.299458 -2.694094
      ESP Fit Center  362 is at   5.482314  1.453060 -2.694094
      ESP Fit Center  363 is at   6.298002  2.159857 -2.694094
      ESP Fit Center  364 is at   4.155084  2.274850 -3.373918
      ESP Fit Center  365 is at   5.218100  2.274850 -3.373918
      ESP Fit Center  366 is at   2.377616  4.838313 -2.633342
      ESP Fit Center  367 is at   2.377616  4.838313 -3.671640
      ESP Fit Center  368 is at   4.156484  2.718341 -3.671640
      ESP Fit Center  369 is at   3.080146  4.872268 -4.511640
      ESP Fit Center  370 is at   3.080146  3.711416 -4.511640
      ESP Fit Center  371 is at   4.184181  3.352693 -4.511640
      ESP Fit Center  372 is at   3.879033  4.291842 -4.832491
      ESP Fit Center  373 is at   7.213767  4.284373 -2.517294
      ESP Fit Center  374 is at   6.839959  5.311403 -2.517294
      ESP Fit Center  375 is at   6.839959  3.257343 -2.517294
      ESP Fit Center  376 is at   7.213767  4.284373 -3.555592
      ESP Fit Center  377 is at   6.839959  5.311403 -3.555592
      ESP Fit Center  378 is at   5.893443  2.710872 -3.555592
      ESP Fit Center  379 is at   6.839959  3.257343 -3.555592
      ESP Fit Center  380 is at   6.603471  4.284373 -4.395592
      ESP Fit Center  381 is at   5.921140  3.345224 -4.395592
      ESP Fit Center  382 is at   5.615992  4.284373 -4.716443
      ESP Fit Center  383 is at   4.693425  5.889545  0.158971
      ESP Fit Center  384 is at   3.816734  6.057354  0.350047
      ESP Fit Center  385 is at   4.121882  6.996503  0.029196
      ESP Fit Center  386 is at   3.017847  6.637780  0.029196
      ESP Fit Center  387 is at   2.315317  6.603825 -0.810804
      ESP Fit Center  388 is at   2.315317  6.603825 -1.849102
      ESP Fit Center  389 is at   2.315317  5.510883 -1.849102
      ESP Fit Center  390 is at   5.568961  6.058646  0.352939
      ESP Fit Center  391 is at   6.556440  6.058646  0.032088
      ESP Fit Center  392 is at   5.874109  6.997795  0.032088
      ESP Fit Center  393 is at   4.770074  6.639072  0.032088
      ESP Fit Center  394 is at   5.874109  5.119497  0.032088
      ESP Fit Center  395 is at   7.166736  6.058646 -0.807912
      ESP Fit Center  396 is at   6.792928  7.085676 -0.807912
      ESP Fit Center  397 is at   6.792928  5.031616 -0.807912
      ESP Fit Center  398 is at   7.166736  6.058646 -1.846210
      ESP Fit Center  399 is at   6.792928  7.085676 -1.846210
      ESP Fit Center  400 is at   6.792928  5.031616 -1.846210
      ESP Fit Center  401 is at   7.092868  7.057502 -2.793880
      ESP Fit Center  402 is at   2.315722  7.057502 -2.793880
      ESP Fit Center  403 is at   2.552265  6.021139 -2.793880
      ESP Fit Center  404 is at   6.856325  6.021139 -2.793880
      ESP Fit Center  405 is at   7.092868  7.057502 -3.884232
      ESP Fit Center  406 is at   6.856325  8.093865 -3.884232
      ESP Fit Center  407 is at   2.552265  8.093865 -3.884232
      ESP Fit Center  408 is at   2.315722  7.057502 -3.884232
      ESP Fit Center  409 is at   2.552265  6.021139 -3.884232
      ESP Fit Center  410 is at   6.856325  6.021139 -3.884232
      ESP Fit Center  411 is at   6.619782  7.057502 -4.866606
      ESP Fit Center  412 is at   6.315705  8.093093 -4.866606
      ESP Fit Center  413 is at   5.500017  8.799890 -4.866606
      ESP Fit Center  414 is at   4.431693  8.953492 -4.866606
      ESP Fit Center  415 is at   3.449918  8.505131 -4.866606
      ESP Fit Center  416 is at   2.866399  7.597157 -4.866606
      ESP Fit Center  417 is at   2.866399  6.517847 -4.866606
      ESP Fit Center  418 is at   3.449918  5.609873 -4.866606
      ESP Fit Center  419 is at   4.431693  5.161512 -4.866606
      ESP Fit Center  420 is at   5.500017  5.315114 -4.866606
      ESP Fit Center  421 is at   6.315705  6.021911 -4.866606
      ESP Fit Center  422 is at   5.767310  7.057502 -5.546430
      ESP Fit Center  423 is at   5.235803  7.978100 -5.546430
      ESP Fit Center  424 is at   4.172787  7.978100 -5.546430
      ESP Fit Center  425 is at   3.641280  7.057502 -5.546430
      ESP Fit Center  426 is at   4.172787  6.136904 -5.546430
      ESP Fit Center  427 is at   5.235803  6.136904 -5.546430
      ESP Fit Center  428 is at   4.704295  7.057502 -5.789056
      ESP Fit Center  429 is at   5.682968 10.301405 -1.434069
      ESP Fit Center  430 is at   6.746125  8.647100 -3.534069
      ESP Fit Center  431 is at   5.801188  8.578231 -0.166028
      ESP Fit Center  432 is at   6.788667  8.578231 -0.486879
      ESP Fit Center  433 is at   6.106336  9.517380 -0.486879
      ESP Fit Center  434 is at   6.106336  7.639082 -0.486879
      ESP Fit Center  435 is at   7.398963  8.578231 -1.326879
      ESP Fit Center  436 is at   7.025155  9.605261 -1.326879
      ESP Fit Center  437 is at   6.078639 10.151732 -1.326879
      ESP Fit Center  438 is at   7.025155  7.551201 -1.326879
      ESP Fit Center  439 is at   7.398963  8.578231 -2.365177
      ESP Fit Center  440 is at   7.025155  9.605261 -2.365177
      ESP Fit Center  441 is at   7.025155  7.551201 -2.365177
      ESP Fit Center  442 is at   6.390143 10.378124 -2.753233
      ESP Fit Center  443 is at   5.443627 10.924595 -2.753233
      ESP Fit Center  444 is at   6.763951  9.351094 -3.791531
      ESP Fit Center  445 is at   6.390143 10.378124 -3.791531
      ESP Fit Center  446 is at   5.443627 10.924595 -3.791531
      ESP Fit Center  447 is at   4.367289 10.734808 -3.791531
      ESP Fit Center  448 is at   3.664759  9.897565 -3.791531
      ESP Fit Center  449 is at   6.153655  9.351094 -4.631531
      ESP Fit Center  450 is at   5.471324 10.290243 -4.631531
      ESP Fit Center  451 is at   4.367289  9.931520 -4.631531
      ESP Fit Center  452 is at   5.166176  9.351094 -4.952382
      ESP Fit Center  453 is at   4.765616  9.135238  0.122841
      ESP Fit Center  454 is at   1.970631  9.647612 -0.645812
      ESP Fit Center  455 is at   2.143743  7.742680 -1.695812
      ESP Fit Center  456 is at   4.471112 10.789543 -2.745812
      ESP Fit Center  457 is at   3.456795 10.935380 -2.745812
      ESP Fit Center  458 is at   2.047394 10.607275 -1.817874
      ESP Fit Center  459 is at   1.344864  9.770032 -1.817874
      ESP Fit Center  460 is at   1.344864  8.677090 -1.817874
      ESP Fit Center  461 is at   2.047394  7.839847 -1.817874
      ESP Fit Center  462 is at   3.123732 10.797062 -2.856172
      ESP Fit Center  463 is at   2.047394 10.607275 -2.856172
      ESP Fit Center  464 is at   1.344864  9.770032 -2.856172
      ESP Fit Center  465 is at   1.344864  8.677090 -2.856172
      ESP Fit Center  466 is at   2.047394  7.839847 -2.856172
      ESP Fit Center  467 is at   3.151429 10.162710 -3.696172
      ESP Fit Center  468 is at   2.047394  9.803987 -3.696172
      ESP Fit Center  469 is at   2.047394  8.643135 -3.696172
      ESP Fit Center  470 is at   2.846281  9.223561 -4.017023
      ESP Fit Center  471 is at   3.467804  8.462321  0.797600
      ESP Fit Center  472 is at   4.455283  8.462321  0.476749
      ESP Fit Center  473 is at   3.772952  9.401470  0.476749
      ESP Fit Center  474 is at   2.668917  9.042747  0.476749
      ESP Fit Center  475 is at   2.668917  7.881895  0.476749
      ESP Fit Center  476 is at   3.772952  7.523172  0.476749
      ESP Fit Center  477 is at   1.966387  9.008792 -0.363251
      ESP Fit Center  478 is at   1.966387  7.915850 -0.363251
      ESP Fit Center  479 is at   2.668917  7.078607 -0.363251
      ESP Fit Center  480 is at   4.691771  7.435291 -0.363251
      ESP Fit Center  481 is at   1.966387  7.915850 -1.401549
      ESP Fit Center  482 is at   3.922374 10.110380  0.416202
      ESP Fit Center  483 is at   4.909853 10.110380  0.095351
      ESP Fit Center  484 is at   4.227522 11.049529  0.095351
      ESP Fit Center  485 is at   3.123487 10.690806  0.095351
      ESP Fit Center  486 is at   5.520149 10.110380 -0.744649
      ESP Fit Center  487 is at   5.146341 11.137410 -0.744649
      ESP Fit Center  488 is at   4.199825 11.683881 -0.744649
      ESP Fit Center  489 is at   3.123487 11.494094 -0.744649
      ESP Fit Center  490 is at   2.420957 10.656851 -0.744649
      ESP Fit Center  491 is at   5.146341 11.137410 -1.782947
      ESP Fit Center  492 is at   4.199825 11.683881 -1.782947
      ESP Fit Center  493 is at   3.123487 11.494094 -1.782947
      ESP Fit Center  494 is at   4.227522 11.049529 -2.622947
      ESP Fit Center  495 is at  -7.451595 -0.107067  5.346333
      ESP Fit Center  496 is at  -8.210662  0.421575  4.680384
      ESP Fit Center  497 is at  -8.518385  0.908146  3.718058
      ESP Fit Center  498 is at  -4.951416  1.722283  2.649958
      ESP Fit Center  499 is at  -8.518385  0.908146  2.649958
      ESP Fit Center  500 is at  -7.639052  1.311018  1.687632
      ESP Fit Center  501 is at  -8.210662  0.421575  1.687632
      ESP Fit Center  502 is at  -6.677313 -1.964364  1.687632
      ESP Fit Center  503 is at  -6.552844  0.863639  5.566053
      ESP Fit Center  504 is at  -7.032844  1.695023  5.308822
      ESP Fit Center  505 is at  -7.512844  0.863639  5.308822
      ESP Fit Center  506 is at  -7.066668  2.445026  4.606053
      ESP Fit Center  507 is at  -7.898052  1.840990  4.606053
      ESP Fit Center  508 is at  -8.215613  0.863639  4.606053
      ESP Fit Center  509 is at  -6.552844  2.783639  3.646053
      ESP Fit Center  510 is at  -7.512844  2.526408  3.646053
      ESP Fit Center  511 is at  -8.215613  1.823639  3.646053
      ESP Fit Center  512 is at  -6.039020  2.445026  2.686053
      ESP Fit Center  513 is at  -7.066668  2.445026  2.686053
      ESP Fit Center  514 is at  -7.898052  1.840990  2.686053
      ESP Fit Center  515 is at  -4.579118  0.044667  1.163621
      ESP Fit Center  516 is at  -4.896679  1.022018  1.163621
      ESP Fit Center  517 is at  -5.728063  1.626054  1.163621
      ESP Fit Center  518 is at  -6.755711  1.626054  1.163621
      ESP Fit Center  519 is at  -7.587095  1.022018  1.163621
      ESP Fit Center  520 is at  -7.904656  0.044667  1.163621
      ESP Fit Center  521 is at  -7.587095 -0.932684  1.163621
      ESP Fit Center  522 is at  -6.755711 -1.536720  1.163621
      ESP Fit Center  523 is at  -5.728063 -1.536720  1.163621
      ESP Fit Center  524 is at  -4.896679 -0.932684  1.163621
      ESP Fit Center  525 is at  -5.281887  0.044667  0.460852
      ESP Fit Center  526 is at  -5.761887  0.876051  0.460852
      ESP Fit Center  527 is at  -6.721887  0.876051  0.460852
      ESP Fit Center  528 is at  -7.201887  0.044667  0.460852
      ESP Fit Center  529 is at  -6.721887 -0.786717  0.460852
      ESP Fit Center  530 is at  -5.761887 -0.786717  0.460852
      ESP Fit Center  531 is at  -6.241887  0.044667  0.203621
      ESP Fit Center  532 is at  -8.289023 -0.672656  4.971195
      ESP Fit Center  533 is at  -7.809023 -1.504040  4.971195
      ESP Fit Center  534 is at  -8.674231  0.304695  4.268426
      ESP Fit Center  535 is at  -8.991792 -0.672656  4.268426
      ESP Fit Center  536 is at  -8.674231 -1.650007  4.268426
      ESP Fit Center  537 is at  -7.842847 -2.254043  4.268426
      ESP Fit Center  538 is at  -8.991792  0.287344  3.308426
      ESP Fit Center  539 is at  -9.249023 -0.672656  3.308426
      ESP Fit Center  540 is at  -8.991792 -1.632656  3.308426
      ESP Fit Center  541 is at  -8.289023 -2.335425  3.308426
      ESP Fit Center  542 is at  -7.329023 -2.592656  3.308426
      ESP Fit Center  543 is at  -8.674231  0.304695  2.348426
      ESP Fit Center  544 is at  -8.991792 -0.672656  2.348426
      ESP Fit Center  545 is at  -8.674231 -1.650007  2.348426
      ESP Fit Center  546 is at  -7.842847 -2.254043  2.348426
      ESP Fit Center  547 is at  -8.289023 -0.672656  1.645657
      ESP Fit Center  548 is at  -7.809023 -1.504040  1.645657
      ESP Fit Center  549 is at  -3.663122 -1.879460  5.294875
      ESP Fit Center  550 is at  -6.700504 -2.694354  4.332549
      ESP Fit Center  551 is at  -5.405369 -1.023888  6.782956
      ESP Fit Center  552 is at  -4.445369 -1.023888  6.525725
      ESP Fit Center  553 is at  -5.885369 -0.192504  6.525725
      ESP Fit Center  554 is at  -6.365369 -1.023888  6.525725
      ESP Fit Center  555 is at  -5.885369 -1.855272  6.525725
      ESP Fit Center  556 is at  -4.925369 -1.855272  6.525725
      ESP Fit Center  557 is at  -5.919193  0.557499  5.822956
      ESP Fit Center  558 is at  -6.750577 -0.046537  5.822956
      ESP Fit Center  559 is at  -7.068138 -1.023888  5.822956
      ESP Fit Center  560 is at  -6.750577 -2.001239  5.822956
      ESP Fit Center  561 is at  -5.919193 -2.605275  5.822956
      ESP Fit Center  562 is at  -4.891545 -2.605275  5.822956
      ESP Fit Center  563 is at  -4.060161 -2.001239  5.822956
      ESP Fit Center  564 is at  -5.667291 -3.421194  4.295235
      ESP Fit Center  565 is at  -4.639643 -3.421194  4.295235
      ESP Fit Center  566 is at  -3.808259 -2.817158  4.295235
      ESP Fit Center  567 is at  -6.816236 -2.799807  3.335235
      ESP Fit Center  568 is at  -6.113467 -3.502576  3.335235
      ESP Fit Center  569 is at  -5.153467 -3.759807  3.335235
      ESP Fit Center  570 is at  -4.193467 -3.502576  3.335235
      ESP Fit Center  571 is at  -3.490698 -2.799807  3.335235
      ESP Fit Center  572 is at  -6.498675 -2.817158  2.375235
      ESP Fit Center  573 is at  -5.667291 -3.421194  2.375235
      ESP Fit Center  574 is at  -4.639643 -3.421194  2.375235
      ESP Fit Center  575 is at  -3.808259 -2.817158  2.375235
      ESP Fit Center  576 is at  -4.193467 -1.839807  1.672466
      ESP Fit Center  577 is at  -5.633467 -2.671191  1.672466
      ESP Fit Center  578 is at  -4.673467 -2.671191  1.672466
      ESP Fit Center  579 is at  -5.153467 -1.839807  1.415235
      ESP Fit Center  580 is at  -2.768897 -2.024875  4.091201
      ESP Fit Center  581 is at  -2.075766 -1.242491  4.091201
      ESP Fit Center  582 is at  -2.768897 -2.024875  3.094307
      ESP Fit Center  583 is at  -2.075766 -1.242491  3.094307
      ESP Fit Center  584 is at  -3.468277 -1.893199  2.196137
      ESP Fit Center  585 is at  -3.523509 -1.069301  1.574584
      ESP Fit Center  586 is at  -2.235788 -1.029615  5.019171
      ESP Fit Center  587 is at  -3.593022  0.399622  7.414530
      ESP Fit Center  588 is at  -2.633022  0.399622  7.157299
      ESP Fit Center  589 is at  -3.113022  1.231006  7.157299
      ESP Fit Center  590 is at  -4.073022  1.231006  7.157299
      ESP Fit Center  591 is at  -4.553022  0.399622  7.157299
      ESP Fit Center  592 is at  -4.073022 -0.431762  7.157299
      ESP Fit Center  593 is at  -3.113022 -0.431762  7.157299
      ESP Fit Center  594 is at  -1.930253  0.399622  6.454530
      ESP Fit Center  595 is at  -5.255791  0.399622  6.454530
      ESP Fit Center  596 is at  -4.106846 -1.181765  6.454530
      ESP Fit Center  597 is at  -3.079198 -1.181765  6.454530
      ESP Fit Center  598 is at  -2.247814 -0.577729  6.454530
      ESP Fit Center  599 is at  -3.593022 -1.520378  5.494530
      ESP Fit Center  600 is at  -2.633022 -1.263147  5.494530
      ESP Fit Center  601 is at  -1.930253 -0.560378  5.494530
      ESP Fit Center  602 is at  -4.947606  2.393781  6.164195
      ESP Fit Center  603 is at  -5.427606  1.562397  6.164195
      ESP Fit Center  604 is at  -3.953782  3.143784  5.461426
      ESP Fit Center  605 is at  -4.981430  3.143784  5.461426
      ESP Fit Center  606 is at  -5.812814  2.539748  5.461426
      ESP Fit Center  607 is at  -6.130375  1.562397  5.461426
      ESP Fit Center  608 is at  -4.467606  3.482397  4.501426
      ESP Fit Center  609 is at  -5.427606  3.225166  4.501426
      ESP Fit Center  610 is at  -4.981430  3.143784  3.541426
      ESP Fit Center  611 is at  -4.947606  2.393781  2.838657
      ESP Fit Center  612 is at  -2.063975  2.113280  6.775201
      ESP Fit Center  613 is at  -1.103975  2.113280  6.517970
      ESP Fit Center  614 is at  -1.583975  2.944664  6.517970
      ESP Fit Center  615 is at  -2.543975  2.944664  6.517970
      ESP Fit Center  616 is at  -3.023975  2.113280  6.517970
      ESP Fit Center  617 is at  -1.583975  1.281896  6.517970
      ESP Fit Center  618 is at  -0.401206  2.113280  5.815201
      ESP Fit Center  619 is at  -0.718767  3.090631  5.815201
      ESP Fit Center  620 is at  -1.550151  3.694667  5.815201
      ESP Fit Center  621 is at  -2.577799  3.694667  5.815201
      ESP Fit Center  622 is at  -3.409183  3.090631  5.815201
      ESP Fit Center  623 is at  -0.718767  1.135929  5.815201
      ESP Fit Center  624 is at  -0.143975  2.113280  4.855201
      ESP Fit Center  625 is at  -0.401206  3.073280  4.855201
      ESP Fit Center  626 is at  -1.103975  3.776049  4.855201
      ESP Fit Center  627 is at  -2.063975  4.033280  4.855201
      ESP Fit Center  628 is at  -3.023975  3.776049  4.855201
      ESP Fit Center  629 is at  -0.668000  0.669830  5.617793
      ESP Fit Center  630 is at  -1.148000 -0.161554  5.617793
      ESP Fit Center  631 is at   0.034769  0.669830  4.915024
      ESP Fit Center  632 is at  -1.114176 -0.911557  4.915024
      ESP Fit Center  633 is at  -0.282792 -0.307521  4.915024
      ESP Fit Center  634 is at   0.292000  0.669830  3.955024
      ESP Fit Center  635 is at   0.034769  1.629830  3.955024
      ESP Fit Center  636 is at  -1.628000 -1.250170  3.955024
      ESP Fit Center  637 is at  -0.668000 -0.992939  3.955024
      ESP Fit Center  638 is at   0.034769 -0.290170  3.955024
      ESP Fit Center  639 is at  -1.114176 -0.911557  2.995024
      ESP Fit Center  640 is at  -0.282792 -0.307521  2.995024
      ESP Fit Center  641 is at  -3.054820  3.870630  4.302020
      ESP Fit Center  642 is at  -0.579945  3.219922  3.403850
      ESP Fit Center  643 is at  -1.273076  4.002306  3.403850
      ESP Fit Center  644 is at  -2.250405  4.372958  3.403850
      ESP Fit Center  645 is at  -3.288038  4.246966  3.403850
      ESP Fit Center  646 is at  -4.148265  3.653195  3.403850
      ESP Fit Center  647 is at  -2.250405  4.372958  2.406956
      ESP Fit Center  648 is at  -3.288038  4.246966  2.406956
      ESP Fit Center  649 is at  -4.148265  3.653195  2.406956
      ESP Fit Center  650 is at  -4.634018  2.727669  2.406956
      ESP Fit Center  651 is at  -4.634018  1.682415  2.406956
      ESP Fit Center  652 is at  -3.054820  3.870630  1.508786
      ESP Fit Center  653 is at  -4.583364  1.572686  2.216061
      ESP Fit Center  654 is at  -4.351648  0.557473  1.147961
      ESP Fit Center  655 is at  -2.764197  0.670876 -0.480314
      ESP Fit Center  656 is at  -2.921926  3.902387  0.944617
      ESP Fit Center  657 is at  -3.881926  3.645156  0.944617
      ESP Fit Center  658 is at  -4.584695  2.942387  0.944617
      ESP Fit Center  659 is at  -4.841926  1.982387  0.944617
      ESP Fit Center  660 is at  -4.584695  1.022387  0.944617
      ESP Fit Center  661 is at  -2.408102  3.563774 -0.015383
      ESP Fit Center  662 is at  -3.435750  3.563774 -0.015383
      ESP Fit Center  663 is at  -4.267134  2.959738 -0.015383
      ESP Fit Center  664 is at  -4.584695  1.982387 -0.015383
      ESP Fit Center  665 is at  -4.267134  1.005036 -0.015383
      ESP Fit Center  666 is at  -2.441926  2.813771 -0.718152
      ESP Fit Center  667 is at  -3.401926  2.813771 -0.718152
      ESP Fit Center  668 is at  -3.881926  1.982387 -0.718152
      ESP Fit Center  669 is at  -3.401926  1.151003 -0.718152
      ESP Fit Center  670 is at  -2.921926  1.982387 -0.975383
      ESP Fit Center  671 is at  -1.912762 -1.073579  2.702249
      ESP Fit Center  672 is at  -2.426586 -1.412192  1.742249
      ESP Fit Center  673 is at  -3.771794 -0.469543  0.782249
      ESP Fit Center  674 is at  -2.940410 -1.073579  0.782249
      ESP Fit Center  675 is at  -2.906586 -0.323576  0.079480
      ESP Fit Center  676 is at   1.296519  2.877889  1.786902
      ESP Fit Center  677 is at  -2.040370  3.280761 -0.243524
      ESP Fit Center  678 is at   0.850109  1.509184  3.667829
      ESP Fit Center  679 is at   0.370109  2.340568  3.667829
      ESP Fit Center  680 is at   0.370109  0.677800  3.667829
      ESP Fit Center  681 is at   1.552878  1.509184  2.965060
      ESP Fit Center  682 is at   1.235317  2.486535  2.965060
      ESP Fit Center  683 is at   0.403933  3.090571  2.965060
      ESP Fit Center  684 is at   0.403933 -0.072203  2.965060
      ESP Fit Center  685 is at   1.235317  0.531833  2.965060
      ESP Fit Center  686 is at   1.552878  2.469184  2.005060
      ESP Fit Center  687 is at  -0.197486  3.764255  2.823619
      ESP Fit Center  688 is at   0.667722  3.910222  2.120850
      ESP Fit Center  689 is at  -0.163662  4.514258  2.120850
      ESP Fit Center  690 is at  -1.191310  4.514258  2.120850
      ESP Fit Center  691 is at   0.985283  3.892871  1.160850
      ESP Fit Center  692 is at   0.282514  4.595640  1.160850
      ESP Fit Center  693 is at  -0.677486  4.852871  1.160850
      ESP Fit Center  694 is at  -1.637486  4.595640  1.160850
      ESP Fit Center  695 is at   0.667722  3.910222  0.200850
      ESP Fit Center  696 is at  -0.163662  4.514258  0.200850
      ESP Fit Center  697 is at  -1.191310  4.514258  0.200850
      ESP Fit Center  698 is at  -2.022694  3.910222  0.200850
      ESP Fit Center  699 is at  -0.197486  3.764255 -0.501919
      ESP Fit Center  700 is at  -1.157486  3.764255 -0.501919
      ESP Fit Center  701 is at  -1.084566  2.957496 -1.396617
      ESP Fit Center  702 is at  -1.960218  2.321298 -1.396617
      ESP Fit Center  703 is at  -2.294687  1.291908 -1.396617
      ESP Fit Center  704 is at  -1.029334  2.133598 -2.018170
      ESP Fit Center  705 is at  -1.515284  1.291908 -2.018170
      ESP Fit Center  706 is at  -0.543384  1.291908 -2.240000
      ESP Fit Center  707 is at  -2.339827  0.000000 -0.534050
      ESP Fit Center  708 is at   0.520660 -2.281163 -0.534050
      ESP Fit Center  709 is at  -2.287385 -0.500199 -0.885897
      ESP Fit Center  710 is at  -2.030154 -1.460199 -0.885897
      ESP Fit Center  711 is at  -1.327385 -2.162968 -0.885897
      ESP Fit Center  712 is at  -0.367385 -2.420199 -0.885897
      ESP Fit Center  713 is at   0.592615 -2.162968 -0.885897
      ESP Fit Center  714 is at  -1.712593  0.477152 -1.845897
      ESP Fit Center  715 is at  -2.030154 -0.500199 -1.845897
      ESP Fit Center  716 is at  -1.712593 -1.477550 -1.845897
      ESP Fit Center  717 is at  -0.881209 -2.081586 -1.845897
      ESP Fit Center  718 is at   0.146439 -2.081586 -1.845897
      ESP Fit Center  719 is at  -0.847385  0.331185 -2.548666
      ESP Fit Center  720 is at  -1.327385 -0.500199 -2.548666
      ESP Fit Center  721 is at  -0.847385 -1.331583 -2.548666
      ESP Fit Center  722 is at   0.112615 -1.331583 -2.548666
      ESP Fit Center  723 is at  -0.367385 -0.500199 -2.805897
      ESP Fit Center  724 is at  -0.350279 -0.556868  2.786902
      ESP Fit Center  725 is at   0.609721 -0.556868  2.529671
      ESP Fit Center  726 is at  -0.830279 -1.388252  2.529671
      ESP Fit Center  727 is at   0.129721 -1.388252  2.529671
      ESP Fit Center  728 is at  -1.695487 -1.534219  1.826902
      ESP Fit Center  729 is at  -0.864103 -2.138255  1.826902
      ESP Fit Center  730 is at   0.163545 -2.138255  1.826902
      ESP Fit Center  731 is at   0.994929 -1.534219  1.826902
      ESP Fit Center  732 is at  -2.013048 -1.516868  0.866902
      ESP Fit Center  733 is at  -1.310279 -2.219637  0.866902
      ESP Fit Center  734 is at  -0.350279 -2.476868  0.866902
      ESP Fit Center  735 is at   2.046051 -0.901810  2.162325
      ESP Fit Center  736 is at   2.833083 -1.012065  1.841237
      ESP Fit Center  737 is at   1.393083 -1.843449  1.841237
      ESP Fit Center  738 is at   2.353083 -1.843449  1.841237
      ESP Fit Center  739 is at   3.535852 -1.012065  1.138468
      ESP Fit Center  740 is at   1.359259 -2.593452  1.138468
      ESP Fit Center  741 is at   2.386907 -2.593452  1.138468
      ESP Fit Center  742 is at   3.218291 -1.989416  1.138468
      ESP Fit Center  743 is at   0.913083 -2.674834  0.178468
      ESP Fit Center  744 is at   1.873083 -2.932065  0.178468
      ESP Fit Center  745 is at   2.833083 -2.674834  0.178468
      ESP Fit Center  746 is at   3.535852 -1.972065  0.178468
      ESP Fit Center  747 is at   1.359259 -2.593452 -0.781532
      ESP Fit Center  748 is at   2.386907 -2.593452 -0.781532
      ESP Fit Center  749 is at   1.904887  0.607079  2.733965
      ESP Fit Center  750 is at   2.864887  0.607079  2.476734
      ESP Fit Center  751 is at   2.384887  1.438463  2.476734
      ESP Fit Center  752 is at   1.424887 -0.224305  2.476734
      ESP Fit Center  753 is at   2.384887 -0.224305  2.476734
      ESP Fit Center  754 is at   3.567656  0.607079  1.773965
      ESP Fit Center  755 is at   3.250095  1.584430  1.773965
      ESP Fit Center  756 is at   3.250095 -0.370272  1.773965
      ESP Fit Center  757 is at   3.824887  0.607079  0.813965
      ESP Fit Center  758 is at   4.308063  0.468326  0.417020
      ESP Fit Center  759 is at   4.042807 -0.521623  0.417020
      ESP Fit Center  760 is at   4.915027  0.468326 -0.491365
      ESP Fit Center  761 is at   4.059113 -1.454088 -0.491365
      ESP Fit Center  762 is at   4.691381 -0.583846 -0.491365
      ESP Fit Center  763 is at   1.561908 -2.224786 -1.562879
      ESP Fit Center  764 is at   2.586515 -2.319730 -1.562879
      ESP Fit Center  765 is at   3.576231 -2.038131 -1.562879
      ESP Fit Center  766 is at   4.397389 -1.418022 -1.562879
      ESP Fit Center  767 is at   4.939086 -0.543151 -1.562879
      ESP Fit Center  768 is at   4.915027  0.468326 -2.634393
      ESP Fit Center  769 is at  -0.202170  1.006165 -2.634393
      ESP Fit Center  770 is at   0.235348 -1.052194 -2.634393
      ESP Fit Center  771 is at   1.034733 -1.771963 -2.634393
      ESP Fit Center  772 is at   2.057763 -2.104366 -2.634393
      ESP Fit Center  773 is at   3.127549 -1.991927 -2.634393
      ESP Fit Center  774 is at   4.059113 -1.454088 -2.634393
      ESP Fit Center  775 is at   4.691381 -0.583846 -2.634393
      ESP Fit Center  776 is at   4.308063  0.468326 -3.542778
      ESP Fit Center  777 is at   4.042807  1.458275 -3.542778
      ESP Fit Center  778 is at   0.613521  1.458275 -3.542778
      ESP Fit Center  779 is at   0.348265  0.468326 -3.542778
      ESP Fit Center  780 is at   0.613521 -0.521623 -3.542778
      ESP Fit Center  781 is at   1.338215 -1.246317 -3.542778
      ESP Fit Center  782 is at   2.328164 -1.511573 -3.542778
      ESP Fit Center  783 is at   3.318113 -1.246317 -3.542778
      ESP Fit Center  784 is at   4.042807 -0.521623 -3.542778
      ESP Fit Center  785 is at   3.399678  0.468326 -4.149742
      ESP Fit Center  786 is at   2.863921  1.396284 -4.149742
      ESP Fit Center  787 is at   1.256650  0.468326 -4.149742
      ESP Fit Center  788 is at   1.792407 -0.459632 -4.149742
      ESP Fit Center  789 is at   2.863921 -0.459632 -4.149742
      ESP Fit Center  790 is at   2.328164  0.468326 -4.362879
      ESP Fit Center  791 is at   0.252348  1.734170 -3.169750
      ESP Fit Center  792 is at   1.735227  4.089805 -3.669606
      ESP Fit Center  793 is at   0.903843  3.485769 -3.669606
      ESP Fit Center  794 is at   0.586282  2.508418 -3.669606
      ESP Fit Center  795 is at   3.209051  2.508418 -4.372375
      ESP Fit Center  796 is at   2.729051  3.339802 -4.372375
      ESP Fit Center  797 is at   1.769051  3.339802 -4.372375
      ESP Fit Center  798 is at   1.289051  2.508418 -4.372375
      ESP Fit Center  799 is at   1.769051  1.677034 -4.372375
      ESP Fit Center  800 is at   2.729051  1.677034 -4.372375
      ESP Fit Center  801 is at   2.249051  2.508418 -4.629606
      ESP Fit Center  802 is at   0.494652  4.044413 -0.523734
      ESP Fit Center  803 is at   0.048476  4.125795 -1.483734
      ESP Fit Center  804 is at  -0.654293  3.423026 -1.483734
      ESP Fit Center  805 is at   0.494652  4.044413 -2.443734
      ESP Fit Center  806 is at  -0.336732  3.440377 -2.443734
      ESP Fit Center  807 is at  -0.654293  2.463026 -2.443734
      ESP Fit Center  808 is at  -0.336732  1.485675 -2.443734
      ESP Fit Center  809 is at   0.048476  2.463026 -3.146503
      ESP Fit Center  810 is at   1.116714  3.650854  0.747608
      ESP Fit Center  811 is at   2.870370  2.754045  2.187859
      ESP Fit Center  812 is at   3.830370  2.754045  1.930628
      ESP Fit Center  813 is at   3.350370  3.585429  1.930628
      ESP Fit Center  814 is at   2.390370  3.585429  1.930628
      ESP Fit Center  815 is at   1.910370  2.754045  1.930628
      ESP Fit Center  816 is at   3.350370  1.922661  1.930628
      ESP Fit Center  817 is at   1.525162  3.731396  1.227859
      ESP Fit Center  818 is at   4.215578  1.776694  1.227859
      ESP Fit Center  819 is at   3.000930  4.962735  0.933773
      ESP Fit Center  820 is at   2.040930  4.962735  0.933773
      ESP Fit Center  821 is at   2.007106  5.712738  0.231004
      ESP Fit Center  822 is at   1.175722  5.108702  0.231004
      ESP Fit Center  823 is at   0.858161  4.131351  0.231004
      ESP Fit Center  824 is at   1.560930  5.794120 -0.728996
      ESP Fit Center  825 is at   0.858161  5.091351 -0.728996
      ESP Fit Center  826 is at   1.175722  5.108702 -1.688996
      ESP Fit Center  827 is at   2.040930  4.962735 -2.391765
      ESP Fit Center  828 is at   4.686592  3.195448  1.633456
      ESP Fit Center  829 is at   5.758106  3.195448  1.420319
      ESP Fit Center  830 is at   5.222349  4.123406  1.420319
      ESP Fit Center  831 is at   4.150835  4.123406  1.420319
      ESP Fit Center  832 is at   5.222349  2.267490  1.420319
      ESP Fit Center  833 is at   6.666491  3.195448  0.813355
      ESP Fit Center  834 is at   6.401235  4.185397  0.813355
      ESP Fit Center  835 is at   5.676541  4.910091  0.813355
      ESP Fit Center  836 is at   4.686592  5.175347  0.813355
      ESP Fit Center  837 is at   3.696643  4.910091  0.813355
      ESP Fit Center  838 is at   4.686592  1.215549  0.813355
      ESP Fit Center  839 is at   5.676541  1.480805  0.813355
      ESP Fit Center  840 is at   6.401235  2.205499  0.813355
      ESP Fit Center  841 is at   7.273455  3.195448 -0.095030
      ESP Fit Center  842 is at   7.049809  4.247620 -0.095030
      ESP Fit Center  843 is at   5.485977  0.735195 -0.095030
      ESP Fit Center  844 is at   6.417541  1.273034 -0.095030
      ESP Fit Center  845 is at   7.049809  2.143276 -0.095030
      ESP Fit Center  846 is at   7.486592  3.195448 -1.166544
      ESP Fit Center  847 is at   7.297514  4.206925 -1.166544
      ESP Fit Center  848 is at   5.934659  0.688991 -1.166544
      ESP Fit Center  849 is at   6.755817  1.309100 -1.166544
      ESP Fit Center  850 is at   7.297514  2.183971 -1.166544
      ESP Fit Center  851 is at   7.273455  3.195448 -2.238058
      ESP Fit Center  852 is at   5.485977  0.735195 -2.238058
      ESP Fit Center  853 is at   6.417541  1.273034 -2.238058
      ESP Fit Center  854 is at   7.049809  2.143276 -2.238058
      ESP Fit Center  855 is at   4.686592  1.215549 -3.146443
      ESP Fit Center  856 is at   5.676541  1.480805 -3.146443
      ESP Fit Center  857 is at   6.401235  2.205499 -3.146443
      ESP Fit Center  858 is at   4.150835  2.267490 -3.753407
      ESP Fit Center  859 is at   5.222349  2.267490 -3.753407
      ESP Fit Center  860 is at   4.440309  2.601794 -3.971251
      ESP Fit Center  861 is at   2.216264  5.251842 -3.152491
      ESP Fit Center  862 is at   2.533825  5.269193 -4.112491
      ESP Fit Center  863 is at   2.216264  4.291842 -4.112491
      ESP Fit Center  864 is at   4.392857  2.710455 -4.112491
      ESP Fit Center  865 is at   2.919033  4.291842 -4.815260
      ESP Fit Center  866 is at   3.399033  3.460458 -4.815260
      ESP Fit Center  867 is at   4.359033  3.460458 -4.815260
      ESP Fit Center  868 is at   3.879033  4.291842 -5.072491
      ESP Fit Center  869 is at   7.278761  4.284373 -2.076443
      ESP Fit Center  870 is at   7.535992  4.284373 -3.036443
      ESP Fit Center  871 is at   7.278761  5.244373 -3.036443
      ESP Fit Center  872 is at   7.278761  3.324373 -3.036443
      ESP Fit Center  873 is at   7.278761  4.284373 -3.996443
      ESP Fit Center  874 is at   6.961200  5.261724 -3.996443
      ESP Fit Center  875 is at   6.129816  2.702986 -3.996443
      ESP Fit Center  876 is at   6.961200  3.307022 -3.996443
      ESP Fit Center  877 is at   6.575992  4.284373 -4.699212
      ESP Fit Center  878 is at   5.135992  3.452989 -4.699212
      ESP Fit Center  879 is at   6.095992  3.452989 -4.699212
      ESP Fit Center  880 is at   5.615992  4.284373 -4.956443
      ESP Fit Center  881 is at   4.693425  5.889545  0.458971
      ESP Fit Center  882 is at   3.816734  6.057354  0.590047
      ESP Fit Center  883 is at   4.296734  6.888738  0.332816
      ESP Fit Center  884 is at   3.336734  6.888738  0.332816
      ESP Fit Center  885 is at   2.856734  6.057354  0.332816
      ESP Fit Center  886 is at   2.153965  6.057354 -0.369953
      ESP Fit Center  887 is at   2.153965  7.017354 -1.329953
      ESP Fit Center  888 is at   1.896734  6.057354 -1.329953
      ESP Fit Center  889 is at   2.153965  6.057354 -2.289953
      ESP Fit Center  890 is at   5.568961  6.058646  0.592939
      ESP Fit Center  891 is at   6.528961  6.058646  0.335708
      ESP Fit Center  892 is at   6.048961  6.890030  0.335708
      ESP Fit Center  893 is at   5.088961  6.890030  0.335708
      ESP Fit Center  894 is at   6.048961  5.227262  0.335708
      ESP Fit Center  895 is at   7.231730  6.058646 -0.367061
      ESP Fit Center  896 is at   6.914169  7.035997 -0.367061
      ESP Fit Center  897 is at   6.914169  5.081295 -0.367061
      ESP Fit Center  898 is at   7.488961  6.058646 -1.327061
      ESP Fit Center  899 is at   7.231730  7.018646 -1.327061
      ESP Fit Center  900 is at   7.231730  5.098646 -1.327061
      ESP Fit Center  901 is at   7.231730  6.058646 -2.287061
      ESP Fit Center  902 is at   7.291158  7.057502 -2.267542
      ESP Fit Center  903 is at   2.173961  6.519663 -2.267542
      ESP Fit Center  904 is at   7.504295  7.057502 -3.339056
      ESP Fit Center  905 is at   7.315217  8.068979 -3.339056
      ESP Fit Center  906 is at   1.951970  7.572001 -3.339056
      ESP Fit Center  907 is at   1.951970  6.543003 -3.339056
      ESP Fit Center  908 is at   2.323687  5.583492 -3.339056
      ESP Fit Center  909 is at   7.315217  6.046025 -3.339056
      ESP Fit Center  910 is at   7.291158  7.057502 -4.410570
      ESP Fit Center  911 is at   7.067512  8.109674 -4.410570
      ESP Fit Center  912 is at   3.410864  9.297791 -4.410570
      ESP Fit Center  913 is at   2.611479  8.578022 -4.410570
      ESP Fit Center  914 is at   2.173961  7.595341 -4.410570
      ESP Fit Center  915 is at   2.173961  6.519663 -4.410570
      ESP Fit Center  916 is at   2.611479  5.536982 -4.410570
      ESP Fit Center  917 is at   7.067512  6.005330 -4.410570
      ESP Fit Center  918 is at   6.684194  7.057502 -5.318955
      ESP Fit Center  919 is at   6.418938  8.047451 -5.318955
      ESP Fit Center  920 is at   5.694244  8.772145 -5.318955
      ESP Fit Center  921 is at   4.704295  9.037401 -5.318955
      ESP Fit Center  922 is at   3.714346  8.772145 -5.318955
      ESP Fit Center  923 is at   2.989652  8.047451 -5.318955
      ESP Fit Center  924 is at   2.724396  7.057502 -5.318955
      ESP Fit Center  925 is at   2.989652  6.067553 -5.318955
      ESP Fit Center  926 is at   3.714346  5.342859 -5.318955
      ESP Fit Center  927 is at   4.704295  5.077603 -5.318955
      ESP Fit Center  928 is at   5.694244  5.342859 -5.318955
      ESP Fit Center  929 is at   6.418938  6.067553 -5.318955
      ESP Fit Center  930 is at   5.775809  7.057502 -5.925919
      ESP Fit Center  931 is at   5.240052  7.985460 -5.925919
      ESP Fit Center  932 is at   4.168538  7.985460 -5.925919
      ESP Fit Center  933 is at   3.632781  7.057502 -5.925919
      ESP Fit Center  934 is at   4.168538  6.129544 -5.925919
      ESP Fit Center  935 is at   5.240052  6.129544 -5.925919
      ESP Fit Center  936 is at   4.704295  7.057502 -6.139056
      ESP Fit Center  937 is at   6.386330 10.476450 -1.950019
      ESP Fit Center  938 is at   5.801188  8.578231  0.073972
      ESP Fit Center  939 is at   6.761188  8.578231 -0.183259
      ESP Fit Center  940 is at   6.281188  9.409615 -0.183259
      ESP Fit Center  941 is at   5.321188  7.746847 -0.183259
      ESP Fit Center  942 is at   6.281188  7.746847 -0.183259
      ESP Fit Center  943 is at   7.463957  8.578231 -0.886028
      ESP Fit Center  944 is at   7.146396  9.555582 -0.886028
      ESP Fit Center  945 is at   6.315012 10.159618 -0.886028
      ESP Fit Center  946 is at   7.146396  7.600880 -0.886028
      ESP Fit Center  947 is at   7.721188  8.578231 -1.846028
      ESP Fit Center  948 is at   7.463957  9.538231 -1.846028
      ESP Fit Center  949 is at   6.761188 10.241000 -1.846028
      ESP Fit Center  950 is at   7.463957  7.618231 -1.846028
      ESP Fit Center  951 is at   7.463957  8.578231 -2.806028
      ESP Fit Center  952 is at   7.146396  9.555582 -2.806028
      ESP Fit Center  953 is at   5.680000 10.932481 -2.312382
      ESP Fit Center  954 is at   7.086176  9.351094 -3.272382
      ESP Fit Center  955 is at   6.828945 10.311094 -3.272382
      ESP Fit Center  956 is at   6.126176 11.013863 -3.272382
      ESP Fit Center  957 is at   5.166176 11.271094 -3.272382
      ESP Fit Center  958 is at   4.206176 11.013863 -3.272382
      ESP Fit Center  959 is at   6.828945  9.351094 -4.232382
      ESP Fit Center  960 is at   6.511384 10.328445 -4.232382
      ESP Fit Center  961 is at   5.680000 10.932481 -4.232382
      ESP Fit Center  962 is at   4.652352 10.932481 -4.232382
      ESP Fit Center  963 is at   3.820968 10.328445 -4.232382
      ESP Fit Center  964 is at   6.126176  9.351094 -4.935151
      ESP Fit Center  965 is at   5.646176 10.182478 -4.935151
      ESP Fit Center  966 is at   4.686176 10.182478 -4.935151
      ESP Fit Center  967 is at   4.206176  9.351094 -4.935151
      ESP Fit Center  968 is at   5.166176  9.351094 -5.192382
      ESP Fit Center  969 is at   4.756937  9.135238  0.466513
      ESP Fit Center  970 is at   1.915228  9.663880 -0.199436
      ESP Fit Center  971 is at   1.607505 10.150451 -1.161762
      ESP Fit Center  972 is at   3.448577 10.992535 -3.192188
      ESP Fit Center  973 is at   1.501073 10.200912 -1.377023
      ESP Fit Center  974 is at   1.183512  9.223561 -1.377023
      ESP Fit Center  975 is at   1.501073  8.246210 -1.377023
      ESP Fit Center  976 is at   1.886281 10.886330 -2.337023
      ESP Fit Center  977 is at   1.183512 10.183561 -2.337023
      ESP Fit Center  978 is at   0.926281  9.223561 -2.337023
      ESP Fit Center  979 is at   1.183512  8.263561 -2.337023
      ESP Fit Center  980 is at   1.886281  7.560792 -2.337023
      ESP Fit Center  981 is at   2.332457 10.804948 -3.297023
      ESP Fit Center  982 is at   1.501073 10.200912 -3.297023
      ESP Fit Center  983 is at   1.183512  9.223561 -3.297023
      ESP Fit Center  984 is at   1.501073  8.246210 -3.297023
      ESP Fit Center  985 is at   3.326281 10.054945 -3.999792
      ESP Fit Center  986 is at   2.366281 10.054945 -3.999792
      ESP Fit Center  987 is at   1.886281  9.223561 -3.999792
      ESP Fit Center  988 is at   2.846281  9.223561 -4.257023
      ESP Fit Center  989 is at   3.467804  8.462321  1.037600
      ESP Fit Center  990 is at   4.427804  8.462321  0.780369
      ESP Fit Center  991 is at   3.947804  9.293705  0.780369
      ESP Fit Center  992 is at   2.987804  9.293705  0.780369
      ESP Fit Center  993 is at   2.507804  8.462321  0.780369
      ESP Fit Center  994 is at   2.987804  7.630937  0.780369
      ESP Fit Center  995 is at   3.947804  7.630937  0.780369
      ESP Fit Center  996 is at   2.122596  9.439672  0.077600
      ESP Fit Center  997 is at   1.805035  8.462321  0.077600
      ESP Fit Center  998 is at   2.122596  7.484970  0.077600
      ESP Fit Center  999 is at   4.813012  7.484970  0.077600
      ESP Fit Center 1000 is at   1.547804  8.462321 -0.882400
      ESP Fit Center 1001 is at   1.805035  7.502321 -0.882400
      ESP Fit Center 1002 is at   3.922374 10.110380  0.656202
      ESP Fit Center 1003 is at   4.882374 10.110380  0.398971
      ESP Fit Center 1004 is at   4.402374 10.941764  0.398971
      ESP Fit Center 1005 is at   3.442374 10.941764  0.398971
      ESP Fit Center 1006 is at   2.962374 10.110380  0.398971
      ESP Fit Center 1007 is at   5.585143 10.110380 -0.303798
      ESP Fit Center 1008 is at   5.267582 11.087731 -0.303798
      ESP Fit Center 1009 is at   4.436198 11.691767 -0.303798
      ESP Fit Center 1010 is at   3.408550 11.691767 -0.303798
      ESP Fit Center 1011 is at   2.577166 11.087731 -0.303798
      ESP Fit Center 1012 is at   5.585143 11.070380 -1.263798
      ESP Fit Center 1013 is at   4.882374 11.773149 -1.263798
      ESP Fit Center 1014 is at   3.922374 12.030380 -1.263798
      ESP Fit Center 1015 is at   2.962374 11.773149 -1.263798
      ESP Fit Center 1016 is at   2.259605 11.070380 -1.263798
      ESP Fit Center 1017 is at   5.267582 11.087731 -2.223798
      ESP Fit Center 1018 is at   4.436198 11.691767 -2.223798
      ESP Fit Center 1019 is at   3.408550 11.691767 -2.223798
      ESP Fit Center 1020 is at  -7.443519 -0.107067  5.678483
      ESP Fit Center 1021 is at  -8.242127  0.430814  5.093196
      ESP Fit Center 1022 is at  -8.657718  0.975245  4.217253
      ESP Fit Center 1023 is at  -8.904749  0.926178  3.184008
      ESP Fit Center 1024 is at  -5.855201  2.324866  2.150763
      ESP Fit Center 1025 is at  -7.965554  1.843192  2.150763
      ESP Fit Center 1026 is at  -8.657718  0.975245  2.150763
      ESP Fit Center 1027 is at  -6.965347 -2.539000  2.150763
      ESP Fit Center 1028 is at  -8.242127  0.430814  1.274820
      ESP Fit Center 1029 is at  -8.242127 -0.644948  1.274820
      ESP Fit Center 1030 is at  -7.660526 -1.549935  1.274820
      ESP Fit Center 1031 is at  -6.681980 -1.996823  1.274820
      ESP Fit Center 1032 is at  -6.552844  0.863639  5.806053
      ESP Fit Center 1033 is at  -7.092844  1.798946  5.516668
      ESP Fit Center 1034 is at  -7.632844  0.863639  5.516668
      ESP Fit Center 1035 is at  -6.819060  2.715214  4.726053
      ESP Fit Center 1036 is at  -7.777836  2.277355  4.726053
      ESP Fit Center 1037 is at  -8.347686  1.390652  4.726053
      ESP Fit Center 1038 is at  -6.292485  3.007890  3.646053
      ESP Fit Center 1039 is at  -7.318791  2.883274  3.646053
      ESP Fit Center 1040 is at  -8.169627  2.295984  3.646053
      ESP Fit Center 1041 is at  -8.650078  1.380561  3.646053
      ESP Fit Center 1042 is at  -5.775762  2.565210  2.566053
      ESP Fit Center 1043 is at  -6.819060  2.715214  2.566053
      ESP Fit Center 1044 is at  -7.777836  2.277355  2.566053
      ESP Fit Center 1045 is at  -5.464805  1.746238  1.043621
      ESP Fit Center 1046 is at  -6.508103  1.896242  1.043621
      ESP Fit Center 1047 is at  -7.466879  1.458383  1.043621
      ESP Fit Center 1048 is at  -8.036729  0.571680  1.043621
[...]
 1315 Fit      -0.011101
 1316 Fit       0.003105
 1317 Fit      -0.001461
 1318 Fit       0.000956
 1319 Fit       0.003357
 1320 Fit      -0.001365
 1321 Fit      -0.006221
 1322 Fit      -0.005065
 1323 Fit       0.000704
 1324 Fit       0.006398
 1325 Fit      -0.001791
 1326 Fit      -0.000332
 1327 Fit      -0.008013
 1328 Fit      -0.016780
 1329 Fit      -0.006596
 1330 Fit       0.011812
 1331 Fit       0.004054
 1332 Fit       0.005347
 1333 Fit       0.010371
 1334 Fit       0.015559
 1335 Fit       0.011303
 1336 Fit       0.006367
 1337 Fit       0.010001
 1338 Fit       0.013980
 1339 Fit       0.011662
 1340 Fit       0.010917
 1341 Fit       0.011040
 1342 Fit       0.009291
 1343 Fit       0.009980
 1344 Fit       0.008955
 1345 Fit      -0.006197
 1346 Fit      -0.014833
 1347 Fit      -0.012770
 1348 Fit      -0.003930
 1349 Fit      -0.009176
 1350 Fit      -0.018543
 1351 Fit      -0.017204
 1352 Fit      -0.013234
 1353 Fit      -0.007229
 1354 Fit       0.000370
 1355 Fit      -0.006603
 1356 Fit      -0.013956
 1357 Fit      -0.017479
 1358 Fit      -0.017751
 1359 Fit      -0.014802
 1360 Fit      -0.009516
 1361 Fit      -0.020409
 1362 Fit      -0.020476
 1363 Fit      -0.019561
 1364 Fit      -0.013994
 1365 Fit      -0.009115
 1366 Fit      -0.027253
 1367 Fit      -0.022919
 1368 Fit      -0.018527
 1369 Fit      -0.009174
 1370 Fit      -0.002833
 1371 Fit      -0.031050
 1372 Fit      -0.023596
 1373 Fit      -0.016260
 1374 Fit      -0.032130
 1375 Fit      -0.023559
 1376 Fit      -0.014026
 1377 Fit      -0.024716
 1378 Fit      -0.022057
 1379 Fit      -0.012605
 1380 Fit      -0.006685
 1381 Fit      -0.011457
 1382 Fit      -0.005169
 1383 Fit      -0.006024
 1384 Fit       0.007651
 1385 Fit       0.001018
 1386 Fit       0.000042
 1387 Fit       0.001341
 1388 Fit      -0.002364
 1389 Fit      -0.003678
 1390 Fit      -0.001151
 1391 Fit      -0.003782
 1392 Fit      -0.003188
 1393 Fit      -0.002813
 1394 Fit      -0.006695
 1395 Fit      -0.002759
 1396 Fit      -0.005047
 1397 Fit      -0.003755
 1398 Fit      -0.006208
 1399 Fit      -0.000659
 1400 Fit       0.006135
 1401 Fit       0.009532
 1402 Fit       0.012775
 1403 Fit       0.013781
 1404 Fit       0.009275
 1405 Fit       0.008489
 1406 Fit      -0.000596
 1407 Fit       0.000823
 1408 Fit       0.006695
 1409 Fit       0.007659
 1410 Fit       0.002625
 1411 Fit       0.007822
 1412 Fit      -0.005373
 1413 Fit       0.002207
 1414 Fit       0.005918
 1415 Fit      -0.000215
 1416 Fit      -0.007905
 1417 Fit      -0.007381
 1418 Fit      -0.001393
 1419 Fit      -0.006967
 1420 Fit      -0.015700
 1421 Fit      -0.010763
 1422 Fit      -0.011213
 1423 Fit      -0.014677
 1424 Fit      -0.010292
 1425 Fit      -0.014746
 1426 Fit      -0.019262
 1427 Fit      -0.013845
 1428 Fit      -0.004585
 1429 Fit       0.000025
 1430 Fit      -0.007745
 1431 Fit      -0.015018
 1432 Fit      -0.018091
 1433 Fit      -0.014908
 1434 Fit      -0.007015
 1435 Fit      -0.012700
 1436 Fit      -0.018834
 1437 Fit      -0.019377
 1438 Fit      -0.013931
 1439 Fit      -0.006788
 1440 Fit      -0.004359
 1441 Fit      -0.008516
 1442 Fit      -0.014856
 1443 Fit      -0.018278
 1444 Fit      -0.016429
 1445 Fit      -0.012606
 1446 Fit      -0.012190
 1447 Fit      -0.015361
 1448 Fit      -0.019352
 1449 Fit      -0.017932
 1450 Fit      -0.013286
 1451 Fit      -0.013514
 1452 Fit      -0.017244
 1453 Fit      -0.016907
 1454 Fit      -0.017819
 1455 Fit      -0.016906
 1456 Fit       0.008177
 1457 Fit       0.006290
 1458 Fit      -0.004782
 1459 Fit       0.009930
 1460 Fit       0.009325
 1461 Fit       0.009248
 1462 Fit       0.010923
 1463 Fit       0.007667
 1464 Fit       0.007906
 1465 Fit       0.008600
 1466 Fit       0.008551
 1467 Fit       0.004171
 1468 Fit       0.005460
 1469 Fit       0.006676
 1470 Fit       0.002792
 1471 Fit      -0.001455
 1472 Fit       0.004772
 1473 Fit       0.007042
 1474 Fit       0.008254
 1475 Fit       0.008072
 1476 Fit      -0.000930
 1477 Fit       0.004343
 1478 Fit       0.006760
 1479 Fit       0.007232
 1480 Fit       0.006003
 1481 Fit       0.003086
 1482 Fit      -0.000823
 1483 Fit       0.004326
 1484 Fit       0.004321
 1485 Fit       0.006867
 1486 Fit       0.004764
 1487 Fit       0.003713
 1488 Fit       0.011024
 1489 Fit       0.002619
 1490 Fit       0.002928
 1491 Fit       0.002747
 1492 Fit       0.002778
 1493 Fit       0.004296
 1494 Fit       0.005277
 1495 Fit       0.002627
 1496 Fit       0.002491
 1497 Fit       0.002975
 1498 Fit       0.003053
 1499 Fit       0.002740
 1500 Fit       0.001381
 1501 Fit      -0.001266
 1502 Fit       0.003498
 1503 Fit       0.002982
 1504 Fit       0.001972
 1505 Fit      -0.001288
 1506 Fit      -0.010098
 1507 Fit       0.004440
 1508 Fit       0.001640
 1509 Fit      -0.002203
 1510 Fit       0.007507
 1511 Fit       0.007726
 1512 Fit       0.005819
 1513 Fit       0.005383
 1514 Fit       0.007228
 1515 Fit       0.009914
 1516 Fit       0.009238
 1517 Fit       0.004703
 1518 Fit       0.007415
 1519 Fit       0.012249
 1520 Fit       0.004430
 1521 Fit       0.009869
 1522 Fit       0.005485
 1523 Fit       0.006945
 1524 Fit       0.006935
 1525 Fit       0.005745
 1526 Fit       0.009280
 1527 Fit       0.008278
 1528 Fit       0.007892
 1529 Fit       0.006876
 1530 Fit       0.005136
 1531 Fit       0.009003
 1532 Fit       0.008299
 1533 Fit       0.007325
 1534 Fit       0.005732
 1535 Fit       0.003799
 1536 Fit       0.007882
 1537 Fit       0.005750
 1538 Fit       0.010713
 1539 Fit       0.007878
 1540 Fit       0.004424
 1541 Fit       0.002907
 1542 Fit      -0.005726
 1543 Fit      -0.001231
 1544 Fit       0.000770
 1545 Fit       0.001741
 1546 Fit       0.002786
 1547 Fit       0.007504
 1548 Fit       0.002228
 1549 Fit       0.003100
 1550 Fit       0.003969
 1551 Fit       0.004726
 1552 Fit       0.012668
 1553 Fit       0.010183
 1554 Fit       0.009402
 1555 Fit       0.008991
 1556 Fit       0.007744
 1557 Fit       0.007048
 1558 Fit       0.005761
 1559 Fit       0.005699
 1560 Fit       0.005310
 1561 Fit      -0.000574
 1562 Fit       0.002520
 1563 Fit       0.003433
 1564 Fit       0.003482
 1565 Fit      -0.000398
 1566 Fit      -0.001832
 1567 Fit      -0.000169
 1568 Fit       0.001271
 1569 Fit       0.002167
 1570 Fit       0.002923
 1571 Fit       0.003670
 1572 Fit       0.004176
 1573 Fit       0.002979
 1574 Fit      -0.001165
 1575 Fit       0.000245
 1576 Fit       0.000509
 1577 Fit       0.001675
 1578 Fit       0.002629
 1579 Fit       0.003073
 1580 Fit       0.002159
 1581 Fit       0.002077
 1582 Fit       0.009103
 1583 Fit       0.011199
 1584 Fit       0.007160
 1585 Fit       0.008512
 1586 Fit       0.009864
 1587 Fit       0.011727
 1588 Fit       0.005587
 1589 Fit       0.006975
 1590 Fit       0.008190
 1591 Fit       0.009170
 1592 Fit       0.010400
 1593 Fit       0.004437
 1594 Fit       0.005923
 1595 Fit       0.007099
 1596 Fit       0.007931
 1597 Fit       0.008883
 1598 Fit       0.003795
 1599 Fit       0.005200
 1600 Fit       0.006094
 1601 Fit       0.006833
 1602 Fit       0.011794
 1603 Fit       0.010535
 1604 Fit       0.008803
 1605 Fit       0.006604
 1606 Fit       0.003820
 1607 Fit       0.010997
 1608 Fit      -0.000800
 1609 Fit       0.012018
 1610 Fit       0.012565
 1611 Fit       0.011511
 1612 Fit       0.010867
 1613 Fit       0.010663
 1614 Fit       0.012277
 1615 Fit       0.011329
 1616 Fit       0.011172
 1617 Fit       0.010625
 1618 Fit       0.009644
 1619 Fit       0.008687
 1620 Fit       0.008822
 1621 Fit       0.011942
 1622 Fit       0.011024
 1623 Fit       0.008499
 1624 Fit       0.006182
 1625 Fit       0.010020
 1626 Fit       0.008495
 1627 Fit       0.006755
 1628 Fit       0.003906
 1629 Fit       0.009191
 1630 Fit       0.008090
 1631 Fit       0.006508
 1632 Fit       0.003730
 1633 Fit      -0.002041
 1634 Fit       0.007818
 1635 Fit       0.006899
 1636 Fit       0.004885
 1637 Fit       0.000837
 1638 Fit      -0.001641
 1639 Fit       0.005685
 1640 Fit       0.003488
 1641 Fit       0.002860
 1642 Fit       0.003899
 1643 Fit      -0.001161
 1644 Fit      -0.003646
 1645 Fit      -0.002880
 1646 Fit      -0.003578
 1647 Fit      -0.003733
 1648 Fit       0.012083
 1649 Fit       0.011620
 1650 Fit       0.012278
 1651 Fit       0.009150
 1652 Fit       0.012246
 1653 Fit       0.012789
 1654 Fit       0.013207
 1655 Fit       0.012372
 1656 Fit       0.012226
 1657 Fit       0.011975
 1658 Fit       0.011714
 1659 Fit       0.014045
 1660 Fit       0.012627
 1661 Fit       0.010966
 1662 Fit       0.010256
 1663 Fit       0.011728
 1664 Fit       0.006827
 1665 Fit       0.008300
 1666 Fit       0.011256
 1667 Fit       0.008242
 1668 Fit       0.009280
 1669 Fit       0.011285
 1670 Fit       0.001150
 1671 Fit       0.003502
 1672 Fit       0.006703
 1673 Fit      -0.003863
 1674 Fit       0.002792
 1675 Fit       0.013231
 1676 Fit       0.011710
 1677 Fit       0.012850
 1678 Fit       0.009086
 1679 Fit       0.013387
 1680 Fit       0.012068
 1681 Fit       0.010899
 1682 Fit       0.011603
 1683 Fit       0.014321
 1684 Fit       0.011007
 1685 Fit       0.009386
 1686 Fit       0.007993
 1687 Fit       0.007514
 1688 Fit       0.009280
 1689 Fit       0.010453
 1690 Fit       0.007820
 1691 Fit       0.005093
 1692 Fit       0.002655
 1693 Fit       0.001443
 1694 Fit       0.003093
 1695 Fit      -0.000829
 1696 Fit       0.012506
 1697 Fit       0.010684
 1698 Fit       0.012246
 1699 Fit       0.014127
 1700 Fit       0.007010
 1701 Fit       0.011690
 1702 Fit       0.013761
 1703 Fit       0.006905
 1704 Fit       0.014318
 1705 Fit       0.017889
 1706 Fit      -0.004755
 1707 Fit      -0.009886
 1708 Fit      -0.012387
 1709 Fit      -0.011764
 1710 Fit      -0.009488
 1711 Fit      -0.014167
 1712 Fit      -0.016194
 1713 Fit      -0.015718
 1714 Fit      -0.012790
 1715 Fit      -0.012814
 1716 Fit      -0.014494
 1717 Fit      -0.013363
 1718 Fit      -0.010884
 1719 Fit      -0.008978
 1720 Fit      -0.002488
 1721 Fit      -0.003679
 1722 Fit      -0.011597
 1723 Fit      -0.008578
 1724 Fit      -0.004462
 1725 Fit      -0.004219
 1726 Fit      -0.003081
 1727 Fit      -0.001914
 1728 Fit      -0.002785
 1729 Fit      -0.002131
 1730 Fit      -0.001466
 1731 Fit      -0.001402
 1732 Fit      -0.002535
 1733 Fit      -0.004435
 1734 Fit      -0.003646
 1735 Fit      -0.006832
 1736 Fit      -0.011181
 1737 Fit       0.001540
 1738 Fit      -0.001019
 1739 Fit      -0.001352
 1740 Fit       0.002584
 1741 Fit       0.001367
 1742 Fit       0.007305
 1743 Fit       0.013379
 1744 Fit       0.013874
 1745 Fit       0.011093
 1746 Fit       0.006996
 1747 Fit       0.017435
 1748 Fit       0.015681
 1749 Fit       0.014561
 1750 Fit       0.007084
 1751 Fit       0.002903
 1752 Fit      -0.004665
 1753 Fit       0.007818
 1754 Fit       0.004337
 1755 Fit      -0.000812
 1756 Fit      -0.008607
 1757 Fit       0.006241
 1758 Fit       0.002040
 1759 Fit      -0.001937
 1760 Fit       0.007522
 1761 Fit       0.002460
 1762 Fit      -0.001228
 1763 Fit      -0.004661
 1764 Fit      -0.007765
 1765 Fit      -0.012895
 1766 Fit      -0.015227
 1767 Fit      -0.014715
 1768 Fit      -0.016364
 1769 Fit       0.011513
 1770 Fit      -0.001628
 1771 Fit       0.002509
 1772 Fit       0.007042
 1773 Fit       0.008431
 1774 Fit      -0.003515
 1775 Fit       0.000955
 1776 Fit       0.003107
 1777 Fit       0.003967
 1778 Fit       0.003832
 1779 Fit      -0.007906
 1780 Fit      -0.002295
 1781 Fit      -0.000048
 1782 Fit      -0.000631
 1783 Fit      -0.013827
 1784 Fit      -0.007115
 1785 Fit      -0.005499
 1786 Fit       0.018061
 1787 Fit       0.010799
 1788 Fit       0.014390
 1789 Fit       0.004796
 1790 Fit       0.009962
 1791 Fit       0.012906
 1792 Fit       0.005724
 1793 Fit       0.008946
 1794 Fit       0.011793
 1795 Fit       0.006161
 1796 Fit       0.016510
 1797 Fit       0.012207
 1798 Fit       0.006892
 1799 Fit      -0.001770
 1800 Fit       0.000602
 1801 Fit       0.013435
 1802 Fit       0.009674
 1803 Fit       0.010737
 1804 Fit       0.007893
 1805 Fit       0.004725
 1806 Fit       0.009610
 1807 Fit       0.007041
 1808 Fit       0.003766
 1809 Fit      -0.000915
 1810 Fit       0.006914
 1811 Fit       0.004085
 1812 Fit      -0.000037
 1813 Fit       0.015243
 1814 Fit       0.010480
 1815 Fit       0.013810
 1816 Fit       0.011507
 1817 Fit       0.005272
 1818 Fit       0.009584
 1819 Fit       0.005591
 1820 Fit      -0.005296
 1821 Fit      -0.006492
 1822 Fit      -0.014211
 1823 Fit      -0.007571
 1824 Fit      -0.015602
 1825 Fit      -0.022950
 1826 Fit      -0.000631
 1827 Fit      -0.004068
 1828 Fit      -0.008930
 1829 Fit      -0.014785
 1830 Fit      -0.020932
 1831 Fit      -0.027371
 1832 Fit      -0.008080
 1833 Fit      -0.009848
 1834 Fit      -0.012630
 1835 Fit      -0.016611
 1836 Fit      -0.021223
 1837 Fit      -0.026077
 1838 Fit      -0.024200
 1839 Fit      -0.012123
 1840 Fit      -0.014930
 1841 Fit      -0.014548
 1842 Fit      -0.014470
 1843 Fit      -0.014871
 1844 Fit      -0.015709
 1845 Fit      -0.017472
 1846 Fit      -0.019973
 1847 Fit      -0.022429
 1848 Fit      -0.017522
 1849 Fit      -0.011716
 1850 Fit      -0.009983
 1851 Fit      -0.015223
 1852 Fit      -0.017352
 1853 Fit      -0.017959
 1854 Fit      -0.018194
 1855 Fit      -0.018682
 1856 Fit      -0.018968
 1857 Fit      -0.014030
 1858 Fit      -0.007451
 1859 Fit      -0.007810
 1860 Fit      -0.014311
 1861 Fit      -0.017231
 1862 Fit      -0.017040
 1863 Fit      -0.013361
 1864 Fit       0.003007
 1865 Fit      -0.003672
 1866 Fit       0.001341
 1867 Fit      -0.002099
 1868 Fit      -0.007132
 1869 Fit      -0.000848
 1870 Fit       0.001239
 1871 Fit      -0.002357
 1872 Fit      -0.006304
 1873 Fit      -0.005694
 1874 Fit      -0.001042
 1875 Fit       0.002093
 1876 Fit       0.000273
 1877 Fit      -0.007367
 1878 Fit      -0.001145
 1879 Fit      -0.006902
 1880 Fit      -0.013101
 1881 Fit       0.007076
 1882 Fit       0.009234
 1883 Fit       0.010350
 1884 Fit       0.003992
 1885 Fit       0.005128
 1886 Fit       0.009359
 1887 Fit       0.009935
 1888 Fit       0.009721
 1889 Fit       0.008772
 1890 Fit       0.011099
 1891 Fit       0.009923
 1892 Fit       0.010373
 1893 Fit       0.008826
 1894 Fit       0.009093
 1895 Fit       0.007538
 1896 Fit       0.006855
 1897 Fit      -0.003882
 1898 Fit      -0.010583
 1899 Fit      -0.008529
 1900 Fit      -0.001849
 1901 Fit      -0.006542
 1902 Fit      -0.014102
 1903 Fit      -0.012711
 1904 Fit      -0.009308
 1905 Fit      -0.004513
 1906 Fit       0.001146
 1907 Fit      -0.003873
 1908 Fit      -0.010411
 1909 Fit      -0.013401
 1910 Fit      -0.014653
 1911 Fit      -0.012283
 1912 Fit      -0.008187
 1913 Fit      -0.014960
 1914 Fit      -0.016007
 1915 Fit      -0.015834
 1916 Fit      -0.012991
 1917 Fit      -0.009494
 1918 Fit      -0.023413
 1919 Fit      -0.020567
 1920 Fit      -0.018335
 1921 Fit      -0.015839
 1922 Fit      -0.010193
 1923 Fit      -0.006018
 1924 Fit      -0.028181
 1925 Fit      -0.022826
 1926 Fit      -0.018555
 1927 Fit      -0.014347
 1928 Fit      -0.007058
 1929 Fit      -0.025232
 1930 Fit      -0.019016
 1931 Fit      -0.012922
 1932 Fit      -0.025604
 1933 Fit      -0.018985
 1934 Fit      -0.011552
 1935 Fit      -0.017255
 1936 Fit      -0.010485
 1937 Fit      -0.005945
 1938 Fit      -0.009457
 1939 Fit      -0.005209
 1940 Fit      -0.004830
 1941 Fit      -0.001871
 1942 Fit      -0.002254
 1943 Fit      -0.000972
 1944 Fit      -0.003572
 1945 Fit      -0.005092
 1946 Fit      -0.002293
 1947 Fit      -0.001998
 1948 Fit      -0.003158
 1949 Fit      -0.006888
 1950 Fit      -0.004009
 1951 Fit      -0.004808
 1952 Fit      -0.006688
 1953 Fit      -0.004195
 1954 Fit      -0.006563
 1955 Fit      -0.004987
 1956 Fit      -0.007289
 1957 Fit       0.005112
 1958 Fit       0.010494
 1959 Fit       0.012296
 1960 Fit       0.007273
 1961 Fit      -0.001075
 1962 Fit      -0.000441
 1963 Fit       0.004934
 1964 Fit       0.000971
 1965 Fit       0.005885
 1966 Fit       0.001436
 1967 Fit       0.005367
 1968 Fit      -0.002788
 1969 Fit      -0.000584
 1970 Fit      -0.000446
 1971 Fit      -0.002507
 1972 Fit       0.000997
 1973 Fit      -0.002588
 1974 Fit      -0.009189
 1975 Fit      -0.006127
 1976 Fit      -0.007360
 1977 Fit      -0.006680
 1978 Fit      -0.001008
 1979 Fit      -0.008979
 1980 Fit      -0.013477
 1981 Fit      -0.009946
 1982 Fit      -0.003757
 1983 Fit      -0.007436
 1984 Fit      -0.011627
 1985 Fit      -0.011398
 1986 Fit      -0.006491
 1987 Fit      -0.013240
 1988 Fit      -0.015316
 1989 Fit      -0.011466
 1990 Fit      -0.005193
 1991 Fit      -0.001860
 1992 Fit      -0.007122
 1993 Fit      -0.011987
 1994 Fit      -0.014135
 1995 Fit      -0.012302
 1996 Fit      -0.007670
 1997 Fit      -0.011931
 1998 Fit      -0.015365
 1999 Fit      -0.015335
 2000 Fit      -0.011668
 2001 Fit      -0.007044
 2002 Fit      -0.005424
 2003 Fit      -0.007991
 2004 Fit      -0.012077
 2005 Fit      -0.014409
 2006 Fit      -0.013534
 2007 Fit      -0.011486
 2008 Fit      -0.011420
 2009 Fit      -0.013389
 2010 Fit      -0.015620
 2011 Fit      -0.014570
 2012 Fit      -0.011497
 2013 Fit      -0.011589
 2014 Fit      -0.014046
 2015 Fit      -0.014129
 2016 Fit      -0.014747
 2017 Fit      -0.013993
 2018 Fit       0.005872
 2019 Fit       0.007257
 2020 Fit       0.002157
 2021 Fit       0.008659
 2022 Fit       0.007981
 2023 Fit       0.008130
 2024 Fit       0.008995
 2025 Fit       0.006798
 2026 Fit       0.007102
 2027 Fit       0.007850
 2028 Fit       0.007499
 2029 Fit       0.004587
 2030 Fit       0.005420
 2031 Fit       0.006351
 2032 Fit       0.004204
 2033 Fit       0.000983
 2034 Fit       0.003195
 2035 Fit       0.006201
 2036 Fit       0.007468
 2037 Fit       0.003090
 2038 Fit       0.005299
 2039 Fit       0.006436
 2040 Fit       0.006541
 2041 Fit      -0.002253
 2042 Fit       0.002630
 2043 Fit       0.004820
 2044 Fit       0.005247
 2045 Fit       0.004101
 2046 Fit       0.002274
 2047 Fit       0.002268
 2048 Fit       0.006330
 2049 Fit       0.005487
 2050 Fit       0.004733
 2051 Fit       0.007933
 2052 Fit       0.004049
 2053 Fit       0.003943
 2054 Fit       0.008903
 2055 Fit       0.002988
 2056 Fit       0.002945
 2057 Fit       0.003185
 2058 Fit       0.002503
 2059 Fit       0.002467
 2060 Fit       0.003979
 2061 Fit       0.002847
 2062 Fit       0.004580
 2063 Fit       0.004631
 2064 Fit       0.002620
 2065 Fit       0.002438
 2066 Fit       0.002005
 2067 Fit       0.001394
 2068 Fit       0.002616
 2069 Fit       0.002180
 2070 Fit       0.001042
 2071 Fit      -0.001309
 2072 Fit       0.002980
 2073 Fit       0.001961
 2074 Fit       0.000537
 2075 Fit      -0.002943
 2076 Fit       0.000403
 2077 Fit      -0.003497
 2078 Fit       0.006665
 2079 Fit       0.006848
 2080 Fit       0.005257
 2081 Fit       0.006505
 2082 Fit       0.008351
 2083 Fit       0.007760
 2084 Fit       0.004792
 2085 Fit       0.006950
 2086 Fit       0.010439
 2087 Fit       0.008679
 2088 Fit       0.007031
 2089 Fit       0.005254
 2090 Fit       0.006259
 2091 Fit       0.006011
 2092 Fit       0.005146
 2093 Fit       0.007906
 2094 Fit       0.007093
 2095 Fit       0.006679
 2096 Fit       0.005893
 2097 Fit       0.004679
 2098 Fit       0.007867
 2099 Fit       0.007256
 2100 Fit       0.006630
 2101 Fit       0.005623
 2102 Fit       0.004304
 2103 Fit       0.007423
 2104 Fit       0.006419
 2105 Fit       0.005142
 2106 Fit       0.003703
 2107 Fit       0.007274
 2108 Fit       0.005130
 Job cpu time:       0 days  0 hours  4 minutes 56.9 seconds.
 Normal termination of Gaussian 16 at Sat Jul  8 21:02:39 2023.
