 Copyright (c) 1988-2019, Gaussian, Inc.  All Rights Reserved.
  
 This is part of the Gaussian(R) 16 program.  It is based on
 the Gaussian(R) 09 system (copyright 2009, Gaussian, Inc.),
 the Gaussian(R) 03 system (copyright 2003, Gaussian, Inc.),
 the Gaussian(R) 98 system (copyright 1998, Gaussian, Inc.),
 the Gaussian(R) 94 system (copyright 1995, Gaussian, Inc.),
 the Gaussian 92(TM) system (copyright 1992, Gaussian, Inc.),
 the Gaussian 90(TM) system (copyright 1990, Gaussian, Inc.),
 the Gaussian 88(TM) system (copyright 1988, Gaussian, Inc.),
 the Gaussian 86(TM) system (copyright 1986, Carnegie Mellon
 University), and the Gaussian 82(TM) system (copyright 1983,
 Carnegie Mellon University). Gaussian is a federally registered
 trademark of Gaussian, Inc.
 Cite this work as:
 Gaussian 16, Revision C.01,
 M. J. Frisch, G. W. Trucks, H. B. Schlegel, G. E. Scuseria, 
 M. A. Robb, J. R. Cheeseman, G. Scalmani, V. Barone, 
 G. A. Petersson, H. Nakatsuji, X. Li, M. Caricato, A. V. Marenich, 
 J. Bloino, B. G. Janesko, R. Gomperts, B. Mennucci, H. P. Hratchian, 
 J. V. Ortiz, A. F. Izmaylov, J. L. Sonnenberg, D. Williams-Young, 
 F. Ding, F. Lipparini, F. Egidi, J. Goings, B. Peng, A. Petrone, 
 T. Henderson, D. Ranasinghe, V. G. Zakrzewski, J. Gao, N. Rega, 
 G. Zheng, W. Liang, M. Hada, M. Ehara, K. Toyota, R. Fukuda, 
 J. Hasegawa, M. Ishida, T. Nakajima, Y. Honda, O. Kitao, H. Nakai, 
 T. Vreven, K. Throssell, J. A. Montgomery, Jr., J. E. Peralta, 
 F. Ogliaro, M. J. Bearpark, J. J. Heyd, E. N. Brothers, K. N. Kudin, 
 V. N. Staroverov, T. A. Keith, R. Kobayashi, J. Normand, 
 K. Raghavachari, A. P. Rendell, J. C. Burant, S. S. Iyengar, 
 J. Tomasi, M. Cossi, J. M. Millam, M. Klene, C. Adamo, R. Cammi, 
 J. W. Ochterski, R. L. Martin, K. Morokuma, O. Farkas, 
 J. B. Foresman, and D. J. Fox, Gaussian, Inc., Wallingford CT, 2019.
 
 ******************************************
 Gaussian 16:  EM64L-G16RevC.01  3-Jul-2019
                 8-Jul-2023 
 ******************************************
 ----------------------------------------------------------------------
 #P HF/6-31G(d) SCF(Conver=8,XQC,MaxConventionalCycles=64,MaxCycle=128)
  NoSymm Test Pop=mk IOp(6/33=2) GFInput GFPrint
 ----------------------------------------------------------------------
 1/38=1,172=1/1;
 2/12=2,15=1,17=6,18=5,40=1/2;
 3/5=1,6=6,7=1,11=9,24=110,25=1,30=1/1,2,3;
 4//1;
 5/5=2,6=8,7=128,8=3,13=1,38=5,85=64/2,8;
 6/7=2,8=2,9=2,10=2,15=8,20=1,28=1,33=2/1,2;
 99/5=1,9=1/99;
 -------------------------------------------------
 MEP step - Input generated by PyRED DVE-DMDS-OPLS
 -------------------------------------------------
 Symbolic Z-matrix:
 Charge =  0 Multiplicity = 1
 C                    -4.86869   4.50037  -2.19734 
 H                    -5.45723   4.95005  -1.40447 
 H                    -3.99793   5.12369  -2.3704 
 H                    -5.47461   4.5007   -3.09844 
 C                    -4.44192   3.07886  -1.8558 
 H                    -5.31364   2.45782  -1.65803 
 H                    -3.91458   2.6435   -2.69499 
 O                    -3.55371   3.00991  -0.77462 
 C                    -4.09922   3.2141    0.49362 
 H                    -5.02801   2.65975   0.60661 
 H                    -4.31144   4.26811   0.66316 
 C                    -3.10541   2.73771   1.52944 
 H                    -2.14127   3.194     1.32796 
 H                    -3.43021   3.06333   2.51477 
 O                    -3.02177   1.34109   1.51372 
 C                    -1.74608   0.7707    1.46828 
 H                    -1.82345  -0.21642   1.90557 
 H                    -1.04332   1.34027   2.07199 
 C                    -1.24943   0.64028   0.03318 
 H                    -1.2054    1.60806  -0.45396 
 H                    -1.94649   0.02827  -0.524 
 O                     0.        0.        0. 
 C                     1.11733   0.84128   0. 
 H                     1.12044   1.47038   0.88976 
 H                     1.09849   1.49326  -0.86892 
 C                     2.3811    0.        0. 
 H                     2.36616  -0.6945    0.83 
 H                     3.23338   0.65391   0.14837 
 S                     2.76917  -0.87504  -1.54276 
 C                     1.51705  -2.19051  -1.66476 
 H                     0.55209  -1.74486  -1.85422 
 H                     1.81255  -2.74528  -2.54721 
 C                     1.38017  -3.13885  -0.47686 
 H                     0.62747  -3.87396  -0.73938 
 H                     1.02014  -2.60272   0.39071 
 S                     2.93225  -4.00156  -0.07174 
 C                     2.29343  -5.25763   1.07594 
 H                     1.56021  -4.78765   1.72381 
 H                     3.12914  -5.5382    1.70399 
 C                     1.67472  -6.49871   0.42698 
 H                     1.11142  -7.05087   1.17075 
 H                     0.97193  -6.21334  -0.34508 
 S                     2.85275  -7.62625  -0.37649 
 C                     3.50829  -8.56388   1.03936 
 H                     4.41506  -9.02427   0.66557 
 H                     3.8105   -7.87371   1.81854 
 C                     2.5711   -9.63335   1.59332 
 H                     1.65205  -9.20507   1.97835 
 H                     2.30855  -10.35138   0.82529 
 H                     3.05321  -10.16534   2.40896 
 
 ITRead=  0  0  0  0  0  0  0  0  0  0  0  0  0  0  0  0  0  0  0  0
 ITRead=  0  0  0  0  0  0  0  0  0  0  0  0  0  0  0  0  0  0  0  0
 ITRead=  0  0  0  0  0  0  0  0  0  0
 MicOpt= -1 -1 -1 -1 -1 -1 -1 -1 -1 -1 -1 -1 -1 -1 -1 -1 -1 -1 -1 -1
 MicOpt= -1 -1 -1 -1 -1 -1 -1 -1 -1 -1 -1 -1 -1 -1 -1 -1 -1 -1 -1 -1
 MicOpt= -1 -1 -1 -1 -1 -1 -1 -1 -1 -1
 NAtoms=     50 NQM=       50 NQMF=       0 NMMI=      0 NMMIF=      0
                NMic=       0 NMicF=      0.
                          Input orientation:                          
 ---------------------------------------------------------------------
 Center     Atomic      Atomic             Coordinates (Angstroms)
 Number     Number       Type             X           Y           Z
 ---------------------------------------------------------------------
      1          6           0       -4.868693    4.500368   -2.197340
      2          1           0       -5.457231    4.950046   -1.404470
      3          1           0       -3.997929    5.123692   -2.370395
      4          1           0       -5.474607    4.500705   -3.098441
      5          6           0       -4.441918    3.078858   -1.855799
      6          1           0       -5.313641    2.457820   -1.658032
      7          1           0       -3.914578    2.643498   -2.694994
      8          8           0       -3.553710    3.009910   -0.774618
      9          6           0       -4.099216    3.214099    0.493622
     10          1           0       -5.028013    2.659748    0.606614
     11          1           0       -4.311435    4.268109    0.663161
     12          6           0       -3.105415    2.737709    1.529443
     13          1           0       -2.141265    3.194000    1.327964
     14          1           0       -3.430214    3.063331    2.514771
     15          8           0       -3.021773    1.341089    1.513720
     16          6           0       -1.746077    0.770702    1.468276
     17          1           0       -1.823448   -0.216416    1.905566
     18          1           0       -1.043321    1.340269    2.071990
     19          6           0       -1.249427    0.640282    0.033184
     20          1           0       -1.205397    1.608059   -0.453958
     21          1           0       -1.946491    0.028270   -0.523998
     22          8           0        0.000000    0.000000    0.000000
     23          6           0        1.117335    0.841279    0.000000
     24          1           0        1.120436    1.470377    0.889759
     25          1           0        1.098493    1.493264   -0.868923
     26          6           0        2.381100    0.000000    0.000000
     27          1           0        2.366158   -0.694503    0.830003
     28          1           0        3.233380    0.653911    0.148365
     29         16           0        2.769165   -0.875043   -1.542760
     30          6           0        1.517046   -2.190506   -1.664756
     31          1           0        0.552093   -1.744861   -1.854218
     32          1           0        1.812552   -2.745276   -2.547210
     33          6           0        1.380174   -3.138853   -0.476860
     34          1           0        0.627471   -3.873963   -0.739378
     35          1           0        1.020138   -2.602715    0.390711
     36         16           0        2.932253   -4.001561   -0.071741
     37          6           0        2.293429   -5.257634    1.075937
     38          1           0        1.560211   -4.787652    1.723809
     39          1           0        3.129142   -5.538200    1.703987
     40          6           0        1.674717   -6.498705    0.426983
     41          1           0        1.111417   -7.050873    1.170746
     42          1           0        0.971925   -6.213339   -0.345075
     43         16           0        2.852752   -7.626253   -0.376490
     44          6           0        3.508289   -8.563880    1.039358
     45          1           0        4.415055   -9.024266    0.665565
     46          1           0        3.810495   -7.873708    1.818537
     47          6           0        2.571096   -9.633345    1.593324
     48          1           0        1.652048   -9.205067    1.978352
     49          1           0        2.308547  -10.351384    0.825293
     50          1           0        3.053214  -10.165341    2.408959
 ---------------------------------------------------------------------
 Stoichiometry    C14H30O3S3
 Framework group  C1[X(C14H30O3S3)]
 Standard basis: 6-31G(d) (6D, 7F)
   372 basis functions,   752 primitive gaussians,   372 cartesian basis functions
    93 alpha electrons       93 beta electrons
 Requested convergence on RMS density matrix=1.00D-08 within  64 cycles.
 Requested convergence on MAX density matrix=1.00D-06.
 Requested convergence on             energy=1.00D-06.
 SCF Done:  E(RHF) =  -1964.68614902     A.U. after   13 cycles
            NFock= 13  Conv=0.47D-08     -V/T= 2.0006
 Mulliken charges:
     1  C   -0.507335
     2  H    0.162075
     3  H    0.174223
     4  H    0.162695
     5  C    0.015177
     6  H    0.144902
     7  H    0.172901
     8  O   -0.628230
     9  C    0.012418
    10  H    0.155570
    11  H    0.140125
    12  C    0.006430
    13  H    0.154548
    14  H    0.155716
    15  O   -0.633012
    16  C   -0.004553
    17  H    0.176149
    18  H    0.141312
    19  C   -0.012655
    20  H    0.171975
    21  H    0.178819
    22  O   -0.642902
    23  C    0.029433
    24  H    0.139771
    25  H    0.163999
    26  C   -0.500846
    27  H    0.210916
    28  H    0.199646
    29  S    0.120888
    30  C   -0.473878
    31  H    0.221410
    32  H    0.205841
    33  C   -0.470329
    34  H    0.186082
    35  H    0.205586
    36  S    0.156533
    37  C   -0.480836
    38  H    0.189080
    39  H    0.202942
    40  C   -0.472981
    41  H    0.192109
    42  H    0.203355
    43  S    0.132951
    44  C   -0.478713
    45  H    0.201040
    46  H    0.185795
    47  C   -0.472079
    48  H    0.161065
    49  H    0.180005
    50  H    0.164867
 Sum of Mulliken charges =  -0.00000
 Dipole moment (field-independent basis, Debye):
    X=             -3.9880    Y=              2.3671    Z=              3.2108  Tot=              5.6406
 Quadrupole moment (field-independent basis, Debye-Ang):
   XX=           -154.7441   YY=           -134.9370   ZZ=           -146.3876
   XY=             -0.1024   XZ=             15.5247   YZ=            -15.0857
 Traceless Quadrupole moment (field-independent basis, Debye-Ang):
   XX=             -9.3879   YY=             10.4192   ZZ=             -1.0313
   XY=             -0.1024   XZ=             15.5247   YZ=            -15.0857
 Octapole moment (field-independent basis, Debye-Ang**2):
  XXX=           -260.0072  YYY=            776.9962  ZZZ=             30.9898  XYY=            -73.5153
  XXY=            344.3491  XXZ=             29.6782  XZZ=            -69.7602  YZZ=            272.8634
  YYZ=            145.4408  XYZ=            -52.2679
 Hexadecapole moment (field-independent basis, Debye-Ang**3):
 XXXX=          -7346.3480 YYYY=         -18192.5762 ZZZZ=          -1427.4043 XXXY=           4436.2181
 XXXZ=             80.0157 YYYX=           4089.6481 YYYZ=           -321.8180 ZZZX=            -95.5163
 ZZZY=            612.8577 XXYY=          -4120.0374 XXZZ=          -1459.0446 YYZZ=          -3323.7815
 XXYZ=              8.5996 YYXZ=            327.0562 ZZXY=           1466.2232
 Merz-Kollman atomic radii used.
 Atom Element Radius
    1     6    1.50
    2     1    1.20
    3     1    1.20
    4     1    1.20
    5     6    1.50
    6     1    1.20
    7     1    1.20
    8     8    1.40
    9     6    1.50
   10     1    1.20
   11     1    1.20
   12     6    1.50
   13     1    1.20
   14     1    1.20
   15     8    1.40
   16     6    1.50
   17     1    1.20
   18     1    1.20
   19     6    1.50
   20     1    1.20
   21     1    1.20
   22     8    1.40
   23     6    1.50
   24     1    1.20
   25     1    1.20
   26     6    1.50
   27     1    1.20
   28     1    1.20
   29    16    1.75
   30     6    1.50
   31     1    1.20
   32     1    1.20
   33     6    1.50
   34     1    1.20
   35     1    1.20
   36    16    1.75
   37     6    1.50
   38     1    1.20
   39     1    1.20
   40     6    1.50
   41     1    1.20
   42     1    1.20
   43    16    1.75
   44     6    1.50
   45     1    1.20
   46     1    1.20
   47     6    1.50
   48     1    1.20
   49     1    1.20
   50     1    1.20
 Generate VDW surfaces: Layer= 4 Dens= 1 Start= 1.400 Inc= 0.200
            Electrostatic Properties Using The SCF Density.


       Atomic Center    1 is at  -4.868693  4.500368 -2.197340
       Atomic Center    2 is at  -5.457231  4.950046 -1.404470
       Atomic Center    3 is at  -3.997929  5.123692 -2.370395
       Atomic Center    4 is at  -5.474607  4.500705 -3.098441
       Atomic Center    5 is at  -4.441918  3.078858 -1.855799
       Atomic Center    6 is at  -5.313641  2.457820 -1.658032
       Atomic Center    7 is at  -3.914578  2.643498 -2.694994
       Atomic Center    8 is at  -3.553710  3.009910 -0.774618
       Atomic Center    9 is at  -4.099216  3.214099  0.493622
       Atomic Center   10 is at  -5.028013  2.659748  0.606614
       Atomic Center   11 is at  -4.311435  4.268109  0.663161
       Atomic Center   12 is at  -3.105415  2.737709  1.529443
       Atomic Center   13 is at  -2.141265  3.194000  1.327964
       Atomic Center   14 is at  -3.430214  3.063331  2.514771
       Atomic Center   15 is at  -3.021773  1.341089  1.513720
       Atomic Center   16 is at  -1.746077  0.770702  1.468276
       Atomic Center   17 is at  -1.823448 -0.216416  1.905566
       Atomic Center   18 is at  -1.043321  1.340269  2.071990
       Atomic Center   19 is at  -1.249427  0.640282  0.033184
       Atomic Center   20 is at  -1.205397  1.608059 -0.453958
       Atomic Center   21 is at  -1.946491  0.028270 -0.523998
       Atomic Center   22 is at   0.000000  0.000000  0.000000
       Atomic Center   23 is at   1.117335  0.841279  0.000000
       Atomic Center   24 is at   1.120436  1.470377  0.889759
       Atomic Center   25 is at   1.098493  1.493264 -0.868923
       Atomic Center   26 is at   2.381100  0.000000  0.000000
       Atomic Center   27 is at   2.366158 -0.694503  0.830003
       Atomic Center   28 is at   3.233380  0.653911  0.148365
       Atomic Center   29 is at   2.769165 -0.875043 -1.542760
       Atomic Center   30 is at   1.517046 -2.190506 -1.664756
       Atomic Center   31 is at   0.552093 -1.744861 -1.854218
       Atomic Center   32 is at   1.812552 -2.745276 -2.547210
       Atomic Center   33 is at   1.380174 -3.138853 -0.476860
       Atomic Center   34 is at   0.627471 -3.873963 -0.739378
       Atomic Center   35 is at   1.020138 -2.602715  0.390711
       Atomic Center   36 is at   2.932253 -4.001561 -0.071741
       Atomic Center   37 is at   2.293429 -5.257634  1.075937
       Atomic Center   38 is at   1.560211 -4.787652  1.723809
       Atomic Center   39 is at   3.129142 -5.538200  1.703987
       Atomic Center   40 is at   1.674717 -6.498705  0.426983
       Atomic Center   41 is at   1.111417 -7.050873  1.170746
       Atomic Center   42 is at   0.971925 -6.213339 -0.345075
       Atomic Center   43 is at   2.852752 -7.626253 -0.376490
       Atomic Center   44 is at   3.508289 -8.563880  1.039358
       Atomic Center   45 is at   4.415055 -9.024266  0.665565
       Atomic Center   46 is at   3.810495 -7.873708  1.818537
       Atomic Center   47 is at   2.571096 -9.633345  1.593324
       Atomic Center   48 is at   1.652048 -9.205067  1.978352
       Atomic Center   49 is at   2.308547-10.351384  0.825293
       Atomic Center   50 is at   3.053214-10.165341  2.408959
      ESP Fit Center   51 is at  -5.613363  6.463902 -2.197340
      ESP Fit Center   52 is at  -6.907671  3.997805 -2.197340
      ESP Fit Center   53 is at  -5.127514  6.300510 -3.247340
      ESP Fit Center   54 is at  -3.818693  4.500368 -4.015993
      ESP Fit Center   55 is at  -4.343693  5.409695 -4.015993
      ESP Fit Center   56 is at  -4.343693  3.591041 -4.015993
      ESP Fit Center   57 is at  -5.152083  5.889195 -0.045321
      ESP Fit Center   58 is at  -6.256118  5.530472 -0.045321
      ESP Fit Center   59 is at  -6.256118  4.369620 -0.045321
      ESP Fit Center   60 is at  -5.179780  6.523547 -0.885321
      ESP Fit Center   61 is at  -6.256118  6.333760 -0.885321
      ESP Fit Center   62 is at  -6.958648  5.496517 -0.885321
      ESP Fit Center   63 is at  -6.958648  4.403575 -0.885321
      ESP Fit Center   64 is at  -6.256118  6.333760 -1.923619
      ESP Fit Center   65 is at  -6.958648  5.496517 -1.923619
      ESP Fit Center   66 is at  -6.958648  4.403575 -1.923619
      ESP Fit Center   67 is at  -3.010450  5.123692 -1.011246
      ESP Fit Center   68 is at  -3.692781  6.062841 -1.011246
      ESP Fit Center   69 is at  -2.400154  5.123692 -1.851246
      ESP Fit Center   70 is at  -2.773962  6.150722 -1.851246
      ESP Fit Center   71 is at  -3.720478  6.697193 -1.851246
      ESP Fit Center   72 is at  -2.400154  5.123692 -2.889544
      ESP Fit Center   73 is at  -2.773962  6.150722 -2.889544
      ESP Fit Center   74 is at  -3.720478  6.697193 -2.889544
      ESP Fit Center   75 is at  -4.796816  6.507406 -2.889544
      ESP Fit Center   76 is at  -2.773962  4.096662 -2.889544
      ESP Fit Center   77 is at  -3.010450  5.123692 -3.729544
      ESP Fit Center   78 is at  -3.692781  6.062841 -3.729544
      ESP Fit Center   79 is at  -3.997929  5.123692 -4.050395
      ESP Fit Center   80 is at  -6.976024  5.047176 -2.579292
      ESP Fit Center   81 is at  -6.976024  3.954234 -2.579292
      ESP Fit Center   82 is at  -5.197156  6.074206 -3.617590
      ESP Fit Center   83 is at  -6.273494  5.884419 -3.617590
      ESP Fit Center   84 is at  -6.976024  5.047176 -3.617590
      ESP Fit Center   85 is at  -6.976024  3.954234 -3.617590
      ESP Fit Center   86 is at  -6.273494  3.116991 -3.617590
      ESP Fit Center   87 is at  -4.487128  4.500705 -4.457590
      ESP Fit Center   88 is at  -5.169459  5.439854 -4.457590
      ESP Fit Center   89 is at  -6.273494  5.081131 -4.457590
      ESP Fit Center   90 is at  -6.273494  3.920279 -4.457590
      ESP Fit Center   91 is at  -5.169459  3.561556 -4.457590
      ESP Fit Center   92 is at  -5.474607  4.500705 -4.778441
      ESP Fit Center   93 is at  -4.188791  0.994169 -1.855799
      ESP Fit Center   94 is at  -6.815058  3.004291 -1.138883
      ESP Fit Center   95 is at  -6.815058  1.911349 -1.138883
      ESP Fit Center   96 is at  -6.112528  1.074106 -1.138883
      ESP Fit Center   97 is at  -5.036190  0.884319 -1.138883
      ESP Fit Center   98 is at  -6.815058  3.004291 -2.177181
      ESP Fit Center   99 is at  -6.815058  1.911349 -2.177181
      ESP Fit Center  100 is at  -6.112528  1.074106 -2.177181
      ESP Fit Center  101 is at  -5.036190  0.884319 -2.177181
      ESP Fit Center  102 is at  -6.112528  1.877394 -3.017181
      ESP Fit Center  103 is at  -3.637127  1.069997 -2.175845
      ESP Fit Center  104 is at  -2.690611  1.616468 -2.175845
      ESP Fit Center  105 is at  -2.316803  2.643498 -3.214143
      ESP Fit Center  106 is at  -2.690611  3.670528 -3.214143
      ESP Fit Center  107 is at  -4.713465  1.259784 -3.214143
      ESP Fit Center  108 is at  -3.637127  1.069997 -3.214143
      ESP Fit Center  109 is at  -2.690611  1.616468 -3.214143
      ESP Fit Center  110 is at  -2.927099  2.643498 -4.054143
      ESP Fit Center  111 is at  -3.609430  3.582647 -4.054143
      ESP Fit Center  112 is at  -4.713465  3.223924 -4.054143
      ESP Fit Center  113 is at  -4.713465  2.063072 -4.054143
      ESP Fit Center  114 is at  -3.609430  1.704349 -4.054143
      ESP Fit Center  115 is at  -3.914578  2.643498 -4.374994
      ESP Fit Center  116 is at  -1.856300  3.989910 -0.774618
      ESP Fit Center  117 is at  -2.573710  4.707320 -0.774618
      ESP Fit Center  118 is at  -3.553710  1.049910 -0.774618
      ESP Fit Center  119 is at  -1.856300  3.009910 -1.754618
      ESP Fit Center  120 is at  -2.180477  4.007622 -1.754618
      ESP Fit Center  121 is at  -3.029182  1.395577 -1.754618
      ESP Fit Center  122 is at  -5.149216  3.214099  2.312275
      ESP Fit Center  123 is at  -5.826900  3.240174  1.965763
      ESP Fit Center  124 is at  -5.826900  2.079322  1.965763
      ESP Fit Center  125 is at  -6.529430  3.206219  1.125763
      ESP Fit Center  126 is at  -6.529430  2.113277  1.125763
      ESP Fit Center  127 is at  -5.826900  1.276034  1.125763
      ESP Fit Center  128 is at  -6.529430  3.206219  0.087465
      ESP Fit Center  129 is at  -6.529430  2.113277  0.087465
      ESP Fit Center  130 is at  -5.826900  1.276034  0.087465
      ESP Fit Center  131 is at  -4.750562  1.086247  0.087465
      ESP Fit Center  132 is at  -4.006287  5.207258  2.022310
      ESP Fit Center  133 is at  -5.110322  4.848535  2.022310
      ESP Fit Center  134 is at  -3.087468  5.295139  1.182310
      ESP Fit Center  135 is at  -4.033984  5.841610  1.182310
      ESP Fit Center  136 is at  -5.110322  5.651823  1.182310
      ESP Fit Center  137 is at  -5.812852  4.814580  1.182310
      ESP Fit Center  138 is at  -3.087468  5.295139  0.144012
      ESP Fit Center  139 is at  -4.033984  5.841610  0.144012
      ESP Fit Center  140 is at  -5.110322  5.651823  0.144012
      ESP Fit Center  141 is at  -2.349919  4.392014  2.579443
      ESP Fit Center  142 is at  -2.852288  4.822398  1.529443
      ESP Fit Center  143 is at  -1.153786  3.194000  2.687113
      ESP Fit Center  144 is at  -1.836117  4.133149  2.687113
      ESP Fit Center  145 is at  -0.543490  3.194000  1.847113
      ESP Fit Center  146 is at  -0.917298  4.221030  1.847113
      ESP Fit Center  147 is at  -1.863814  4.767501  1.847113
      ESP Fit Center  148 is at  -0.543490  3.194000  0.808815
      ESP Fit Center  149 is at  -0.917298  4.221030  0.808815
      ESP Fit Center  150 is at  -1.863814  4.767501  0.808815
      ESP Fit Center  151 is at  -1.836117  4.133149 -0.031185
      ESP Fit Center  152 is at  -3.430214  3.063331  4.194771
      ESP Fit Center  153 is at  -2.442735  3.063331  3.873920
      ESP Fit Center  154 is at  -3.125066  4.002480  3.873920
      ESP Fit Center  155 is at  -4.229101  3.643757  3.873920
      ESP Fit Center  156 is at  -4.229101  2.482905  3.873920
      ESP Fit Center  157 is at  -3.125066  2.124182  3.873920
      ESP Fit Center  158 is at  -2.206247  4.090361  3.033920
      ESP Fit Center  159 is at  -3.152763  4.636832  3.033920
      ESP Fit Center  160 is at  -4.229101  4.447045  3.033920
      ESP Fit Center  161 is at  -4.931631  3.609802  3.033920
      ESP Fit Center  162 is at  -4.931631  2.516860  3.033920
      ESP Fit Center  163 is at  -4.229101  1.679617  3.033920
      ESP Fit Center  164 is at  -3.021773  1.341089  3.473720
      ESP Fit Center  165 is at  -4.001773  1.341089  3.211130
      ESP Fit Center  166 is at  -3.511773  0.492384  3.211130
      ESP Fit Center  167 is at  -4.719183  1.341089  2.493720
      ESP Fit Center  168 is at  -4.395006  0.343377  2.493720
      ESP Fit Center  169 is at  -3.546301 -0.273244  2.493720
      ESP Fit Center  170 is at  -4.719183  0.361089  1.513720
      ESP Fit Center  171 is at  -4.001773 -0.356321  1.513720
      ESP Fit Center  172 is at  -4.395006  0.343377  0.533720
      ESP Fit Center  173 is at  -3.546301 -0.273244  0.533720
      ESP Fit Center  174 is at  -1.746077  0.770702  3.568276
      ESP Fit Center  175 is at  -0.216128 -0.212536  2.518276
      ESP Fit Center  176 is at  -1.823448 -0.216416  3.585566
      ESP Fit Center  177 is at  -0.835969 -0.216416  3.264715
      ESP Fit Center  178 is at  -2.622335 -0.796842  3.264715
      ESP Fit Center  179 is at  -1.518300 -1.155565  3.264715
      ESP Fit Center  180 is at  -3.324865 -0.762887  2.424715
      ESP Fit Center  181 is at  -2.622335 -1.600130  2.424715
      ESP Fit Center  182 is at  -1.545997 -1.789917  2.424715
      ESP Fit Center  183 is at  -0.599481 -1.243446  2.424715
      ESP Fit Center  184 is at  -3.324865 -0.762887  1.386417
      ESP Fit Center  185 is at  -2.622335 -1.600130  1.386417
      ESP Fit Center  186 is at  -1.545997 -1.789917  1.386417
      ESP Fit Center  187 is at  -1.043321  1.340269  3.751990
      ESP Fit Center  188 is at  -0.055842  1.340269  3.431139
      ESP Fit Center  189 is at  -0.738173  2.279418  3.431139
      ESP Fit Center  190 is at  -1.842208  1.920695  3.431139
      ESP Fit Center  191 is at  -0.738173  0.401120  3.431139
      ESP Fit Center  192 is at   0.554454  1.340269  2.591139
      ESP Fit Center  193 is at   0.180646  2.367299  2.591139
      ESP Fit Center  194 is at  -0.765870  2.913770  2.591139
      ESP Fit Center  195 is at   0.180646  0.313239  2.591139
      ESP Fit Center  196 is at  -1.249427  0.640282 -2.066816
      ESP Fit Center  197 is at   0.018570  2.635089  0.065191
      ESP Fit Center  198 is at  -0.927946  3.181560  0.065191
      ESP Fit Center  199 is at  -0.927946  3.181560 -0.973107
      ESP Fit Center  200 is at  -0.900249  2.547208 -1.813107
      ESP Fit Center  201 is at  -2.004284  2.188485 -1.813107
      ESP Fit Center  202 is at  -1.205397  1.608059 -2.133958
      ESP Fit Center  203 is at  -3.447908 -0.518201 -0.004849
      ESP Fit Center  204 is at  -2.745378 -1.355444 -0.004849
      ESP Fit Center  205 is at  -1.669040 -1.545231 -0.004849
      ESP Fit Center  206 is at  -3.447908  0.574741 -1.043147
      ESP Fit Center  207 is at  -3.447908 -0.518201 -1.043147
      ESP Fit Center  208 is at  -2.745378 -1.355444 -1.043147
      ESP Fit Center  209 is at  -1.669040 -1.545231 -1.043147
      ESP Fit Center  210 is at  -2.745378  0.608696 -1.883147
      ESP Fit Center  211 is at  -2.745378 -0.552156 -1.883147
      ESP Fit Center  212 is at  -1.641343 -0.910879 -1.883147
      ESP Fit Center  213 is at  -1.946491  0.028270 -2.203998
      ESP Fit Center  214 is at   0.490000 -0.848705  1.697410
      ESP Fit Center  215 is at  -0.524528 -1.614333  0.980000
      ESP Fit Center  216 is at  -0.980000 -1.697410  0.000000
      ESP Fit Center  217 is at   0.000000  0.000000 -1.960000
      ESP Fit Center  218 is at   2.310271  2.569545  0.000000
      ESP Fit Center  219 is at   1.370462  2.925968  0.000000
      ESP Fit Center  220 is at   0.372665  2.804813  0.000000
      ESP Fit Center  221 is at   1.120436  1.470377  2.569759
      ESP Fit Center  222 is at   2.107915  1.470377  2.248908
      ESP Fit Center  223 is at   1.425584  2.409526  2.248908
      ESP Fit Center  224 is at   1.425584  0.531228  2.248908
      ESP Fit Center  225 is at   2.344403  2.497407  1.408908
      ESP Fit Center  226 is at   1.397887  3.043878  1.408908
      ESP Fit Center  227 is at   0.321549  2.854091  1.408908
      ESP Fit Center  228 is at   1.397887  3.043878  0.370610
      ESP Fit Center  229 is at   0.321549  2.854091  0.370610
      ESP Fit Center  230 is at   1.375944  3.066765 -0.349774
      ESP Fit Center  231 is at   0.299606  2.876978 -0.349774
      ESP Fit Center  232 is at   2.322460  2.520294 -1.388072
      ESP Fit Center  233 is at   1.375944  3.066765 -1.388072
      ESP Fit Center  234 is at   0.299606  2.876978 -1.388072
      ESP Fit Center  235 is at   2.085972  1.493264 -2.228072
      ESP Fit Center  236 is at   1.403641  2.432413 -2.228072
      ESP Fit Center  237 is at   0.299606  2.073690 -2.228072
      ESP Fit Center  238 is at   0.299606  0.912838 -2.228072
      ESP Fit Center  239 is at   1.098493  1.493264 -2.548923
      ESP Fit Center  240 is at   2.906100  0.909327  1.818653
      ESP Fit Center  241 is at   2.366158 -0.694503  2.510003
      ESP Fit Center  242 is at   3.353637 -0.694503  2.189152
      ESP Fit Center  243 is at   2.671306  0.244646  2.189152
      ESP Fit Center  244 is at   1.567271 -0.114077  2.189152
      ESP Fit Center  245 is at   1.567271 -1.274929  2.189152
      ESP Fit Center  246 is at   2.671306 -1.633652  2.189152
      ESP Fit Center  247 is at   3.963933 -0.694503  1.349152
      ESP Fit Center  248 is at   3.590125 -1.721533  1.349152
      ESP Fit Center  249 is at   3.233380  0.653911  1.828365
      ESP Fit Center  250 is at   4.220859  0.653911  1.507514
      ESP Fit Center  251 is at   3.538528  1.593060  1.507514
      ESP Fit Center  252 is at   4.831155  0.653911  0.667514
      ESP Fit Center  253 is at   4.457347  1.680941  0.667514
      ESP Fit Center  254 is at   3.510831  2.227412  0.667514
      ESP Fit Center  255 is at   4.457347 -0.373119  0.667514
      ESP Fit Center  256 is at   4.831155  0.653911 -0.370784
      ESP Fit Center  257 is at   4.457347  1.680941 -0.370784
      ESP Fit Center  258 is at   3.510831  2.227412 -0.370784
      ESP Fit Center  259 is at   3.538528  1.593060 -1.210784
      ESP Fit Center  260 is at   4.684652 -0.875043 -0.015210
      ESP Fit Center  261 is at   4.380575 -1.910634 -0.015210
      ESP Fit Center  262 is at   5.157738 -0.875043 -0.997584
      ESP Fit Center  263 is at   4.921195  0.161320 -0.997584
      ESP Fit Center  264 is at   4.921195 -1.911406 -0.997584
      ESP Fit Center  265 is at   5.157738 -0.875043 -2.087936
      ESP Fit Center  266 is at   4.921195  0.161320 -2.087936
      ESP Fit Center  267 is at   4.258416  0.992419 -2.087936
      ESP Fit Center  268 is at   3.300673  1.453644 -2.087936
      ESP Fit Center  269 is at   0.617135  0.161320 -2.087936
      ESP Fit Center  270 is at   4.258416 -2.742505 -2.087936
      ESP Fit Center  271 is at   4.921195 -1.911406 -2.087936
      ESP Fit Center  272 is at   4.684652 -0.875043 -3.070310
      ESP Fit Center  273 is at   4.380575  0.160548 -3.070310
      ESP Fit Center  274 is at   3.564887  0.867345 -3.070310
      ESP Fit Center  275 is at   2.496563  1.020947 -3.070310
      ESP Fit Center  276 is at   1.514788  0.572586 -3.070310
      ESP Fit Center  277 is at   0.931269 -0.335388 -3.070310
      ESP Fit Center  278 is at   3.564887 -2.617431 -3.070310
      ESP Fit Center  279 is at   4.380575 -1.910634 -3.070310
      ESP Fit Center  280 is at   3.832180 -0.875043 -3.750134
      ESP Fit Center  281 is at   3.300673  0.045555 -3.750134
      ESP Fit Center  282 is at   2.237657  0.045555 -3.750134
      ESP Fit Center  283 is at   1.706150 -0.875043 -3.750134
      ESP Fit Center  284 is at   3.300673 -1.795641 -3.750134
      ESP Fit Center  285 is at   2.769165 -0.875043 -3.992760
      ESP Fit Center  286 is at   0.326081 -3.564952 -2.714756
      ESP Fit Center  287 is at   0.992046 -1.281179 -3.483409
      ESP Fit Center  288 is at   0.467046 -2.190506 -3.483409
      ESP Fit Center  289 is at  -0.949324 -1.198390 -1.335069
      ESP Fit Center  290 is at  -0.949324 -2.291332 -1.335069
      ESP Fit Center  291 is at  -0.246794 -0.361147 -2.373367
      ESP Fit Center  292 is at  -0.949324 -1.198390 -2.373367
      ESP Fit Center  293 is at  -0.949324 -2.291332 -2.373367
      ESP Fit Center  294 is at  -0.246794 -3.128575 -2.373367
      ESP Fit Center  295 is at   0.857241 -0.805712 -3.213367
      ESP Fit Center  296 is at  -0.246794 -1.164435 -3.213367
      ESP Fit Center  297 is at  -0.246794 -2.325287 -3.213367
      ESP Fit Center  298 is at   0.552093 -1.744861 -3.534218
      ESP Fit Center  299 is at   3.410327 -2.745276 -3.066359
      ESP Fit Center  300 is at   0.311135 -3.291747 -3.066359
      ESP Fit Center  301 is at   1.013665 -4.128990 -3.066359
      ESP Fit Center  302 is at   2.090003 -4.318777 -3.066359
      ESP Fit Center  303 is at   3.036519 -3.772306 -3.066359
      ESP Fit Center  304 is at   2.800031 -2.745276 -3.906359
      ESP Fit Center  305 is at   2.117700 -1.806127 -3.906359
      ESP Fit Center  306 is at   1.013665 -2.164850 -3.906359
      ESP Fit Center  307 is at   1.013665 -3.325702 -3.906359
      ESP Fit Center  308 is at   2.117700 -3.684425 -3.906359
      ESP Fit Center  309 is at   1.812552 -2.745276 -4.227210
      ESP Fit Center  310 is at  -0.658804 -2.636290 -0.476860
      ESP Fit Center  311 is at  -0.171416 -4.454389  0.619771
      ESP Fit Center  312 is at  -0.873946 -3.327492 -0.220229
      ESP Fit Center  313 is at  -0.873946 -4.420434 -0.220229
      ESP Fit Center  314 is at  -0.873946 -3.327492 -1.258527
      ESP Fit Center  315 is at  -0.873946 -4.420434 -1.258527
      ESP Fit Center  316 is at  -0.171416 -5.257677 -1.258527
      ESP Fit Center  317 is at  -0.171416 -4.454389 -2.098527
      ESP Fit Center  318 is at   0.932619 -4.813112 -2.098527
      ESP Fit Center  319 is at   1.020138 -2.602715  2.070711
      ESP Fit Center  320 is at   2.007617 -2.602715  1.749860
      ESP Fit Center  321 is at   1.325286 -1.663566  1.749860
      ESP Fit Center  322 is at   0.221251 -2.022289  1.749860
      ESP Fit Center  323 is at   0.221251 -3.183141  1.749860
      ESP Fit Center  324 is at  -0.481279 -2.056244  0.909860
      ESP Fit Center  325 is at  -0.481279 -3.149186  0.909860
      ESP Fit Center  326 is at  -0.481279 -2.056244 -0.128438
      ESP Fit Center  327 is at   3.995268 -4.001561  2.135633
      ESP Fit Center  328 is at   3.463761 -3.080963  2.135633
      ESP Fit Center  329 is at   2.400745 -3.080963  2.135633
      ESP Fit Center  330 is at   4.847740 -4.001561  1.455809
      ESP Fit Center  331 is at   4.543663 -2.965970  1.455809
      ESP Fit Center  332 is at   3.727975 -2.259173  1.455809
      ESP Fit Center  333 is at   5.320826 -4.001561  0.473435
      ESP Fit Center  334 is at   5.084283 -2.965198  0.473435
      ESP Fit Center  335 is at   4.421504 -2.134099  0.473435
      ESP Fit Center  336 is at   4.421504 -5.869023  0.473435
      ESP Fit Center  337 is at   5.084283 -5.037924  0.473435
      ESP Fit Center  338 is at   5.320826 -4.001561 -0.616917
      ESP Fit Center  339 is at   5.084283 -2.965198 -0.616917
      ESP Fit Center  340 is at   5.084283 -5.037924 -0.616917
      ESP Fit Center  341 is at   4.847740 -4.001561 -1.599291
      ESP Fit Center  342 is at   4.543663 -2.965970 -1.599291
      ESP Fit Center  343 is at   4.543663 -5.037152 -1.599291
      ESP Fit Center  344 is at   3.995268 -4.001561 -2.279115
      ESP Fit Center  345 is at   2.400745 -4.922159 -2.279115
      ESP Fit Center  346 is at   3.463761 -4.922159 -2.279115
      ESP Fit Center  347 is at   2.932253 -4.001561 -2.521741
      ESP Fit Center  348 is at   2.293429 -5.257634  3.175937
      ESP Fit Center  349 is at   2.818429 -4.348307  2.894590
      ESP Fit Center  350 is at   1.768429 -6.166961  2.894590
      ESP Fit Center  351 is at   1.560211 -4.787652  3.403809
      ESP Fit Center  352 is at   1.865359 -3.848503  3.082958
      ESP Fit Center  353 is at   0.761324 -4.207226  3.082958
      ESP Fit Center  354 is at   0.761324 -5.368078  3.082958
      ESP Fit Center  355 is at   1.865359 -5.726801  3.082958
      ESP Fit Center  356 is at   1.837662 -3.214151  2.242958
      ESP Fit Center  357 is at   0.761324 -3.403938  2.242958
      ESP Fit Center  358 is at   0.058794 -4.241181  2.242958
      ESP Fit Center  359 is at   0.058794 -5.334123  2.242958
      ESP Fit Center  360 is at   0.058794 -4.241181  1.204660
      ESP Fit Center  361 is at   0.058794 -5.334123  1.204660
      ESP Fit Center  362 is at   3.129142 -5.538200  3.383987
      ESP Fit Center  363 is at   4.116621 -5.538200  3.063136
      ESP Fit Center  364 is at   3.434290 -4.599051  3.063136
      ESP Fit Center  365 is at   2.330255 -6.118626  3.063136
      ESP Fit Center  366 is at   3.434290 -6.477349  3.063136
      ESP Fit Center  367 is at   4.726917 -5.538200  2.223136
      ESP Fit Center  368 is at   4.353109 -4.511170  2.223136
      ESP Fit Center  369 is at   4.726917 -5.538200  1.184838
      ESP Fit Center  370 is at   1.111417 -7.050873  2.850746
      ESP Fit Center  371 is at   2.098896 -7.050873  2.529895
      ESP Fit Center  372 is at   0.312530 -6.470447  2.529895
      ESP Fit Center  373 is at   0.312530 -7.631299  2.529895
      ESP Fit Center  374 is at  -0.390000 -6.504402  1.689895
      ESP Fit Center  375 is at  -0.390000 -7.597344  1.689895
      ESP Fit Center  376 is at  -0.390000 -7.597344  0.651597
      ESP Fit Center  377 is at   0.312530 -8.434587  0.651597
      ESP Fit Center  378 is at  -0.529492 -5.666868  0.174074
      ESP Fit Center  379 is at  -0.529492 -6.759810  0.174074
      ESP Fit Center  380 is at  -0.529492 -5.666868 -0.864224
      ESP Fit Center  381 is at  -0.529492 -6.759810 -0.864224
      ESP Fit Center  382 is at   0.173038 -7.597053 -0.864224
      ESP Fit Center  383 is at   1.277073 -5.274190 -1.704224
      ESP Fit Center  384 is at   0.173038 -5.632913 -1.704224
      ESP Fit Center  385 is at   0.173038 -6.793765 -1.704224
      ESP Fit Center  386 is at   0.971925 -6.213339 -2.025075
      ESP Fit Center  387 is at   5.241325 -7.626253  0.168686
      ESP Fit Center  388 is at   5.004782 -6.589890  0.168686
      ESP Fit Center  389 is at   0.700722 -8.662616  0.168686
      ESP Fit Center  390 is at   5.241325 -7.626253 -0.921666
      ESP Fit Center  391 is at   5.004782 -6.589890 -0.921666
      ESP Fit Center  392 is at   0.700722 -8.662616 -0.921666
      ESP Fit Center  393 is at   1.363501 -9.493715 -0.921666
      ESP Fit Center  394 is at   2.321244 -9.954940 -0.921666
      ESP Fit Center  395 is at   3.384260 -9.954940 -0.921666
      ESP Fit Center  396 is at   5.004782 -8.662616 -0.921666
      ESP Fit Center  397 is at   4.768239 -7.626253 -1.904040
      ESP Fit Center  398 is at   4.464162 -6.590662 -1.904040
      ESP Fit Center  399 is at   3.648474 -5.883865 -1.904040
      ESP Fit Center  400 is at   2.580150 -5.730263 -1.904040
      ESP Fit Center  401 is at   1.598375 -6.178624 -1.904040
      ESP Fit Center  402 is at   1.014856 -7.086598 -1.904040
      ESP Fit Center  403 is at   1.014856 -8.165908 -1.904040
      ESP Fit Center  404 is at   1.598375 -9.073882 -1.904040
      ESP Fit Center  405 is at   2.580150 -9.522243 -1.904040
      ESP Fit Center  406 is at   3.648474 -9.368641 -1.904040
      ESP Fit Center  407 is at   4.464162 -8.661844 -1.904040
      ESP Fit Center  408 is at   3.915767 -7.626253 -2.583864
      ESP Fit Center  409 is at   3.384260 -6.705655 -2.583864
      ESP Fit Center  410 is at   2.321244 -6.705655 -2.583864
      ESP Fit Center  411 is at   1.789737 -7.626253 -2.583864
      ESP Fit Center  412 is at   2.321244 -8.546851 -2.583864
      ESP Fit Center  413 is at   3.384260 -8.546851 -2.583864
      ESP Fit Center  414 is at   2.852752 -7.626253 -2.826490
      ESP Fit Center  415 is at   5.326942 -8.563880  2.089358
      ESP Fit Center  416 is at   5.367747 -7.587961  1.039358
      ESP Fit Center  417 is at   5.402534 -9.024266  2.024714
      ESP Fit Center  418 is at   6.012830 -9.024266  1.184714
      ESP Fit Center  419 is at   5.639022 -7.997236  1.184714
      ESP Fit Center  420 is at   4.692506-10.597767  1.184714
      ESP Fit Center  421 is at   5.639022-10.051296  1.184714
      ESP Fit Center  422 is at   6.012830 -9.024266  0.146416
      ESP Fit Center  423 is at   5.639022 -7.997236  0.146416
      ESP Fit Center  424 is at   4.692506-10.597767  0.146416
      ESP Fit Center  425 is at   5.639022-10.051296  0.146416
      ESP Fit Center  426 is at   5.402534 -9.024266 -0.693584
      ESP Fit Center  427 is at   4.720203 -9.963415 -0.693584
      ESP Fit Center  428 is at   3.810495 -7.873708  3.498537
      ESP Fit Center  429 is at   4.797974 -7.873708  3.177686
      ESP Fit Center  430 is at   4.115643 -6.934559  3.177686
      ESP Fit Center  431 is at   3.011608 -7.293282  3.177686
      ESP Fit Center  432 is at   4.115643 -8.812857  3.177686
      ESP Fit Center  433 is at   5.408270 -7.873708  2.337686
      ESP Fit Center  434 is at   5.034462 -6.846678  2.337686
      ESP Fit Center  435 is at   2.309078 -7.327237  2.337686
      ESP Fit Center  436 is at   5.034462 -6.846678  1.299388
      ESP Fit Center  437 is at   3.096096 -8.724018  3.411977
      ESP Fit Center  438 is at   1.380131-11.007791  2.643324
      ESP Fit Center  439 is at   1.652048 -9.205067  3.658352
      ESP Fit Center  440 is at   1.957196 -8.265918  3.337501
      ESP Fit Center  441 is at   0.853161 -8.624641  3.337501
      ESP Fit Center  442 is at   0.853161 -9.785493  3.337501
      ESP Fit Center  443 is at   0.150631 -8.658596  2.497501
      ESP Fit Center  444 is at   0.150631 -9.751538  2.497501
      ESP Fit Center  445 is at   0.853161-10.588781  2.497501
      ESP Fit Center  446 is at   0.150631 -8.658596  1.459203
      ESP Fit Center  447 is at   0.150631 -9.751538  1.459203
      ESP Fit Center  448 is at   0.807130-10.897855  1.344442
      ESP Fit Center  449 is at   1.509660-11.735098  1.344442
      ESP Fit Center  450 is at   2.585998-11.924885  1.344442
      ESP Fit Center  451 is at   0.807130 -9.804913  0.306144
      ESP Fit Center  452 is at   0.807130-10.897855  0.306144
      ESP Fit Center  453 is at   1.509660-11.735098  0.306144
      ESP Fit Center  454 is at   2.585998-11.924885  0.306144
      ESP Fit Center  455 is at   3.532514-11.378414  0.306144
      ESP Fit Center  456 is at   3.296026-10.351384 -0.533856
      ESP Fit Center  457 is at   1.509660 -9.770958 -0.533856
      ESP Fit Center  458 is at   1.509660-10.931810 -0.533856
      ESP Fit Center  459 is at   2.613695-11.290533 -0.533856
      ESP Fit Center  460 is at   2.308547-10.351384 -0.854707
      ESP Fit Center  461 is at   3.053214-10.165341  4.088959
      ESP Fit Center  462 is at   4.040693-10.165341  3.768108
      ESP Fit Center  463 is at   3.358362 -9.226192  3.768108
      ESP Fit Center  464 is at   2.254327 -9.584915  3.768108
      ESP Fit Center  465 is at   2.254327-10.745767  3.768108
      ESP Fit Center  466 is at   3.358362-11.104490  3.768108
      ESP Fit Center  467 is at   4.650989-10.165341  2.928108
      ESP Fit Center  468 is at   4.277181 -9.138311  2.928108
      ESP Fit Center  469 is at   2.254327-11.549055  2.928108
      ESP Fit Center  470 is at   3.330665-11.738842  2.928108
      ESP Fit Center  471 is at   4.277181-11.192371  2.928108
      ESP Fit Center  472 is at   4.650989-10.165341  1.889810
      ESP Fit Center  473 is at   3.330665-11.738842  1.889810
      ESP Fit Center  474 is at   4.277181-11.192371  1.889810
      ESP Fit Center  475 is at  -4.089210  6.207197 -0.700964
      ESP Fit Center  476 is at  -6.976804  3.485155 -1.663290
      ESP Fit Center  477 is at  -5.389353  6.781531 -2.731390
      ESP Fit Center  478 is at  -6.327551  6.329718 -2.731390
      ESP Fit Center  479 is at  -5.135732  6.357665 -3.693716
      ESP Fit Center  480 is at  -3.827372  4.500368 -4.359665
      ESP Fit Center  481 is at  -5.937231  5.781430  0.258299
      ESP Fit Center  482 is at  -6.417231  4.950046  0.258299
      ESP Fit Center  483 is at  -4.943407  6.531433 -0.444470
      ESP Fit Center  484 is at  -5.971055  6.531433 -0.444470
      ESP Fit Center  485 is at  -6.802439  5.927397 -0.444470
      ESP Fit Center  486 is at  -7.120000  4.950046 -0.444470
      ESP Fit Center  487 is at  -6.802439  3.972695 -0.444470
      ESP Fit Center  488 is at  -5.457231  6.870046 -1.404470
      ESP Fit Center  489 is at  -6.417231  6.612815 -1.404470
      ESP Fit Center  490 is at  -7.120000  5.910046 -1.404470
      ESP Fit Center  491 is at  -7.377231  4.950046 -1.404470
      ESP Fit Center  492 is at  -7.120000  3.990046 -1.404470
      ESP Fit Center  493 is at  -6.802439  5.927397 -2.364470
      ESP Fit Center  494 is at  -3.517929  5.955076 -0.707626
      ESP Fit Center  495 is at  -2.335160  5.123692 -1.410395
      ESP Fit Center  496 is at  -2.652721  6.101043 -1.410395
      ESP Fit Center  497 is at  -3.484105  6.705079 -1.410395
      ESP Fit Center  498 is at  -2.077929  5.123692 -2.370395
      ESP Fit Center  499 is at  -2.335160  6.083692 -2.370395
      ESP Fit Center  500 is at  -3.037929  6.786461 -2.370395
      ESP Fit Center  501 is at  -3.997929  7.043692 -2.370395
      ESP Fit Center  502 is at  -2.335160  4.163692 -2.370395
      ESP Fit Center  503 is at  -2.335160  5.123692 -3.330395
      ESP Fit Center  504 is at  -2.652721  6.101043 -3.330395
      ESP Fit Center  505 is at  -3.484105  6.705079 -3.330395
      ESP Fit Center  506 is at  -4.511753  6.705079 -3.330395
      ESP Fit Center  507 is at  -2.652721  4.146341 -3.330395
      ESP Fit Center  508 is at  -3.037929  5.123692 -4.033164
      ESP Fit Center  509 is at  -3.517929  5.955076 -4.033164
      ESP Fit Center  510 is at  -6.434607  6.163474 -3.098441
      ESP Fit Center  511 is at  -7.137376  5.460705 -3.098441
      ESP Fit Center  512 is at  -7.394607  4.500705 -3.098441
      ESP Fit Center  513 is at  -7.137376  3.540705 -3.098441
      ESP Fit Center  514 is at  -4.960783  6.082092 -4.058441
      ESP Fit Center  515 is at  -5.988431  6.082092 -4.058441
      ESP Fit Center  516 is at  -6.819815  5.478056 -4.058441
      ESP Fit Center  517 is at  -7.137376  4.500705 -4.058441
      ESP Fit Center  518 is at  -6.819815  3.523354 -4.058441
      ESP Fit Center  519 is at  -5.988431  2.919318 -4.058441
      ESP Fit Center  520 is at  -4.514607  4.500705 -4.761210
      ESP Fit Center  521 is at  -4.994607  5.332089 -4.761210
      ESP Fit Center  522 is at  -5.954607  5.332089 -4.761210
      ESP Fit Center  523 is at  -6.434607  4.500705 -4.761210
      ESP Fit Center  524 is at  -5.954607  3.669321 -4.761210
      ESP Fit Center  525 is at  -4.994607  3.669321 -4.761210
      ESP Fit Center  526 is at  -5.474607  4.500705 -5.018441
      ESP Fit Center  527 is at  -3.921258  0.797695 -1.321749
      ESP Fit Center  528 is at  -2.333807  4.094071 -2.389849
      ESP Fit Center  529 is at  -6.242306  2.550216 -3.352175
      ESP Fit Center  530 is at  -6.658849  3.435171 -0.698032
      ESP Fit Center  531 is at  -6.976410  2.457820 -0.698032
      ESP Fit Center  532 is at  -6.658849  1.480469 -0.698032
      ESP Fit Center  533 is at  -5.827465  0.876433 -0.698032
      ESP Fit Center  534 is at  -4.799817  0.876433 -0.698032
      ESP Fit Center  535 is at  -6.976410  3.417820 -1.658032
      ESP Fit Center  536 is at  -7.233641  2.457820 -1.658032
      ESP Fit Center  537 is at  -6.976410  1.497820 -1.658032
      ESP Fit Center  538 is at  -6.273641  0.795051 -1.658032
      ESP Fit Center  539 is at  -5.313641  0.537820 -1.658032
      ESP Fit Center  540 is at  -6.976410  2.457820 -2.618032
      ESP Fit Center  541 is at  -6.658849  1.480469 -2.618032
      ESP Fit Center  542 is at  -5.827465  0.876433 -2.618032
      ESP Fit Center  543 is at  -6.273641  2.457820 -3.320801
      ESP Fit Center  544 is at  -5.793641  1.626436 -3.320801
      ESP Fit Center  545 is at  -1.994578  2.643498 -2.694994
      ESP Fit Center  546 is at  -2.251809  3.603498 -2.694994
      ESP Fit Center  547 is at  -3.914578  0.723498 -2.694994
      ESP Fit Center  548 is at  -2.954578  0.980729 -2.694994
      ESP Fit Center  549 is at  -2.251809  1.683498 -2.694994
      ESP Fit Center  550 is at  -2.251809  2.643498 -3.654994
      ESP Fit Center  551 is at  -2.569370  3.620849 -3.654994
      ESP Fit Center  552 is at  -5.259786  1.666147 -3.654994
      ESP Fit Center  553 is at  -4.428402  1.062111 -3.654994
      ESP Fit Center  554 is at  -3.400754  1.062111 -3.654994
      ESP Fit Center  555 is at  -2.569370  1.666147 -3.654994
      ESP Fit Center  556 is at  -2.954578  2.643498 -4.357763
      ESP Fit Center  557 is at  -3.434578  3.474882 -4.357763
      ESP Fit Center  558 is at  -4.394578  3.474882 -4.357763
      ESP Fit Center  559 is at  -4.874578  2.643498 -4.357763
      ESP Fit Center  560 is at  -4.394578  1.812114 -4.357763
      ESP Fit Center  561 is at  -3.434578  1.812114 -4.357763
      ESP Fit Center  562 is at  -3.914578  2.643498 -4.614994
      ESP Fit Center  563 is at  -2.313148  4.807174 -0.276171
      ESP Fit Center  564 is at  -1.620017  4.024790 -1.273065
      ESP Fit Center  565 is at  -2.313148  4.807174 -1.273065
      ESP Fit Center  566 is at  -1.802407  3.009910 -2.171235
      ESP Fit Center  567 is at  -2.136876  4.039300 -2.171235
      ESP Fit Center  568 is at  -2.136876  1.980520 -2.171235
      ESP Fit Center  569 is at  -5.899604  3.742741  1.989998
      ESP Fit Center  570 is at  -6.207327  4.229312  1.027672
      ESP Fit Center  571 is at  -2.640358  5.043449 -0.040428
      ESP Fit Center  572 is at  -5.988013  2.659748  2.269383
      ESP Fit Center  573 is at  -5.508013  1.828364  2.269383
      ESP Fit Center  574 is at  -6.373221  3.637099  1.566614
      ESP Fit Center  575 is at  -6.690782  2.659748  1.566614
      ESP Fit Center  576 is at  -6.373221  1.682397  1.566614
      ESP Fit Center  577 is at  -5.541837  1.078361  1.566614
      ESP Fit Center  578 is at  -6.690782  3.619748  0.606614
      ESP Fit Center  579 is at  -6.948013  2.659748  0.606614
      ESP Fit Center  580 is at  -6.690782  1.699748  0.606614
      ESP Fit Center  581 is at  -5.988013  0.996979  0.606614
      ESP Fit Center  582 is at  -5.028013  0.739748  0.606614
      ESP Fit Center  583 is at  -3.831435  5.099493  2.325930
      ESP Fit Center  584 is at  -4.791435  5.099493  2.325930
      ESP Fit Center  585 is at  -5.271435  4.268109  2.325930
      ESP Fit Center  586 is at  -2.966227  5.245460  1.623161
      ESP Fit Center  587 is at  -3.797611  5.849496  1.623161
      ESP Fit Center  588 is at  -4.825259  5.849496  1.623161
      ESP Fit Center  589 is at  -5.656643  5.245460  1.623161
      ESP Fit Center  590 is at  -5.974204  4.268109  1.623161
      ESP Fit Center  591 is at  -2.648666  5.228109  0.663161
      ESP Fit Center  592 is at  -3.351435  5.930878  0.663161
      ESP Fit Center  593 is at  -4.311435  6.188109  0.663161
      ESP Fit Center  594 is at  -5.271435  5.930878  0.663161
      ESP Fit Center  595 is at  -5.974204  5.228109  0.663161
      ESP Fit Center  596 is at  -2.966227  5.245460 -0.296839
      ESP Fit Center  597 is at  -3.797611  5.849496 -0.296839
      ESP Fit Center  598 is at  -2.584755  5.018872  2.063493
      ESP Fit Center  599 is at  -1.181265  3.194000  2.990733
      ESP Fit Center  600 is at  -1.661265  4.025384  2.990733
      ESP Fit Center  601 is at  -0.478496  3.194000  2.287964
      ESP Fit Center  602 is at  -0.796057  4.171351  2.287964
      ESP Fit Center  603 is at  -1.627441  4.775387  2.287964
      ESP Fit Center  604 is at  -0.221265  3.194000  1.327964
      ESP Fit Center  605 is at  -0.478496  4.154000  1.327964
      ESP Fit Center  606 is at  -1.181265  4.856769  1.327964
      ESP Fit Center  607 is at  -2.141265  5.114000  1.327964
      ESP Fit Center  608 is at  -0.478496  3.194000  0.367964
      ESP Fit Center  609 is at  -0.796057  4.171351  0.367964
      ESP Fit Center  610 is at  -1.627441  4.775387  0.367964
      ESP Fit Center  611 is at  -3.430214  3.063331  4.434771
      ESP Fit Center  612 is at  -2.470214  3.063331  4.177540
      ESP Fit Center  613 is at  -2.950214  3.894715  4.177540
      ESP Fit Center  614 is at  -3.910214  3.894715  4.177540
      ESP Fit Center  615 is at  -4.390214  3.063331  4.177540
      ESP Fit Center  616 is at  -3.910214  2.231947  4.177540
      ESP Fit Center  617 is at  -2.950214  2.231947  4.177540
      ESP Fit Center  618 is at  -2.085006  4.040682  3.474771
      ESP Fit Center  619 is at  -2.916390  4.644718  3.474771
      ESP Fit Center  620 is at  -3.944038  4.644718  3.474771
      ESP Fit Center  621 is at  -4.775422  4.040682  3.474771
      ESP Fit Center  622 is at  -5.092983  3.063331  3.474771
      ESP Fit Center  623 is at  -4.775422  2.085980  3.474771
      ESP Fit Center  624 is at  -3.430214  4.983331  2.514771
      ESP Fit Center  625 is at  -3.021773  1.341089  3.753720
      ESP Fit Center  626 is at  -3.993673  1.341089  3.531890
      ESP Fit Center  627 is at  -3.507723  0.499399  3.531890
      ESP Fit Center  628 is at  -4.773076  1.341089  2.910337
      ESP Fit Center  629 is at  -4.438607  0.311699  2.910337
      ESP Fit Center  630 is at  -3.562955 -0.324499  2.910337
      ESP Fit Center  631 is at  -5.142153  0.818462  2.012167
      ESP Fit Center  632 is at  -4.656400 -0.107064  2.012167
      ESP Fit Center  633 is at  -3.796173 -0.700835  2.012167
      ESP Fit Center  634 is at  -4.656400 -0.107064  1.015273
      ESP Fit Center  635 is at  -3.796173 -0.700835  1.015273
      ESP Fit Center  636 is at  -4.438607  0.311699  0.117103
      ESP Fit Center  637 is at  -1.746077  0.770702  3.868276
      ESP Fit Center  638 is at  -2.266737  1.672512  3.630601
      ESP Fit Center  639 is at  -0.167553 -0.243754  2.964652
      ESP Fit Center  640 is at  -1.823448 -0.216416  3.825566
      ESP Fit Center  641 is at  -0.863448 -0.216416  3.568335
      ESP Fit Center  642 is at  -2.783448 -0.216416  3.568335
      ESP Fit Center  643 is at  -2.303448 -1.047800  3.568335
      ESP Fit Center  644 is at  -1.343448 -1.047800  3.568335
      ESP Fit Center  645 is at  -3.168656 -1.193767  2.865566
      ESP Fit Center  646 is at  -2.337272 -1.797803  2.865566
      ESP Fit Center  647 is at  -1.309624 -1.797803  2.865566
      ESP Fit Center  648 is at  -0.478240 -1.193767  2.865566
      ESP Fit Center  649 is at  -3.486217 -1.176416  1.905566
      ESP Fit Center  650 is at  -2.783448 -1.879185  1.905566
      ESP Fit Center  651 is at  -1.823448 -2.136416  1.905566
      ESP Fit Center  652 is at  -0.863448 -1.879185  1.905566
      ESP Fit Center  653 is at  -0.160679 -1.176416  1.905566
      ESP Fit Center  654 is at  -3.168656 -1.193767  0.945566
      ESP Fit Center  655 is at  -2.337272 -1.797803  0.945566
      ESP Fit Center  656 is at  -1.309624 -1.797803  0.945566
      ESP Fit Center  657 is at  -1.043321  1.340269  3.991990
      ESP Fit Center  658 is at  -0.083321  1.340269  3.734759
      ESP Fit Center  659 is at  -0.563321  2.171653  3.734759
      ESP Fit Center  660 is at  -1.523321  2.171653  3.734759
      ESP Fit Center  661 is at  -0.563321  0.508885  3.734759
      ESP Fit Center  662 is at   0.619448  1.340269  3.031990
      ESP Fit Center  663 is at   0.301887  2.317620  3.031990
      ESP Fit Center  664 is at  -0.529497  2.921656  3.031990
      ESP Fit Center  665 is at   0.301887  0.362918  3.031990
      ESP Fit Center  666 is at  -0.083321  3.003038  2.071990
      ESP Fit Center  667 is at  -1.770087 -1.640881  0.567234
      ESP Fit Center  668 is at  -0.728767 -0.261528 -2.129141
      ESP Fit Center  669 is at  -1.249427  0.640282 -2.366816
      ESP Fit Center  670 is at  -0.245397  3.270828 -0.453958
      ESP Fit Center  671 is at  -1.205397  3.528059 -0.453958
      ESP Fit Center  672 is at  -0.691573  3.189446 -1.413958
      ESP Fit Center  673 is at  -0.725397  2.439443 -2.116727
      ESP Fit Center  674 is at  -1.685397  2.439443 -2.116727
      ESP Fit Center  675 is at  -2.165397  1.608059 -2.116727
      ESP Fit Center  676 is at  -1.205397  1.608059 -2.373958
      ESP Fit Center  677 is at  -3.291699 -0.949081  0.436002
      ESP Fit Center  678 is at  -2.460315 -1.553117  0.436002
      ESP Fit Center  679 is at  -3.866491  0.028270 -0.523998
      ESP Fit Center  680 is at  -3.609260 -0.931730 -0.523998
      ESP Fit Center  681 is at  -2.906491 -1.634499 -0.523998
      ESP Fit Center  682 is at  -1.946491 -1.891730 -0.523998
      ESP Fit Center  683 is at  -3.609260  0.028270 -1.483998
      ESP Fit Center  684 is at  -3.291699 -0.949081 -1.483998
      ESP Fit Center  685 is at  -2.460315 -1.553117 -1.483998
      ESP Fit Center  686 is at  -1.432667 -1.553117 -1.483998
      ESP Fit Center  687 is at  -2.426491  0.859654 -2.186767
      ESP Fit Center  688 is at  -2.906491  0.028270 -2.186767
      ESP Fit Center  689 is at  -2.426491 -0.803114 -2.186767
      ESP Fit Center  690 is at  -1.466491 -0.803114 -2.186767
      ESP Fit Center  691 is at  -1.946491  0.028270 -2.443998
      ESP Fit Center  692 is at   0.485950 -0.841690  2.018170
      ESP Fit Center  693 is at  -0.541182 -1.665588  1.396617
      ESP Fit Center  694 is at   0.596675 -0.060531  2.162325
      ESP Fit Center  695 is at   1.120436  1.470377  2.809759
      ESP Fit Center  696 is at   2.080436  1.470377  2.552528
      ESP Fit Center  697 is at   1.600436  2.301761  2.552528
      ESP Fit Center  698 is at   0.640436  2.301761  2.552528
      ESP Fit Center  699 is at   1.600436  0.638993  2.552528
      ESP Fit Center  700 is at   2.465644  2.447728  1.849759
      ESP Fit Center  701 is at   1.634260  3.051764  1.849759
      ESP Fit Center  702 is at   0.606612  3.051764  1.849759
      ESP Fit Center  703 is at   2.783205  2.430377  0.889759
      ESP Fit Center  704 is at   2.080436  3.133146  0.889759
      ESP Fit Center  705 is at   1.120436  3.390377  0.889759
      ESP Fit Center  706 is at   0.160436  3.133146  0.889759
      ESP Fit Center  707 is at   2.761262  2.453264 -0.868923
      ESP Fit Center  708 is at   2.058493  3.156033 -0.868923
      ESP Fit Center  709 is at   1.098493  3.413264 -0.868923
      ESP Fit Center  710 is at   0.138493  3.156033 -0.868923
      ESP Fit Center  711 is at   2.443701  2.470615 -1.828923
      ESP Fit Center  712 is at   1.612317  3.074651 -1.828923
      ESP Fit Center  713 is at   0.584669  3.074651 -1.828923
      ESP Fit Center  714 is at   1.578493  2.324648 -2.531692
      ESP Fit Center  715 is at   0.618493  2.324648 -2.531692
      ESP Fit Center  716 is at   0.138493  1.493264 -2.531692
      ESP Fit Center  717 is at   0.618493  0.661880 -2.531692
      ESP Fit Center  718 is at   1.098493  1.493264 -2.788923
      ESP Fit Center  719 is at   2.901760  0.901810  2.162325
      ESP Fit Center  720 is at   2.366158 -0.694503  2.750003
      ESP Fit Center  721 is at   3.326158 -0.694503  2.492772
      ESP Fit Center  722 is at   2.846158  0.136881  2.492772
      ESP Fit Center  723 is at   1.886158  0.136881  2.492772
      ESP Fit Center  724 is at   1.406158 -0.694503  2.492772
      ESP Fit Center  725 is at   1.886158 -1.525887  2.492772
      ESP Fit Center  726 is at   2.846158 -1.525887  2.492772
      ESP Fit Center  727 is at   4.028927 -0.694503  1.790003
      ESP Fit Center  728 is at   3.711366 -1.671854  1.790003
      ESP Fit Center  729 is at   4.193380  0.653911  1.811134
      ESP Fit Center  730 is at   3.713380  1.485295  1.811134
      ESP Fit Center  731 is at   4.896149  0.653911  1.108365
      ESP Fit Center  732 is at   4.578588  1.631262  1.108365
      ESP Fit Center  733 is at   3.747204  2.235298  1.108365
      ESP Fit Center  734 is at   4.578588 -0.323440  1.108365
      ESP Fit Center  735 is at   5.153380  0.653911  0.148365
      ESP Fit Center  736 is at   4.896149  1.613911  0.148365
      ESP Fit Center  737 is at   4.193380  2.316680  0.148365
      ESP Fit Center  738 is at   3.233380  2.573911  0.148365
      ESP Fit Center  739 is at   4.578588  1.631262 -0.811635
      ESP Fit Center  740 is at   3.747204  2.235298 -0.811635
      ESP Fit Center  741 is at   4.749064 -0.875043  0.437139
      ESP Fit Center  742 is at   5.356028 -0.875043 -0.471246
      ESP Fit Center  743 is at   5.132382  0.177129 -0.471246
      ESP Fit Center  744 is at   5.132382 -1.927215 -0.471246
      ESP Fit Center  745 is at   5.569165 -0.875043 -1.542760
      ESP Fit Center  746 is at   5.380087  0.136434 -1.542760
      ESP Fit Center  747 is at   4.838390  1.011305 -1.542760
      ESP Fit Center  748 is at   4.017232  1.631414 -1.542760
      ESP Fit Center  749 is at   3.027516  1.913013 -1.542760
      ESP Fit Center  750 is at   5.380087 -1.886520 -1.542760
      ESP Fit Center  751 is at   5.356028 -0.875043 -2.614274
      ESP Fit Center  752 is at   5.132382  0.177129 -2.614274
      ESP Fit Center  753 is at   4.500114  1.047371 -2.614274
      ESP Fit Center  754 is at   3.568550  1.585210 -2.614274
      ESP Fit Center  755 is at   2.498764  1.697649 -2.614274
      ESP Fit Center  756 is at   0.676349  0.645477 -2.614274
      ESP Fit Center  757 is at   4.500114 -2.797457 -2.614274
      ESP Fit Center  758 is at   5.132382 -1.927215 -2.614274
      ESP Fit Center  759 is at   4.749064 -0.875043 -3.522659
      ESP Fit Center  760 is at   4.483808  0.114906 -3.522659
      ESP Fit Center  761 is at   3.759114  0.839600 -3.522659
      ESP Fit Center  762 is at   2.769165  1.104856 -3.522659
      ESP Fit Center  763 is at   1.779216  0.839600 -3.522659
      ESP Fit Center  764 is at   1.054522  0.114906 -3.522659
      ESP Fit Center  765 is at   3.759114 -2.589686 -3.522659
      ESP Fit Center  766 is at   4.483808 -1.864992 -3.522659
      ESP Fit Center  767 is at   3.840679 -0.875043 -4.129623
      ESP Fit Center  768 is at   3.304922  0.052915 -4.129623
      ESP Fit Center  769 is at   2.233408  0.052915 -4.129623
      ESP Fit Center  770 is at   1.697651 -0.875043 -4.129623
      ESP Fit Center  771 is at   3.304922 -1.803001 -4.129623
      ESP Fit Center  772 is at   2.769165 -0.875043 -4.342760
      ESP Fit Center  773 is at   0.996386 -1.288696 -3.827081
      ESP Fit Center  774 is at   0.475725 -2.190506 -3.827081
      ESP Fit Center  775 is at  -1.110676 -1.744861 -0.894218
      ESP Fit Center  776 is at  -1.367907 -1.744861 -1.854218
      ESP Fit Center  777 is at  -1.110676 -2.704861 -1.854218
      ESP Fit Center  778 is at   0.038269 -0.163474 -2.814218
      ESP Fit Center  779 is at  -0.793115 -0.767510 -2.814218
      ESP Fit Center  780 is at  -1.110676 -1.744861 -2.814218
      ESP Fit Center  781 is at  -0.793115 -2.722212 -2.814218
      ESP Fit Center  782 is at   0.072093 -0.913477 -3.516987
      ESP Fit Center  783 is at  -0.407907 -1.744861 -3.516987
      ESP Fit Center  784 is at   3.475321 -2.745276 -3.507210
      ESP Fit Center  785 is at   0.467344 -3.722627 -3.507210
      ESP Fit Center  786 is at   1.298728 -4.326663 -3.507210
      ESP Fit Center  787 is at   2.326376 -4.326663 -3.507210
      ESP Fit Center  788 is at   3.157760 -3.722627 -3.507210
      ESP Fit Center  789 is at   2.772552 -2.745276 -4.209979
      ESP Fit Center  790 is at   2.292552 -1.913892 -4.209979
      ESP Fit Center  791 is at   1.332552 -1.913892 -4.209979
      ESP Fit Center  792 is at   0.852552 -2.745276 -4.209979
      ESP Fit Center  793 is at   1.332552 -3.576660 -4.209979
      ESP Fit Center  794 is at   2.292552 -3.576660 -4.209979
      ESP Fit Center  795 is at   1.812552 -2.745276 -4.467210
      ESP Fit Center  796 is at  -0.959653 -3.138853  0.057190
      ESP Fit Center  797 is at  -1.035298 -3.873963  0.220622
      ESP Fit Center  798 is at  -0.717737 -4.851314  0.220622
      ESP Fit Center  799 is at  -1.035298 -2.913963 -0.739378
      ESP Fit Center  800 is at  -1.292529 -3.873963 -0.739378
      ESP Fit Center  801 is at  -1.035298 -4.833963 -0.739378
      ESP Fit Center  802 is at  -1.035298 -3.873963 -1.699378
      ESP Fit Center  803 is at  -0.717737 -4.851314 -1.699378
      ESP Fit Center  804 is at  -0.332529 -3.873963 -2.402147
      ESP Fit Center  805 is at   0.147471 -4.705347 -2.402147
      ESP Fit Center  806 is at   1.107471 -4.705347 -2.402147
      ESP Fit Center  807 is at   1.020138 -2.602715  2.310711
      ESP Fit Center  808 is at   0.540138 -1.771331  2.053480
      ESP Fit Center  809 is at   0.060138 -2.602715  2.053480
      ESP Fit Center  810 is at  -0.642631 -2.602715  1.350711
      ESP Fit Center  811 is at  -0.325070 -3.580066  1.350711
      ESP Fit Center  812 is at  -0.899862 -2.602715  0.390711
      ESP Fit Center  813 is at   4.003767 -4.001561  2.515122
      ESP Fit Center  814 is at   3.468010 -3.073603  2.515122
      ESP Fit Center  815 is at   2.396496 -3.073603  2.515122
      ESP Fit Center  816 is at   4.912152 -4.001561  1.908158
      ESP Fit Center  817 is at   4.646896 -3.011612  1.908158
      ESP Fit Center  818 is at   3.922202 -2.286918  1.908158
      ESP Fit Center  819 is at   5.519116 -4.001561  0.999773
      ESP Fit Center  820 is at   5.295470 -2.949389  0.999773
      ESP Fit Center  821 is at   4.663202 -2.079147  0.999773
      ESP Fit Center  822 is at   5.295470 -5.053733  0.999773
      ESP Fit Center  823 is at   5.732253 -4.001561 -0.071741
      ESP Fit Center  824 is at   5.543175 -2.990084 -0.071741
      ESP Fit Center  825 is at   5.001478 -2.115213 -0.071741
      ESP Fit Center  826 is at   5.543175 -5.013038 -0.071741
      ESP Fit Center  827 is at   5.519116 -4.001561 -1.143255
      ESP Fit Center  828 is at   5.295470 -2.949389 -1.143255
      ESP Fit Center  829 is at   5.295470 -5.053733 -1.143255
      ESP Fit Center  830 is at   4.912152 -4.001561 -2.051640
      ESP Fit Center  831 is at   4.646896 -3.011612 -2.051640
      ESP Fit Center  832 is at   4.646896 -4.991510 -2.051640
      ESP Fit Center  833 is at   4.003767 -4.001561 -2.658604
      ESP Fit Center  834 is at   2.396496 -4.929519 -2.658604
      ESP Fit Center  835 is at   3.468010 -4.929519 -2.658604
      ESP Fit Center  836 is at   2.293429 -5.257634  3.475937
      ESP Fit Center  837 is at   2.814089 -4.355824  3.238262
      ESP Fit Center  838 is at   1.772769 -6.159444  3.238262
      ESP Fit Center  839 is at   1.560211 -4.787652  3.643809
      ESP Fit Center  840 is at   2.040211 -3.956268  3.386578
      ESP Fit Center  841 is at   1.080211 -3.956268  3.386578
      ESP Fit Center  842 is at   0.600211 -4.787652  3.386578
      ESP Fit Center  843 is at   1.080211 -5.619036  3.386578
      ESP Fit Center  844 is at   2.074035 -3.206265  2.683809
      ESP Fit Center  845 is at   1.046387 -3.206265  2.683809
      ESP Fit Center  846 is at   0.215003 -3.810301  2.683809
      ESP Fit Center  847 is at  -0.102558 -4.787652  2.683809
      ESP Fit Center  848 is at   0.215003 -5.765003  2.683809
      ESP Fit Center  849 is at  -0.102558 -3.827652  1.723809
      ESP Fit Center  850 is at  -0.359789 -4.787652  1.723809
      ESP Fit Center  851 is at   3.129142 -5.538200  3.623987
      ESP Fit Center  852 is at   4.089142 -5.538200  3.366756
      ESP Fit Center  853 is at   3.609142 -4.706816  3.366756
      ESP Fit Center  854 is at   2.649142 -6.369584  3.366756
      ESP Fit Center  855 is at   3.609142 -6.369584  3.366756
      ESP Fit Center  856 is at   4.791911 -5.538200  2.663987
      ESP Fit Center  857 is at   4.474350 -4.560849  2.663987
      ESP Fit Center  858 is at   3.642966 -3.956813  2.663987
      ESP Fit Center  859 is at   5.049142 -5.538200  1.703987
      ESP Fit Center  860 is at  -0.433394 -5.483492  0.961033
      ESP Fit Center  861 is at  -0.433394 -7.513918 -0.107067
      ESP Fit Center  862 is at   1.111417 -7.050873  3.090746
      ESP Fit Center  863 is at   2.071417 -7.050873  2.833515
      ESP Fit Center  864 is at   0.631417 -6.219489  2.833515
      ESP Fit Center  865 is at   0.151417 -7.050873  2.833515
      ESP Fit Center  866 is at  -0.233791 -6.073522  2.130746
      ESP Fit Center  867 is at  -0.551352 -7.050873  2.130746
      ESP Fit Center  868 is at  -0.233791 -8.028224  2.130746
      ESP Fit Center  869 is at  -0.808583 -7.050873  1.170746
      ESP Fit Center  870 is at  -0.551352 -8.010873  1.170746
      ESP Fit Center  871 is at  -0.233791 -8.028224  0.210746
      ESP Fit Center  872 is at  -0.373283 -5.235988  0.614925
      ESP Fit Center  873 is at  -0.690844 -5.253339 -0.345075
      ESP Fit Center  874 is at  -0.948075 -6.213339 -0.345075
      ESP Fit Center  875 is at  -0.690844 -7.173339 -0.345075
      ESP Fit Center  876 is at  -0.690844 -6.213339 -1.305075
      ESP Fit Center  877 is at  -0.373283 -7.190690 -1.305075
      ESP Fit Center  878 is at   1.451925 -5.381955 -2.007844
      ESP Fit Center  879 is at   0.491925 -5.381955 -2.007844
      ESP Fit Center  880 is at   0.011925 -6.213339 -2.007844
      ESP Fit Center  881 is at   0.491925 -7.044723 -2.007844
      ESP Fit Center  882 is at   0.971925 -6.213339 -2.265075
      ESP Fit Center  883 is at   5.215969 -6.574081  0.695024
      ESP Fit Center  884 is at   5.652752 -7.626253 -0.376490
      ESP Fit Center  885 is at   5.463674 -6.614776 -0.376490
      ESP Fit Center  886 is at   0.100427 -8.140752 -0.376490
      ESP Fit Center  887 is at   0.472144 -9.100263 -0.376490
      ESP Fit Center  888 is at   5.439615 -7.626253 -1.448004
      ESP Fit Center  889 is at   5.215969 -6.574081 -1.448004
      ESP Fit Center  890 is at   0.322418 -8.164092 -1.448004
      ESP Fit Center  891 is at   0.759936 -9.146773 -1.448004
      ESP Fit Center  892 is at   1.559321 -9.866542 -1.448004
      ESP Fit Center  893 is at   2.582351-10.198945 -1.448004
      ESP Fit Center  894 is at   3.652137-10.086506 -1.448004
      ESP Fit Center  895 is at   4.583701 -9.548667 -1.448004
      ESP Fit Center  896 is at   5.215969 -8.678425 -1.448004
      ESP Fit Center  897 is at   4.832651 -7.626253 -2.356389
      ESP Fit Center  898 is at   4.567395 -6.636304 -2.356389
      ESP Fit Center  899 is at   3.842701 -5.911610 -2.356389
      ESP Fit Center  900 is at   2.852752 -5.646354 -2.356389
      ESP Fit Center  901 is at   1.862803 -5.911610 -2.356389
      ESP Fit Center  902 is at   1.138109 -6.636304 -2.356389
      ESP Fit Center  903 is at   0.872853 -7.626253 -2.356389
      ESP Fit Center  904 is at   1.138109 -8.616202 -2.356389
      ESP Fit Center  905 is at   1.862803 -9.340896 -2.356389
      ESP Fit Center  906 is at   2.852752 -9.606152 -2.356389
      ESP Fit Center  907 is at   3.842701 -9.340896 -2.356389
      ESP Fit Center  908 is at   4.567395 -8.616202 -2.356389
      ESP Fit Center  909 is at   3.924266 -7.626253 -2.963353
      ESP Fit Center  910 is at   3.388509 -6.698295 -2.963353
      ESP Fit Center  911 is at   2.316995 -6.698295 -2.963353
      ESP Fit Center  912 is at   1.781238 -7.626253 -2.963353
      ESP Fit Center  913 is at   2.316995 -8.554211 -2.963353
      ESP Fit Center  914 is at   3.388509 -8.554211 -2.963353
      ESP Fit Center  915 is at   2.852752 -7.626253 -3.176490
      ESP Fit Center  916 is at   5.086813 -9.578336  2.535734
      ESP Fit Center  917 is at   6.077824 -9.024266  1.625565
      ESP Fit Center  918 is at   4.928879-10.605653  1.625565
      ESP Fit Center  919 is at   5.760263-10.001617  1.625565
      ESP Fit Center  920 is at   6.335055 -9.024266  0.665565
      ESP Fit Center  921 is at   6.077824 -8.064266  0.665565
      ESP Fit Center  922 is at   4.415055-10.944266  0.665565
      ESP Fit Center  923 is at   5.375055-10.687035  0.665565
      ESP Fit Center  924 is at   6.077824 -9.984266  0.665565
      ESP Fit Center  925 is at   6.077824 -9.024266 -0.294435
      ESP Fit Center  926 is at   5.760263 -8.046915 -0.294435
      ESP Fit Center  927 is at   3.901231-10.605653 -0.294435
      ESP Fit Center  928 is at   4.928879-10.605653 -0.294435
      ESP Fit Center  929 is at   5.760263-10.001617 -0.294435
      ESP Fit Center  930 is at   5.375055 -9.024266 -0.997204
      ESP Fit Center  931 is at   4.895055 -9.855650 -0.997204
      ESP Fit Center  932 is at   3.810495 -7.873708  3.738537
      ESP Fit Center  933 is at   4.770495 -7.873708  3.481306
      ESP Fit Center  934 is at   4.290495 -7.042324  3.481306
      ESP Fit Center  935 is at   3.330495 -7.042324  3.481306
      ESP Fit Center  936 is at   2.850495 -7.873708  3.481306
      ESP Fit Center  937 is at   4.290495 -8.705092  3.481306
      ESP Fit Center  938 is at   5.473264 -7.873708  2.778537
      ESP Fit Center  939 is at   5.155703 -6.896357  2.778537
      ESP Fit Center  940 is at   5.155703 -8.851059  2.778537
      ESP Fit Center  941 is at   5.730495 -7.873708  1.818537
      ESP Fit Center  942 is at   5.473264 -6.913708  1.818537
      ESP Fit Center  943 is at   3.091756 -8.731535  3.755649
      ESP Fit Center  944 is at   2.304057 -7.776048  3.089700
      ESP Fit Center  945 is at   1.342318-11.051430  3.089700
      ESP Fit Center  946 is at   1.112238-11.462695  2.127374
      ESP Fit Center  947 is at   2.050436-11.914508  2.127374
      ESP Fit Center  948 is at   4.029954-11.462695  1.059274
      ESP Fit Center  949 is at   1.652048 -9.205067  3.898352
      ESP Fit Center  950 is at   2.132048 -8.373683  3.641121
      ESP Fit Center  951 is at   1.172048 -8.373683  3.641121
      ESP Fit Center  952 is at   0.692048 -9.205067  3.641121
      ESP Fit Center  953 is at   1.172048-10.036451  3.641121
      ESP Fit Center  954 is at   2.165872 -7.623680  2.938352
      ESP Fit Center  955 is at   0.306840 -8.227716  2.938352
      ESP Fit Center  956 is at  -0.010721 -9.205067  2.938352
      ESP Fit Center  957 is at   0.306840-10.182418  2.938352
      ESP Fit Center  958 is at  -0.267952 -9.205067  1.978352
      ESP Fit Center  959 is at  -0.010721-10.165067  1.978352
      ESP Fit Center  960 is at  -0.010721 -9.205067  1.018352
      ESP Fit Center  961 is at   1.794723-11.932771  1.785293
      ESP Fit Center  962 is at   0.388547-10.351384  0.825293
      ESP Fit Center  963 is at   0.645778-11.311384  0.825293
      ESP Fit Center  964 is at   1.348547-12.014153  0.825293
      ESP Fit Center  965 is at   2.308547-12.271384  0.825293
      ESP Fit Center  966 is at   3.268547-12.014153  0.825293
      ESP Fit Center  967 is at   0.645778-10.351384 -0.134707
      ESP Fit Center  968 is at   0.963339-11.328735 -0.134707
      ESP Fit Center  969 is at   1.794723-11.932771 -0.134707
      ESP Fit Center  970 is at   2.822371-11.932771 -0.134707
      ESP Fit Center  971 is at   3.653755-11.328735 -0.134707
      ESP Fit Center  972 is at   1.348547-10.351384 -0.837476
      ESP Fit Center  973 is at   1.828547-11.182768 -0.837476
      ESP Fit Center  974 is at   2.788547-11.182768 -0.837476
      ESP Fit Center  975 is at   2.308547-10.351384 -1.094707
      ESP Fit Center  976 is at   3.053214-10.165341  4.328959
      ESP Fit Center  977 is at   4.013214-10.165341  4.071728
      ESP Fit Center  978 is at   3.533214 -9.333957  4.071728
      ESP Fit Center  979 is at   2.573214 -9.333957  4.071728
      ESP Fit Center  980 is at   2.093214-10.165341  4.071728
      ESP Fit Center  981 is at   2.573214-10.996725  4.071728
      ESP Fit Center  982 is at   3.533214-10.996725  4.071728
      ESP Fit Center  983 is at   4.715983-10.165341  3.368959
      ESP Fit Center  984 is at   4.398422 -9.187990  3.368959
      ESP Fit Center  985 is at   1.708006-11.142692  3.368959
      ESP Fit Center  986 is at   2.539390-11.746728  3.368959
      ESP Fit Center  987 is at   3.567038-11.746728  3.368959
      ESP Fit Center  988 is at   4.398422-11.142692  3.368959
      ESP Fit Center  989 is at   4.973214-10.165341  2.408959
      ESP Fit Center  990 is at   3.053214-12.085341  2.408959
      ESP Fit Center  991 is at   4.013214-11.828110  2.408959
      ESP Fit Center  992 is at   4.715983-11.125341  2.408959
      ESP Fit Center  993 is at  -4.075588  6.237027 -0.288152
      ESP Fit Center  994 is at  -4.313620  6.932301 -1.164095
      ESP Fit Center  995 is at  -4.868693  7.200368 -2.197340
      ESP Fit Center  996 is at  -5.901938  6.994843 -2.197340
      ESP Fit Center  997 is at  -7.568693  4.500368 -2.197340
      ESP Fit Center  998 is at  -7.363168  3.467123 -2.197340
      ESP Fit Center  999 is at  -5.423766  6.932301 -3.230585
      ESP Fit Center 1000 is at  -6.423973  6.450627 -3.230585
      ESP Fit Center 1001 is at  -5.140399  6.390124 -4.106528
      ESP Fit Center 1002 is at  -3.835448  4.500368 -4.691815
      ESP Fit Center 1003 is at  -5.997231  5.885353  0.466145
      ESP Fit Center 1004 is at  -6.537231  4.950046  0.466145
      ESP Fit Center 1005 is at  -4.680149  6.651617 -0.324470
      ESP Fit Center 1006 is at  -5.723447  6.801621 -0.324470
      ESP Fit Center 1007 is at  -6.682223  6.363762 -0.324470
      ESP Fit Center 1008 is at  -7.252073  5.477059 -0.324470
      ESP Fit Center 1009 is at  -7.252073  4.423033 -0.324470
      ESP Fit Center 1010 is at  -5.196872  7.094297 -1.404470
      ESP Fit Center 1011 is at  -6.223178  6.969681 -1.404470
      ESP Fit Center 1012 is at  -7.074014  6.382391 -1.404470
      ESP Fit Center 1013 is at  -7.554465  5.466968 -1.404470
      ESP Fit Center 1014 is at  -7.554465  4.433124 -1.404470
      ESP Fit Center 1015 is at  -3.457929  6.058999 -0.499780
      ESP Fit Center 1016 is at  -2.127314  5.123692 -1.290395
      ESP Fit Center 1017 is at  -2.424268  6.135023 -1.290395
      ESP Fit Center 1018 is at  -3.220847  6.825263 -1.290395
      ESP Fit Center 1019 is at  -4.264145  6.975267 -1.290395
      ESP Fit Center 1020 is at  -1.837929  5.123692 -2.370395
      ESP Fit Center 1021 is at  -2.085344  6.127494 -2.370395
      ESP Fit Center 1022 is at  -2.770909  6.901337 -2.370395
      ESP Fit Center 1023 is at  -3.737570  7.267943 -2.370395
      ESP Fit Center 1024 is at  -2.127314  5.123692 -3.450395
      ESP Fit Center 1025 is at  -2.424268  6.135023 -3.450395
      ESP Fit Center 1026 is at  -3.220847  6.825263 -3.450395
      ESP Fit Center 1027 is at  -4.264145  6.975267 -3.450395
      ESP Fit Center 1028 is at  -2.424268  4.112361 -3.450395
      ESP Fit Center 1029 is at  -2.917929  5.123692 -4.241010
      ESP Fit Center 1030 is at  -3.457929  6.058999 -4.241010
      ESP Fit Center 1031 is at  -7.091390  5.933050 -3.098441
      ESP Fit Center 1032 is at  -7.571841  5.017627 -3.098441
      ESP Fit Center 1033 is at  -7.571841  3.983783 -3.098441
      ESP Fit Center 1034 is at  -7.091390  3.068360 -3.098441
      ESP Fit Center 1035 is at  -5.740823  6.352280 -4.178441
      ESP Fit Center 1036 is at  -6.699599  5.914421 -4.178441
      ESP Fit Center 1037 is at  -7.269449  5.027718 -4.178441
      ESP Fit Center 1038 is at  -7.269449  3.973692 -4.178441
      ESP Fit Center 1039 is at  -6.699599  3.086989 -4.178441
      ESP Fit Center 1040 is at  -4.394607  4.500705 -4.969056
      ESP Fit Center 1041 is at  -4.934607  5.436012 -4.969056
      ESP Fit Center 1042 is at  -6.014607  5.436012 -4.969056
      ESP Fit Center 1043 is at  -6.554607  4.500705 -4.969056
      ESP Fit Center 1044 is at  -6.014607  3.565398 -4.969056
      ESP Fit Center 1045 is at  -4.934607  3.565398 -4.969056
      ESP Fit Center 1046 is at  -5.474607  4.500705 -5.258441
      ESP Fit Center 1047 is at  -4.441918  0.378858 -1.855799
      ESP Fit Center 1048 is at  -4.996991  0.646925 -2.889044
[...]
 1261 Fit      -0.012099
 1262 Fit      -0.022231
 1263 Fit      -0.027558
 1264 Fit      -0.028395
 1265 Fit      -0.023725
 1266 Fit      -0.023222
 1267 Fit      -0.022619
 1268 Fit      -0.022343
 1269 Fit      -0.020987
 1270 Fit      -0.016992
 1271 Fit      -0.010137
 1272 Fit      -0.015880
 1273 Fit      -0.021971
 1274 Fit      -0.020619
 1275 Fit      -0.022432
 1276 Fit      -0.020773
 1277 Fit      -0.014170
 1278 Fit      -0.008996
 1279 Fit      -0.014528
 1280 Fit      -0.017447
 1281 Fit       0.005063
 1282 Fit       0.001254
 1283 Fit      -0.008416
 1284 Fit      -0.002218
 1285 Fit      -0.000810
 1286 Fit       0.003130
 1287 Fit      -0.004360
 1288 Fit       0.000504
 1289 Fit       0.002742
 1290 Fit       0.004032
 1291 Fit      -0.005586
 1292 Fit      -0.000507
 1293 Fit       0.000990
 1294 Fit      -0.004518
 1295 Fit      -0.012170
 1296 Fit      -0.015404
 1297 Fit      -0.008026
 1298 Fit      -0.005812
 1299 Fit      -0.001427
 1300 Fit      -0.001639
 1301 Fit      -0.005580
 1302 Fit      -0.003838
 1303 Fit       0.004206
 1304 Fit       0.010262
 1305 Fit       0.005766
 1306 Fit       0.009166
 1307 Fit       0.012892
 1308 Fit       0.006810
 1309 Fit       0.008387
 1310 Fit       0.010178
 1311 Fit       0.006527
 1312 Fit       0.005540
 1313 Fit      -0.000977
 1314 Fit       0.008273
 1315 Fit       0.003111
 1316 Fit       0.007421
 1317 Fit      -0.000114
 1318 Fit       0.006720
 1319 Fit      -0.008836
 1320 Fit      -0.000195
 1321 Fit      -0.011233
 1322 Fit      -0.017939
 1323 Fit      -0.016082
 1324 Fit       0.003381
 1325 Fit      -0.018010
 1326 Fit      -0.024039
 1327 Fit      -0.025036
 1328 Fit      -0.009545
 1329 Fit      -0.024192
 1330 Fit      -0.029044
 1331 Fit      -0.032379
 1332 Fit      -0.019832
 1333 Fit      -0.029689
 1334 Fit      -0.033664
 1335 Fit      -0.028803
 1336 Fit      -0.033634
 1337 Fit      -0.037118
 1338 Fit      -0.035362
 1339 Fit      -0.033943
 1340 Fit      -0.037124
 1341 Fit      -0.028024
 1342 Fit      -0.018186
 1343 Fit      -0.029879
 1344 Fit       0.009329
 1345 Fit       0.004838
 1346 Fit       0.012914
 1347 Fit       0.009568
 1348 Fit       0.005941
 1349 Fit       0.009716
 1350 Fit       0.011728
 1351 Fit       0.012645
 1352 Fit       0.008062
 1353 Fit       0.011068
 1354 Fit       0.012302
 1355 Fit       0.013536
 1356 Fit       0.012647
 1357 Fit       0.014108
 1358 Fit       0.009332
 1359 Fit       0.007915
 1360 Fit       0.003988
 1361 Fit       0.013708
 1362 Fit       0.013429
 1363 Fit       0.004241
 1364 Fit      -0.001995
 1365 Fit      -0.003350
 1366 Fit       0.013952
 1367 Fit       0.009300
 1368 Fit       0.015377
 1369 Fit       0.014195
 1370 Fit       0.012638
 1371 Fit       0.011944
 1372 Fit       0.010359
 1373 Fit       0.008492
 1374 Fit       0.007087
 1375 Fit       0.011277
 1376 Fit       0.007301
 1377 Fit       0.002367
 1378 Fit       0.010446
 1379 Fit       0.005147
 1380 Fit      -0.002906
 1381 Fit       0.004018
 1382 Fit      -0.003758
 1383 Fit      -0.019020
 1384 Fit      -0.002793
 1385 Fit      -0.017466
 1386 Fit      -0.028050
 1387 Fit      -0.010646
 1388 Fit      -0.015411
 1389 Fit      -0.023117
 1390 Fit      -0.032606
 1391 Fit      -0.007324
 1392 Fit      -0.016383
 1393 Fit      -0.020567
 1394 Fit      -0.019260
 1395 Fit      -0.014961
 1396 Fit      -0.011034
 1397 Fit      -0.010223
 1398 Fit      -0.014648
 1399 Fit      -0.025720
 1400 Fit      -0.032351
 1401 Fit      -0.035770
 1402 Fit      -0.029200
 1403 Fit      -0.014402
 1404 Fit      -0.009001
 1405 Fit      -0.013979
 1406 Fit      -0.020403
 1407 Fit      -0.022503
 1408 Fit      -0.020376
 1409 Fit      -0.018156
 1410 Fit      -0.019839
 1411 Fit      -0.025562
 1412 Fit      -0.026850
 1413 Fit      -0.020132
 1414 Fit      -0.019335
 1415 Fit      -0.022627
 1416 Fit      -0.022721
 1417 Fit      -0.023259
 1418 Fit       0.007588
 1419 Fit       0.003548
 1420 Fit      -0.003867
 1421 Fit       0.003608
 1422 Fit       0.006745
 1423 Fit       0.005629
 1424 Fit       0.001563
 1425 Fit      -0.002959
 1426 Fit       0.004827
 1427 Fit       0.005182
 1428 Fit       0.004197
 1429 Fit      -0.001546
 1430 Fit      -0.009650
 1431 Fit       0.001936
 1432 Fit       0.002783
 1433 Fit       0.002010
 1434 Fit      -0.002119
 1435 Fit       0.010584
 1436 Fit       0.008427
 1437 Fit       0.010868
 1438 Fit       0.013661
 1439 Fit       0.012274
 1440 Fit       0.009170
 1441 Fit       0.005245
 1442 Fit       0.006191
 1443 Fit      -0.000166
 1444 Fit       0.008540
 1445 Fit       0.007936
 1446 Fit       0.013446
 1447 Fit       0.003012
 1448 Fit       0.001550
 1449 Fit       0.001883
 1450 Fit       0.001088
 1451 Fit       0.000705
 1452 Fit       0.001986
 1453 Fit      -0.002562
 1454 Fit       0.002653
 1455 Fit       0.006704
 1456 Fit       0.010744
 1457 Fit       0.007924
 1458 Fit       0.004745
 1459 Fit       0.010602
 1460 Fit       0.006647
 1461 Fit       0.003680
 1462 Fit       0.009731
 1463 Fit       0.005076
 1464 Fit       0.002160
 1465 Fit       0.000182
 1466 Fit      -0.000828
 1467 Fit       0.000489
 1468 Fit       0.001287
 1469 Fit       0.001455
 1470 Fit       0.001626
 1471 Fit      -0.010476
 1472 Fit      -0.003864
 1473 Fit      -0.000729
 1474 Fit       0.000530
 1475 Fit       0.000719
 1476 Fit       0.001362
 1477 Fit      -0.013227
 1478 Fit      -0.004654
 1479 Fit      -0.003456
 1480 Fit       0.006568
 1481 Fit       0.007410
 1482 Fit       0.007882
 1483 Fit       0.006759
 1484 Fit       0.005103
 1485 Fit       0.005326
 1486 Fit       0.006584
 1487 Fit       0.007374
 1488 Fit       0.008647
 1489 Fit       0.003244
 1490 Fit       0.004317
 1491 Fit       0.005581
 1492 Fit       0.006607
 1493 Fit       0.007514
 1494 Fit       0.002935
 1495 Fit       0.004341
 1496 Fit       0.005886
 1497 Fit       0.006152
 1498 Fit       0.004895
 1499 Fit       0.005507
 1500 Fit       0.008827
 1501 Fit       0.004237
 1502 Fit       0.004320
 1503 Fit       0.005088
 1504 Fit       0.006031
 1505 Fit       0.003964
 1506 Fit       0.004840
 1507 Fit       0.004381
 1508 Fit       0.004039
 1509 Fit       0.005313
 1510 Fit       0.009691
 1511 Fit       0.009817
 1512 Fit       0.010235
 1513 Fit       0.010694
 1514 Fit       0.011561
 1515 Fit       0.006486
 1516 Fit       0.007314
 1517 Fit       0.008027
 1518 Fit       0.008543
 1519 Fit       0.009069
 1520 Fit       0.010240
 1521 Fit       0.006193
 1522 Fit       0.006851
 1523 Fit       0.002969
 1524 Fit       0.005214
 1525 Fit      -0.002279
 1526 Fit       0.002818
 1527 Fit       0.004665
 1528 Fit       0.004987
 1529 Fit       0.001183
 1530 Fit       0.003625
 1531 Fit       0.004698
 1532 Fit       0.004709
 1533 Fit       0.004208
 1534 Fit       0.003116
 1535 Fit       0.004107
 1536 Fit       0.004411
 1537 Fit       0.004052
 1538 Fit       0.004026
 1539 Fit       0.004063
 1540 Fit       0.005767
 1541 Fit       0.006812
 1542 Fit       0.007780
 1543 Fit       0.008851
 1544 Fit       0.010308
 1545 Fit       0.005251
 1546 Fit       0.006473
 1547 Fit       0.007570
 1548 Fit       0.008448
 1549 Fit       0.009219
 1550 Fit       0.010020
 1551 Fit       0.006043
 1552 Fit       0.005573
 1553 Fit       0.006654
 1554 Fit       0.007837
 1555 Fit       0.008382
 1556 Fit       0.007884
 1557 Fit       0.007085
 1558 Fit      -0.000042
 1559 Fit       0.008336
 1560 Fit       0.009436
 1561 Fit       0.007616
 1562 Fit       0.004839
 1563 Fit       0.000738
 1564 Fit      -0.004911
 1565 Fit       0.009309
 1566 Fit       0.007926
 1567 Fit       0.005955
 1568 Fit       0.003430
 1569 Fit       0.009021
 1570 Fit       0.007184
 1571 Fit       0.005329
 1572 Fit      -0.001971
 1573 Fit      -0.001081
 1574 Fit       0.003271
 1575 Fit       0.001696
 1576 Fit      -0.000117
 1577 Fit      -0.001663
 1578 Fit       0.002144
 1579 Fit       0.003378
 1580 Fit       0.007064
 1581 Fit       0.005041
 1582 Fit       0.003549
 1583 Fit       0.002304
 1584 Fit       0.004967
 1585 Fit       0.006258
 1586 Fit       0.009170
 1587 Fit       0.007052
 1588 Fit       0.005405
 1589 Fit       0.007065
 1590 Fit      -0.002176
 1591 Fit      -0.003472
 1592 Fit      -0.006690
 1593 Fit       0.013725
 1594 Fit       0.011374
 1595 Fit       0.002314
 1596 Fit       0.007148
 1597 Fit       0.009229
 1598 Fit       0.005604
 1599 Fit      -0.001116
 1600 Fit       0.010683
 1601 Fit       0.008546
 1602 Fit       0.005386
 1603 Fit      -0.000464
 1604 Fit       0.011998
 1605 Fit       0.010001
 1606 Fit       0.007322
 1607 Fit       0.002365
 1608 Fit      -0.006744
 1609 Fit       0.013986
 1610 Fit       0.012942
 1611 Fit       0.012412
 1612 Fit       0.012390
 1613 Fit       0.012400
 1614 Fit       0.010629
 1615 Fit       0.010701
 1616 Fit       0.011393
 1617 Fit       0.012158
 1618 Fit       0.012460
 1619 Fit       0.006530
 1620 Fit       0.008418
 1621 Fit       0.011172
 1622 Fit       0.012603
 1623 Fit       0.003054
 1624 Fit       0.013444
 1625 Fit       0.013044
 1626 Fit       0.012343
 1627 Fit       0.013631
 1628 Fit       0.011768
 1629 Fit       0.011777
 1630 Fit       0.011886
 1631 Fit       0.009431
 1632 Fit       0.008781
 1633 Fit       0.005728
 1634 Fit       0.001865
 1635 Fit       0.006865
 1636 Fit       0.007808
 1637 Fit       0.009382
 1638 Fit       0.009232
 1639 Fit       0.006599
 1640 Fit       0.002504
 1641 Fit       0.003652
 1642 Fit       0.010778
 1643 Fit       0.011148
 1644 Fit       0.011470
 1645 Fit       0.011005
 1646 Fit       0.008910
 1647 Fit       0.004350
 1648 Fit      -0.002969
 1649 Fit       0.013133
 1650 Fit       0.013789
 1651 Fit       0.013825
 1652 Fit       0.012439
 1653 Fit       0.008976
 1654 Fit      -0.002804
 1655 Fit      -0.006168
 1656 Fit      -0.008764
 1657 Fit      -0.007242
 1658 Fit      -0.012894
 1659 Fit      -0.011879
 1660 Fit      -0.010485
 1661 Fit      -0.015135
 1662 Fit      -0.012969
 1663 Fit      -0.014664
 1664 Fit      -0.014318
 1665 Fit      -0.013716
 1666 Fit      -0.011622
 1667 Fit      -0.011896
 1668 Fit       0.002630
 1669 Fit       0.002560
 1670 Fit      -0.003599
 1671 Fit      -0.000100
 1672 Fit       0.003844
 1673 Fit       0.005917
 1674 Fit       0.005930
 1675 Fit       0.001965
 1676 Fit       0.001419
 1677 Fit       0.004257
 1678 Fit      -0.008439
 1679 Fit      -0.000317
 1680 Fit       0.003983
 1681 Fit       0.005533
 1682 Fit       0.005200
 1683 Fit      -0.009094
 1684 Fit      -0.000473
 1685 Fit       0.003862
 1686 Fit       0.005651
 1687 Fit       0.004696
 1688 Fit      -0.000917
 1689 Fit       0.002951
 1690 Fit       0.003024
 1691 Fit       0.006298
 1692 Fit       0.008599
 1693 Fit       0.009594
 1694 Fit       0.007771
 1695 Fit       0.006089
 1696 Fit       0.010818
 1697 Fit       0.012250
 1698 Fit       0.012519
 1699 Fit       0.007921
 1700 Fit       0.015300
 1701 Fit       0.001384
 1702 Fit      -0.007858
 1703 Fit      -0.003602
 1704 Fit      -0.000351
 1705 Fit      -0.000204
 1706 Fit      -0.002030
 1707 Fit      -0.003332
 1708 Fit      -0.007556
 1709 Fit      -0.000808
 1710 Fit       0.001495
 1711 Fit      -0.007143
 1712 Fit      -0.002006
 1713 Fit       0.001045
 1714 Fit       0.002191
 1715 Fit      -0.000169
 1716 Fit       0.001636
 1717 Fit       0.002172
 1718 Fit       0.000032
 1719 Fit       0.000946
 1720 Fit      -0.001274
 1721 Fit       0.002764
 1722 Fit       0.010930
 1723 Fit       0.008368
 1724 Fit       0.011861
 1725 Fit       0.010375
 1726 Fit       0.012073
 1727 Fit       0.009379
 1728 Fit       0.011233
 1729 Fit       0.012075
 1730 Fit       0.014261
 1731 Fit       0.011485
 1732 Fit       0.011819
 1733 Fit       0.013963
 1734 Fit       0.008861
 1735 Fit       0.004386
 1736 Fit       0.005131
 1737 Fit       0.004761
 1738 Fit       0.000345
 1739 Fit       0.001610
 1740 Fit       0.000387
 1741 Fit      -0.006067
 1742 Fit      -0.002936
 1743 Fit      -0.005564
 1744 Fit       0.007907
 1745 Fit      -0.000220
 1746 Fit       0.010265
 1747 Fit      -0.013538
 1748 Fit       0.004793
 1749 Fit       0.001101
 1750 Fit       0.005852
 1751 Fit       0.008306
 1752 Fit       0.005966
 1753 Fit       0.004427
 1754 Fit      -0.000160
 1755 Fit      -0.004043
 1756 Fit       0.003082
 1757 Fit       0.007701
 1758 Fit       0.000089
 1759 Fit       0.004867
 1760 Fit       0.008653
 1761 Fit      -0.003124
 1762 Fit       0.002367
 1763 Fit       0.006149
 1764 Fit       0.009418
 1765 Fit      -0.000415
 1766 Fit       0.003745
 1767 Fit       0.007027
 1768 Fit      -0.018100
 1769 Fit      -0.021475
 1770 Fit      -0.012376
 1771 Fit      -0.030350
 1772 Fit      -0.023206
 1773 Fit      -0.016793
 1774 Fit      -0.010458
 1775 Fit      -0.005054
 1776 Fit      -0.001127
 1777 Fit      -0.029153
 1778 Fit      -0.023296
 1779 Fit      -0.018741
 1780 Fit      -0.014337
 1781 Fit      -0.010936
 1782 Fit      -0.008630
 1783 Fit      -0.006480
 1784 Fit      -0.030139
 1785 Fit      -0.027132
 1786 Fit      -0.022065
 1787 Fit      -0.019612
 1788 Fit      -0.017217
 1789 Fit      -0.015601
 1790 Fit      -0.014536
 1791 Fit      -0.013468
 1792 Fit      -0.012384
 1793 Fit      -0.009988
 1794 Fit      -0.018866
 1795 Fit      -0.022887
 1796 Fit      -0.023445
 1797 Fit      -0.020003
 1798 Fit      -0.019555
 1799 Fit      -0.018802
 1800 Fit      -0.018056
 1801 Fit      -0.016604
 1802 Fit      -0.013586
 1803 Fit      -0.008984
 1804 Fit      -0.014649
 1805 Fit      -0.018838
 1806 Fit      -0.017542
 1807 Fit      -0.018320
 1808 Fit      -0.016618
 1809 Fit      -0.012134
 1810 Fit      -0.009315
 1811 Fit      -0.013482
 1812 Fit      -0.014911
 1813 Fit       0.003379
 1814 Fit       0.002677
 1815 Fit       0.000097
 1816 Fit      -0.002958
 1817 Fit       0.003748
 1818 Fit       0.001959
 1819 Fit       0.003636
 1820 Fit      -0.004167
 1821 Fit      -0.000239
 1822 Fit       0.001561
 1823 Fit      -0.005765
 1824 Fit      -0.001417
 1825 Fit       0.002497
 1826 Fit      -0.004847
 1827 Fit       0.000265
 1828 Fit      -0.000709
 1829 Fit      -0.005192
 1830 Fit      -0.010929
 1831 Fit      -0.013734
 1832 Fit      -0.008611
 1833 Fit      -0.006144
 1834 Fit      -0.002480
 1835 Fit      -0.002945
 1836 Fit      -0.006364
 1837 Fit      -0.004933
 1838 Fit       0.007315
 1839 Fit       0.000737
 1840 Fit       0.002494
 1841 Fit       0.009806
 1842 Fit       0.006529
 1843 Fit       0.009623
 1844 Fit       0.006373
 1845 Fit       0.008380
 1846 Fit       0.006407
 1847 Fit       0.006842
 1848 Fit       0.003453
 1849 Fit       0.007513
 1850 Fit       0.004296
 1851 Fit       0.007333
 1852 Fit       0.007273
 1853 Fit       0.001855
 1854 Fit      -0.004953
 1855 Fit       0.001303
 1856 Fit      -0.007503
 1857 Fit      -0.012187
 1858 Fit      -0.010412
 1859 Fit       0.003335
 1860 Fit      -0.013193
 1861 Fit      -0.017653
 1862 Fit      -0.017702
 1863 Fit      -0.005855
 1864 Fit      -0.018585
 1865 Fit      -0.022280
 1866 Fit      -0.023831
 1867 Fit      -0.014299
 1868 Fit      -0.023495
 1869 Fit      -0.026434
 1870 Fit      -0.029909
 1871 Fit      -0.021664
 1872 Fit      -0.027598
 1873 Fit      -0.030543
 1874 Fit      -0.027682
 1875 Fit      -0.029975
 1876 Fit      -0.031495
 1877 Fit      -0.029106
 1878 Fit      -0.003149
 1879 Fit      -0.031250
 1880 Fit      -0.023441
 1881 Fit      -0.015056
 1882 Fit      -0.024360
 1883 Fit       0.008510
 1884 Fit       0.004858
 1885 Fit       0.011418
 1886 Fit       0.008638
 1887 Fit       0.005731
 1888 Fit       0.008451
 1889 Fit       0.010209
 1890 Fit       0.011171
 1891 Fit       0.006917
 1892 Fit       0.009419
 1893 Fit       0.010615
 1894 Fit       0.011810
 1895 Fit       0.010446
 1896 Fit       0.011573
 1897 Fit       0.012482
 1898 Fit       0.008317
 1899 Fit       0.006836
 1900 Fit       0.004020
 1901 Fit       0.011939
 1902 Fit       0.011200
 1903 Fit       0.004064
 1904 Fit      -0.000713
 1905 Fit      -0.001189
 1906 Fit       0.012501
 1907 Fit       0.009968
 1908 Fit       0.001469
 1909 Fit       0.013726
 1910 Fit       0.012783
 1911 Fit       0.011807
 1912 Fit       0.011179
 1913 Fit       0.009319
 1914 Fit       0.008442
 1915 Fit       0.004763
 1916 Fit       0.001559
 1917 Fit       0.008653
 1918 Fit       0.007398
 1919 Fit       0.003423
 1920 Fit       0.007704
 1921 Fit       0.003014
 1922 Fit       0.001536
 1923 Fit      -0.011812
 1924 Fit      -0.011820
 1925 Fit      -0.019516
 1926 Fit      -0.006177
 1927 Fit      -0.017309
 1928 Fit      -0.025421
 1929 Fit      -0.006015
 1930 Fit      -0.011607
 1931 Fit      -0.013521
 1932 Fit      -0.011585
 1933 Fit      -0.005862
 1934 Fit      -0.004097
 1935 Fit      -0.004939
 1936 Fit      -0.009885
 1937 Fit      -0.020872
 1938 Fit      -0.028032
 1939 Fit      -0.007370
 1940 Fit      -0.013507
 1941 Fit      -0.016598
 1942 Fit      -0.016179
 1943 Fit      -0.013765
 1944 Fit      -0.011563
 1945 Fit      -0.011491
 1946 Fit      -0.014805
 1947 Fit      -0.022318
 1948 Fit      -0.027139
 1949 Fit      -0.029291
 1950 Fit      -0.023770
 1951 Fit      -0.013511
 1952 Fit      -0.009628
 1953 Fit      -0.012489
 1954 Fit      -0.016625
 1955 Fit      -0.018271
 1956 Fit      -0.017385
 1957 Fit      -0.016486
 1958 Fit      -0.018053
 1959 Fit      -0.021866
 1960 Fit      -0.022824
 1961 Fit      -0.017823
 1962 Fit      -0.016700
 1963 Fit      -0.018848
 1964 Fit      -0.019478
 1965 Fit      -0.019883
 1966 Fit       0.003551
 1967 Fit       0.005126
 1968 Fit      -0.001660
 1969 Fit      -0.007443
 1970 Fit       0.003448
 1971 Fit       0.005034
 1972 Fit       0.001409
 1973 Fit      -0.001509
 1974 Fit       0.004514
 1975 Fit       0.003449
 1976 Fit      -0.000955
 1977 Fit      -0.005861
 1978 Fit       0.002980
 1979 Fit       0.002942
 1980 Fit       0.001770
 1981 Fit      -0.004259
 1982 Fit      -0.000766
 1983 Fit       0.000253
 1984 Fit      -0.000641
 1985 Fit       0.009360
 1986 Fit       0.007592
 1987 Fit       0.009317
 1988 Fit       0.011617
 1989 Fit       0.008314
 1990 Fit       0.005181
 1991 Fit       0.005836
 1992 Fit       0.002238
 1993 Fit       0.001372
 1994 Fit       0.007788
 1995 Fit       0.007440
 1996 Fit       0.005619
 1997 Fit       0.011480
 1998 Fit       0.003414
 1999 Fit       0.002621
 2000 Fit       0.002071
 2001 Fit       0.001570
 2002 Fit       0.001097
 2003 Fit       0.001243
 2004 Fit       0.001769
 2005 Fit      -0.000057
 2006 Fit       0.001717
 2007 Fit       0.003434
 2008 Fit      -0.004382
 2009 Fit       0.002027
 2010 Fit       0.009376
 2011 Fit       0.007113
 2012 Fit       0.012651
 2013 Fit       0.009200
 2014 Fit       0.006128
 2015 Fit       0.003866
 2016 Fit       0.007072
 2017 Fit       0.004165
 2018 Fit       0.004746
 2019 Fit       0.001822
 2020 Fit       0.000771
 2021 Fit       0.001069
 2022 Fit       0.001266
 2023 Fit      -0.001250
 2024 Fit      -0.000009
 2025 Fit       0.000632
 2026 Fit       0.000839
 2027 Fit       0.001188
 2028 Fit      -0.005520
 2029 Fit      -0.002332
 2030 Fit      -0.001028
 2031 Fit      -0.000752
 2032 Fit      -0.000465
 2033 Fit      -0.006443
 2034 Fit      -0.005385
 2035 Fit       0.005935
 2036 Fit       0.006450
 2037 Fit       0.007075
 2038 Fit       0.006501
 2039 Fit       0.005110
 2040 Fit       0.004928
 2041 Fit       0.005715
 2042 Fit       0.006453
 2043 Fit       0.007600
 2044 Fit       0.003505
 2045 Fit       0.004153
 2046 Fit       0.005028
 2047 Fit       0.005793
 2048 Fit       0.006279
 2049 Fit       0.002617
 2050 Fit       0.003498
 2051 Fit       0.004448
 2052 Fit       0.005388
 2053 Fit       0.003353
 2054 Fit       0.005170
 Job cpu time:       0 days  0 hours  5 minutes  3.8 seconds.
 Normal termination of Gaussian 16 at Sat Jul  8 21:02:01 2023.
