 Copyright (c) 1988-2019, Gaussian, Inc.  All Rights Reserved.
  
 This is part of the Gaussian(R) 16 program.  It is based on
 the Gaussian(R) 09 system (copyright 2009, Gaussian, Inc.),
 the Gaussian(R) 03 system (copyright 2003, Gaussian, Inc.),
 the Gaussian(R) 98 system (copyright 1998, Gaussian, Inc.),
 the Gaussian(R) 94 system (copyright 1995, Gaussian, Inc.),
 the Gaussian 92(TM) system (copyright 1992, Gaussian, Inc.),
 the Gaussian 90(TM) system (copyright 1990, Gaussian, Inc.),
 the Gaussian 88(TM) system (copyright 1988, Gaussian, Inc.),
 the Gaussian 86(TM) system (copyright 1986, Carnegie Mellon
 University), and the Gaussian 82(TM) system (copyright 1983,
 Carnegie Mellon University). Gaussian is a federally registered
 trademark of Gaussian, Inc.
 Cite this work as:
 Gaussian 16, Revision C.01,
 M. J. Frisch, G. W. Trucks, H. B. Schlegel, G. E. Scuseria, 
 M. A. Robb, J. R. Cheeseman, G. Scalmani, V. Barone, 
 G. A. Petersson, H. Nakatsuji, X. Li, M. Caricato, A. V. Marenich, 
 J. Bloino, B. G. Janesko, R. Gomperts, B. Mennucci, H. P. Hratchian, 
 J. V. Ortiz, A. F. Izmaylov, J. L. Sonnenberg, D. Williams-Young, 
 F. Ding, F. Lipparini, F. Egidi, J. Goings, B. Peng, A. Petrone, 
 T. Henderson, D. Ranasinghe, V. G. Zakrzewski, J. Gao, N. Rega, 
 G. Zheng, W. Liang, M. Hada, M. Ehara, K. Toyota, R. Fukuda, 
 J. Hasegawa, M. Ishida, T. Nakajima, Y. Honda, O. Kitao, H. Nakai, 
 T. Vreven, K. Throssell, J. A. Montgomery, Jr., J. E. Peralta, 
 F. Ogliaro, M. J. Bearpark, J. J. Heyd, E. N. Brothers, K. N. Kudin, 
 V. N. Staroverov, T. A. Keith, R. Kobayashi, J. Normand, 
 K. Raghavachari, A. P. Rendell, J. C. Burant, S. S. Iyengar, 
 J. Tomasi, M. Cossi, J. M. Millam, M. Klene, C. Adamo, R. Cammi, 
 J. W. Ochterski, R. L. Martin, K. Morokuma, O. Farkas, 
 J. B. Foresman, and D. J. Fox, Gaussian, Inc., Wallingford CT, 2019.
 
 ******************************************
 Gaussian 16:  EM64L-G16RevC.01  3-Jul-2019
                 8-Jul-2023 
 ******************************************
 ----------------------------------------------------------------------
 #P HF/6-31G(d) SCF(Conver=8,XQC,MaxConventionalCycles=64,MaxCycle=128)
  NoSymm Test Pop=mk IOp(6/33=2) GFInput GFPrint
 ----------------------------------------------------------------------
 1/38=1,172=1/1;
 2/12=2,15=1,17=6,18=5,40=1/2;
 3/5=1,6=6,7=1,11=9,24=110,25=1,30=1/1,2,3;
 4//1;
 5/5=2,6=8,7=128,8=3,13=1,38=5,85=64/2,8;
 6/7=2,8=2,9=2,10=2,15=8,20=1,28=1,33=2/1,2;
 99/5=1,9=1/99;
 -------------------------------------------------
 MEP step - Input generated by PyRED DVE-DMDS-OPLS
 -------------------------------------------------
 Symbolic Z-matrix:
 Charge =  0 Multiplicity = 1
 C                    -5.5371    2.02412  -4.50784 
 H                    -5.72145   3.07511  -4.31681 
 H                    -4.53612   1.92273  -4.91133 
 H                    -6.24776   1.67645  -5.25145 
 C                    -5.67229   1.22404  -3.22701 
 H                    -6.68095   1.31776  -2.82505 
 H                    -5.50159   0.16819  -3.42788 
 O                    -4.74423   1.71531  -2.3046 
 C                    -4.7612    1.12848  -1.03914 
 H                    -5.78569   0.94987  -0.71346 
 H                    -4.31109   1.84143  -0.36099 
 C                    -3.98079  -0.17024  -0.95539 
 H                    -4.14642  -0.61675   0.02563 
 H                    -4.33247  -0.88336  -1.69982 
 O                    -2.62807   0.1024   -1.14158 
 C                    -1.80323  -1.01858  -1.14556 
 H                    -2.02862  -1.65287  -2.00336 
 H                    -1.94701  -1.61054  -0.24378 
 C                    -0.36224  -0.5701   -1.22287 
 H                    -0.25737   0.15063  -2.02945 
 H                     0.26452  -1.43052  -1.45133 
 O                     0.        0.        0. 
 C                     1.13354   0.81504   0. 
 H                     1.06989   1.41308   0.89892 
 H                     1.12183   1.4923   -0.84956 
 C                     2.42581   0.        0. 
 H                     2.52642  -0.5559   -0.92423 
 H                     2.40901  -0.71994   0.80974 
 S                     3.92873   1.01384   0.11404 
 C                     3.96225   1.41855   1.89138 
 H                     3.08364   1.98503   2.16627 
 H                     3.95859   0.49565   2.45777 
 C                     5.21398   2.23752   2.19694 
 H                     5.18205   3.176     1.65814 
 H                     6.10499   1.71515   1.8726 
 S                     5.37056   2.68754   3.95248 
 C                     6.0533    1.16696   4.6871 
 H                     5.51602   0.30975   4.30319 
 H                     5.83139   1.22991   5.74416 
 C                     7.56016   1.01802   4.48594 
 H                     7.82195   1.02446   3.43627 
 H                     8.07139   1.8554    4.94223 
 S                     8.25328  -0.46746   5.27642 
 C                     7.82376  -1.78853   4.09896 
 H                     7.967    -2.70595   4.65723 
 H                     6.76828  -1.73158   3.86088 
 C                     8.66815  -1.81319   2.82821 
 H                     8.37478  -2.65215   2.20349 
 H                     8.54327  -0.90926   2.24235 
 H                     9.7204   -1.9152    3.06598 
 
 ITRead=  0  0  0  0  0  0  0  0  0  0  0  0  0  0  0  0  0  0  0  0
 ITRead=  0  0  0  0  0  0  0  0  0  0  0  0  0  0  0  0  0  0  0  0
 ITRead=  0  0  0  0  0  0  0  0  0  0
 MicOpt= -1 -1 -1 -1 -1 -1 -1 -1 -1 -1 -1 -1 -1 -1 -1 -1 -1 -1 -1 -1
 MicOpt= -1 -1 -1 -1 -1 -1 -1 -1 -1 -1 -1 -1 -1 -1 -1 -1 -1 -1 -1 -1
 MicOpt= -1 -1 -1 -1 -1 -1 -1 -1 -1 -1
 NAtoms=     50 NQM=       50 NQMF=       0 NMMI=      0 NMMIF=      0
                NMic=       0 NMicF=      0.
                          Input orientation:                          
 ---------------------------------------------------------------------
 Center     Atomic      Atomic             Coordinates (Angstroms)
 Number     Number       Type             X           Y           Z
 ---------------------------------------------------------------------
      1          6           0       -5.537103    2.024118   -4.507836
      2          1           0       -5.721449    3.075110   -4.316805
      3          1           0       -4.536115    1.922725   -4.911328
      4          1           0       -6.247759    1.676445   -5.251448
      5          6           0       -5.672289    1.224041   -3.227012
      6          1           0       -6.680945    1.317755   -2.825049
      7          1           0       -5.501585    0.168194   -3.427883
      8          8           0       -4.744232    1.715308   -2.304600
      9          6           0       -4.761201    1.128480   -1.039138
     10          1           0       -5.785692    0.949868   -0.713462
     11          1           0       -4.311085    1.841434   -0.360988
     12          6           0       -3.980793   -0.170236   -0.955394
     13          1           0       -4.146423   -0.616748    0.025630
     14          1           0       -4.332466   -0.883359   -1.699818
     15          8           0       -2.628067    0.102396   -1.141580
     16          6           0       -1.803230   -1.018578   -1.145556
     17          1           0       -2.028619   -1.652871   -2.003361
     18          1           0       -1.947011   -1.610541   -0.243775
     19          6           0       -0.362238   -0.570102   -1.222872
     20          1           0       -0.257372    0.150634   -2.029454
     21          1           0        0.264516   -1.430519   -1.451328
     22          8           0        0.000000    0.000000    0.000000
     23          6           0        1.133541    0.815042    0.000000
     24          1           0        1.069888    1.413079    0.898917
     25          1           0        1.121830    1.492299   -0.849563
     26          6           0        2.425812    0.000000    0.000000
     27          1           0        2.526421   -0.555901   -0.924225
     28          1           0        2.409010   -0.719939    0.809740
     29         16           0        3.928728    1.013837    0.114041
     30          6           0        3.962252    1.418552    1.891379
     31          1           0        3.083635    1.985034    2.166274
     32          1           0        3.958588    0.495647    2.457771
     33          6           0        5.213980    2.237522    2.196944
     34          1           0        5.182053    3.176002    1.658144
     35          1           0        6.104991    1.715145    1.872597
     36         16           0        5.370561    2.687537    3.952476
     37          6           0        6.053305    1.166955    4.687103
     38          1           0        5.516021    0.309745    4.303188
     39          1           0        5.831388    1.229911    5.744164
     40          6           0        7.560160    1.018019    4.485938
     41          1           0        7.821951    1.024465    3.436274
     42          1           0        8.071392    1.855395    4.942231
     43         16           0        8.253278   -0.467457    5.276425
     44          6           0        7.823763   -1.788534    4.098960
     45          1           0        7.967001   -2.705951    4.657234
     46          1           0        6.768284   -1.731584    3.860879
     47          6           0        8.668148   -1.813188    2.828209
     48          1           0        8.374780   -2.652147    2.203492
     49          1           0        8.543269   -0.909255    2.242346
     50          1           0        9.720402   -1.915202    3.065983
 ---------------------------------------------------------------------
 Stoichiometry    C14H30O3S3
 Framework group  C1[X(C14H30O3S3)]
 Standard basis: 6-31G(d) (6D, 7F)
   372 basis functions,   752 primitive gaussians,   372 cartesian basis functions
    93 alpha electrons       93 beta electrons
 Requested convergence on RMS density matrix=1.00D-08 within  64 cycles.
 Requested convergence on MAX density matrix=1.00D-06.
 Requested convergence on             energy=1.00D-06.
 SCF Done:  E(RHF) =  -1964.69235946     A.U. after   13 cycles
            NFock= 13  Conv=0.56D-08     -V/T= 2.0006
 Mulliken charges:
     1  C   -0.487110
     2  H    0.174740
     3  H    0.175651
     4  H    0.153611
     5  C    0.019771
     6  H    0.135407
     7  H    0.134001
     8  O   -0.613764
     9  C    0.003433
    10  H    0.136750
    11  H    0.189517
    12  C    0.006685
    13  H    0.139493
    14  H    0.137459
    15  O   -0.611659
    16  C    0.019835
    17  H    0.137382
    18  H    0.152791
    19  C    0.006349
    20  H    0.162937
    21  H    0.138710
    22  O   -0.625808
    23  C    0.027313
    24  H    0.177638
    25  H    0.163850
    26  C   -0.509780
    27  H    0.200463
    28  H    0.200224
    29  S    0.110376
    30  C   -0.452551
    31  H    0.209550
    32  H    0.188912
    33  C   -0.500707
    34  H    0.220226
    35  H    0.204895
    36  S    0.128612
    37  C   -0.474801
    38  H    0.193662
    39  H    0.219118
    40  C   -0.475164
    41  H    0.196989
    42  H    0.217637
    43  S    0.115337
    44  C   -0.475986
    45  H    0.201631
    46  H    0.185759
    47  C   -0.473266
    48  H    0.168395
    49  H    0.163684
    50  H    0.181803
 Sum of Mulliken charges =  -0.00000
 Dipole moment (field-independent basis, Debye):
    X=             -2.1943    Y=             -3.7624    Z=             -1.7653  Tot=              4.6997
 Quadrupole moment (field-independent basis, Debye-Ang):
   XX=           -150.3908   YY=           -152.3140   ZZ=           -161.4542
   XY=             -3.0013   XZ=             -9.9621   YZ=             -0.1216
 Traceless Quadrupole moment (field-independent basis, Debye-Ang):
   XX=              4.3288   YY=              2.4057   ZZ=             -6.7345
   XY=             -3.0013   XZ=             -9.9621   YZ=             -0.1216
 Octapole moment (field-independent basis, Debye-Ang**2):
  XXX=          -1250.3036  YYY=           -295.1172  ZZZ=           -588.0645  XYY=           -321.1973
  XXY=           -148.4518  XXZ=           -310.1244  XZZ=           -470.8756  YZZ=           -110.1748
  YYZ=           -159.5835  XYZ=            -33.0937
 Hexadecapole moment (field-independent basis, Debye-Ang**3):
 XXXX=         -27011.5427 YYYY=          -2098.9573 ZZZZ=          -9009.3413 XXXY=           -299.3774
 XXXZ=          -7861.2585 YYYX=           -179.7771 YYYZ=           -205.6687 ZZZX=          -7508.4552
 ZZZY=            -83.8310 XXYY=          -4609.8485 XXZZ=          -6734.8826 YYZZ=          -1802.0946
 XXYZ=           -115.2584 YYXZ=          -2263.1319 ZZXY=            -44.3432
 Merz-Kollman atomic radii used.
 Atom Element Radius
    1     6    1.50
    2     1    1.20
    3     1    1.20
    4     1    1.20
    5     6    1.50
    6     1    1.20
    7     1    1.20
    8     8    1.40
    9     6    1.50
   10     1    1.20
   11     1    1.20
   12     6    1.50
   13     1    1.20
   14     1    1.20
   15     8    1.40
   16     6    1.50
   17     1    1.20
   18     1    1.20
   19     6    1.50
   20     1    1.20
   21     1    1.20
   22     8    1.40
   23     6    1.50
   24     1    1.20
   25     1    1.20
   26     6    1.50
   27     1    1.20
   28     1    1.20
   29    16    1.75
   30     6    1.50
   31     1    1.20
   32     1    1.20
   33     6    1.50
   34     1    1.20
   35     1    1.20
   36    16    1.75
   37     6    1.50
   38     1    1.20
   39     1    1.20
   40     6    1.50
   41     1    1.20
   42     1    1.20
   43    16    1.75
   44     6    1.50
   45     1    1.20
   46     1    1.20
   47     6    1.50
   48     1    1.20
   49     1    1.20
   50     1    1.20
 Generate VDW surfaces: Layer= 4 Dens= 1 Start= 1.400 Inc= 0.200
            Electrostatic Properties Using The SCF Density.


       Atomic Center    1 is at  -5.537103  2.024118 -4.507836
       Atomic Center    2 is at  -5.721449  3.075110 -4.316805
       Atomic Center    3 is at  -4.536115  1.922725 -4.911328
       Atomic Center    4 is at  -6.247759  1.676445 -5.251448
       Atomic Center    5 is at  -5.672289  1.224041 -3.227012
       Atomic Center    6 is at  -6.680945  1.317755 -2.825049
       Atomic Center    7 is at  -5.501585  0.168194 -3.427883
       Atomic Center    8 is at  -4.744232  1.715308 -2.304600
       Atomic Center    9 is at  -4.761201  1.128480 -1.039138
       Atomic Center   10 is at  -5.785692  0.949868 -0.713462
       Atomic Center   11 is at  -4.311085  1.841434 -0.360988
       Atomic Center   12 is at  -3.980793 -0.170236 -0.955394
       Atomic Center   13 is at  -4.146423 -0.616748  0.025630
       Atomic Center   14 is at  -4.332466 -0.883359 -1.699818
       Atomic Center   15 is at  -2.628067  0.102396 -1.141580
       Atomic Center   16 is at  -1.803230 -1.018578 -1.145556
       Atomic Center   17 is at  -2.028619 -1.652871 -2.003361
       Atomic Center   18 is at  -1.947011 -1.610541 -0.243775
       Atomic Center   19 is at  -0.362238 -0.570102 -1.222872
       Atomic Center   20 is at  -0.257372  0.150634 -2.029454
       Atomic Center   21 is at   0.264516 -1.430519 -1.451328
       Atomic Center   22 is at   0.000000  0.000000  0.000000
       Atomic Center   23 is at   1.133541  0.815042  0.000000
       Atomic Center   24 is at   1.069888  1.413079  0.898917
       Atomic Center   25 is at   1.121830  1.492299 -0.849563
       Atomic Center   26 is at   2.425812  0.000000  0.000000
       Atomic Center   27 is at   2.526421 -0.555901 -0.924225
       Atomic Center   28 is at   2.409010 -0.719939  0.809740
       Atomic Center   29 is at   3.928728  1.013837  0.114041
       Atomic Center   30 is at   3.962252  1.418552  1.891379
       Atomic Center   31 is at   3.083635  1.985034  2.166274
       Atomic Center   32 is at   3.958588  0.495647  2.457771
       Atomic Center   33 is at   5.213980  2.237522  2.196944
       Atomic Center   34 is at   5.182053  3.176002  1.658144
       Atomic Center   35 is at   6.104991  1.715145  1.872597
       Atomic Center   36 is at   5.370561  2.687537  3.952476
       Atomic Center   37 is at   6.053305  1.166955  4.687103
       Atomic Center   38 is at   5.516021  0.309745  4.303188
       Atomic Center   39 is at   5.831388  1.229911  5.744164
       Atomic Center   40 is at   7.560160  1.018019  4.485938
       Atomic Center   41 is at   7.821951  1.024465  3.436274
       Atomic Center   42 is at   8.071392  1.855395  4.942231
       Atomic Center   43 is at   8.253278 -0.467457  5.276425
       Atomic Center   44 is at   7.823763 -1.788534  4.098960
       Atomic Center   45 is at   7.967001 -2.705951  4.657234
       Atomic Center   46 is at   6.768284 -1.731584  3.860879
       Atomic Center   47 is at   8.668148 -1.813188  2.828209
       Atomic Center   48 is at   8.374780 -2.652147  2.203492
       Atomic Center   49 is at   8.543269 -0.909255  2.242346
       Atomic Center   50 is at   9.720402 -1.915202  3.065983
      ESP Fit Center   51 is at  -7.576081  2.526681 -4.507836
      ESP Fit Center   52 is at  -4.781607  0.369813 -5.557836
      ESP Fit Center   53 is at  -5.012103  2.933445 -6.326489
      ESP Fit Center   54 is at  -5.012103  1.114791 -6.326489
      ESP Fit Center   55 is at  -5.416301  4.014259 -2.957656
      ESP Fit Center   56 is at  -6.520336  3.655536 -2.957656
      ESP Fit Center   57 is at  -4.497482  4.102140 -3.797656
      ESP Fit Center   58 is at  -5.443998  4.648611 -3.797656
      ESP Fit Center   59 is at  -6.520336  4.458824 -3.797656
      ESP Fit Center   60 is at  -7.222866  3.621581 -3.797656
      ESP Fit Center   61 is at  -4.497482  4.102140 -4.835954
      ESP Fit Center   62 is at  -5.443998  4.648611 -4.835954
      ESP Fit Center   63 is at  -6.520336  4.458824 -4.835954
      ESP Fit Center   64 is at  -7.222866  3.621581 -4.835954
      ESP Fit Center   65 is at  -5.416301  4.014259 -5.675954
      ESP Fit Center   66 is at  -6.520336  3.655536 -5.675954
      ESP Fit Center   67 is at  -2.938340  1.922725 -4.392179
      ESP Fit Center   68 is at  -3.312148  2.949755 -4.392179
      ESP Fit Center   69 is at  -3.312148  0.895695 -4.392179
      ESP Fit Center   70 is at  -2.938340  1.922725 -5.430477
      ESP Fit Center   71 is at  -3.312148  2.949755 -5.430477
      ESP Fit Center   72 is at  -4.258664  3.496226 -5.430477
      ESP Fit Center   73 is at  -4.258664  0.349224 -5.430477
      ESP Fit Center   74 is at  -3.312148  0.895695 -5.430477
      ESP Fit Center   75 is at  -3.548636  1.922725 -6.270477
      ESP Fit Center   76 is at  -4.230967  2.861874 -6.270477
      ESP Fit Center   77 is at  -4.230967  0.983576 -6.270477
      ESP Fit Center   78 is at  -4.536115  1.922725 -6.591328
      ESP Fit Center   79 is at  -7.749176  2.222916 -4.732299
      ESP Fit Center   80 is at  -7.749176  1.129974 -4.732299
      ESP Fit Center   81 is at  -7.046646  0.292731 -4.732299
      ESP Fit Center   82 is at  -7.046646  3.060159 -5.770597
      ESP Fit Center   83 is at  -7.749176  2.222916 -5.770597
      ESP Fit Center   84 is at  -7.749176  1.129974 -5.770597
      ESP Fit Center   85 is at  -7.046646  0.292731 -5.770597
      ESP Fit Center   86 is at  -5.970308  0.102944 -5.770597
      ESP Fit Center   87 is at  -5.260280  1.676445 -6.610597
      ESP Fit Center   88 is at  -5.942611  2.615594 -6.610597
      ESP Fit Center   89 is at  -7.046646  2.256871 -6.610597
      ESP Fit Center   90 is at  -7.046646  1.096019 -6.610597
      ESP Fit Center   91 is at  -5.942611  0.737296 -6.610597
      ESP Fit Center   92 is at  -6.247759  1.676445 -6.931448
      ESP Fit Center   93 is at  -3.812831  0.248122 -3.227012
      ESP Fit Center   94 is at  -7.417274  0.711667 -4.277012
      ESP Fit Center   95 is at  -7.479832  1.898181 -1.465900
      ESP Fit Center   96 is at  -7.479832  0.737329 -1.465900
      ESP Fit Center   97 is at  -7.479832  2.701469 -2.305900
      ESP Fit Center   98 is at  -8.182362  1.864226 -2.305900
      ESP Fit Center   99 is at  -8.182362  0.771284 -2.305900
      ESP Fit Center  100 is at  -7.479832 -0.065959 -2.305900
      ESP Fit Center  101 is at  -7.479832  2.701469 -3.344198
      ESP Fit Center  102 is at  -8.182362  1.864226 -3.344198
      ESP Fit Center  103 is at  -8.182362  0.771284 -3.344198
      ESP Fit Center  104 is at  -7.479832 -0.065959 -3.344198
      ESP Fit Center  105 is at  -7.479832  0.737329 -4.184198
      ESP Fit Center  106 is at  -6.300472 -0.412232 -2.068734
      ESP Fit Center  107 is at  -7.003002 -0.378277 -2.908734
      ESP Fit Center  108 is at  -6.300472 -1.215520 -2.908734
      ESP Fit Center  109 is at  -3.903810  0.168194 -3.947032
      ESP Fit Center  110 is at  -7.003002 -0.378277 -3.947032
      ESP Fit Center  111 is at  -6.300472 -1.215520 -3.947032
      ESP Fit Center  112 is at  -5.224134 -1.405307 -3.947032
      ESP Fit Center  113 is at  -4.277618 -0.858836 -3.947032
      ESP Fit Center  114 is at  -4.514106  0.168194 -4.787032
      ESP Fit Center  115 is at  -6.300472 -0.412232 -4.787032
      ESP Fit Center  116 is at  -5.196437 -0.770955 -4.787032
      ESP Fit Center  117 is at  -4.219704  3.329641 -1.324600
      ESP Fit Center  118 is at  -5.268760  3.329641 -1.324600
      ESP Fit Center  119 is at  -6.117465  2.713020 -1.324600
      ESP Fit Center  120 is at  -2.784232  1.715308 -2.304600
      ESP Fit Center  121 is at  -3.046822  2.695308 -2.304600
      ESP Fit Center  122 is at  -3.764232  3.412718 -2.304600
      ESP Fit Center  123 is at  -4.744232  3.675308 -2.304600
      ESP Fit Center  124 is at  -5.724232  3.412718 -2.304600
      ESP Fit Center  125 is at  -3.046822  1.715308 -3.284600
      ESP Fit Center  126 is at  -3.370999  2.713020 -3.284600
      ESP Fit Center  127 is at  -4.219704  3.329641 -3.284600
      ESP Fit Center  128 is at  -3.370999  0.717596 -3.284600
      ESP Fit Center  129 is at  -5.952166  2.502926  0.010862
      ESP Fit Center  130 is at  -5.505871  3.092014 -1.039138
      ESP Fit Center  131 is at  -6.333074  2.521038 -1.039138
      ESP Fit Center  132 is at  -5.785692  0.949868  0.966538
      ESP Fit Center  133 is at  -6.584579  1.530294  0.645687
      ESP Fit Center  134 is at  -6.584579  0.369442  0.645687
      ESP Fit Center  135 is at  -6.584579  2.333582 -0.194313
      ESP Fit Center  136 is at  -7.287109  1.496339 -0.194313
      ESP Fit Center  137 is at  -7.287109  0.403397 -0.194313
      ESP Fit Center  138 is at  -6.584579 -0.433846 -0.194313
      ESP Fit Center  139 is at  -6.584579  2.333582 -1.232611
      ESP Fit Center  140 is at  -7.287109  1.496339 -1.232611
      ESP Fit Center  141 is at  -7.287109  0.403397 -1.232611
      ESP Fit Center  142 is at  -6.584579 -0.433846 -1.232611
      ESP Fit Center  143 is at  -4.311085  1.841434  1.319012
      ESP Fit Center  144 is at  -3.323606  1.841434  0.998161
      ESP Fit Center  145 is at  -4.005937  2.780583  0.998161
      ESP Fit Center  146 is at  -5.109972  2.421860  0.998161
      ESP Fit Center  147 is at  -4.005937  0.902285  0.998161
      ESP Fit Center  148 is at  -2.713310  1.841434  0.158161
      ESP Fit Center  149 is at  -3.087118  2.868464  0.158161
      ESP Fit Center  150 is at  -4.033634  3.414935  0.158161
      ESP Fit Center  151 is at  -5.109972  3.225148  0.158161
      ESP Fit Center  152 is at  -3.087118  2.868464 -0.880137
      ESP Fit Center  153 is at  -4.033634  3.414935 -0.880137
      ESP Fit Center  154 is at  -5.109972  3.225148 -0.880137
      ESP Fit Center  155 is at  -3.455793  0.739091  0.863259
      ESP Fit Center  156 is at  -4.146423 -0.616748  1.705630
      ESP Fit Center  157 is at  -3.158944 -0.616748  1.384779
      ESP Fit Center  158 is at  -3.841275  0.322401  1.384779
      ESP Fit Center  159 is at  -4.945310 -0.036322  1.384779
      ESP Fit Center  160 is at  -4.945310 -1.197174  1.384779
      ESP Fit Center  161 is at  -3.841275 -1.555897  1.384779
      ESP Fit Center  162 is at  -5.647840 -1.163219  0.544779
      ESP Fit Center  163 is at  -4.945310 -2.000462  0.544779
      ESP Fit Center  164 is at  -3.868972 -2.190249  0.544779
      ESP Fit Center  165 is at  -4.945310 -2.000462 -0.493519
      ESP Fit Center  166 is at  -5.833883 -1.429830 -1.180669
      ESP Fit Center  167 is at  -5.131353 -2.267073 -1.180669
      ESP Fit Center  168 is at  -4.055015 -2.456860 -1.180669
      ESP Fit Center  169 is at  -5.833883 -1.429830 -2.218967
      ESP Fit Center  170 is at  -5.131353 -2.267073 -2.218967
      ESP Fit Center  171 is at  -4.055015 -2.456860 -2.218967
      ESP Fit Center  172 is at  -3.344987 -0.883359 -3.058967
      ESP Fit Center  173 is at  -5.131353 -1.463785 -3.058967
      ESP Fit Center  174 is at  -4.027318 -1.822508 -3.058967
      ESP Fit Center  175 is at  -2.628067  0.102396  0.818420
      ESP Fit Center  176 is at  -2.138067  0.951101  0.555830
      ESP Fit Center  177 is at  -2.103539  1.716729 -0.161580
      ESP Fit Center  178 is at  -1.648067  1.799806 -1.141580
      ESP Fit Center  179 is at  -2.628067  2.062396 -1.141580
      ESP Fit Center  180 is at  -2.103539  1.716729 -2.121580
      ESP Fit Center  181 is at  -2.138067  0.951101 -2.838990
      ESP Fit Center  182 is at  -2.628067  0.102396 -3.101580
      ESP Fit Center  183 is at  -3.375103 -2.411136 -1.145556
      ESP Fit Center  184 is at  -1.550103 -3.103267 -1.145556
      ESP Fit Center  185 is at  -2.827506 -3.036585 -1.484212
      ESP Fit Center  186 is at  -1.751168 -3.226372 -1.484212
      ESP Fit Center  187 is at  -3.530036 -2.199342 -2.522510
      ESP Fit Center  188 is at  -2.827506 -3.036585 -2.522510
      ESP Fit Center  189 is at  -1.751168 -3.226372 -2.522510
      ESP Fit Center  190 is at  -0.804652 -2.679901 -2.522510
      ESP Fit Center  191 is at  -1.041140 -1.652871 -3.362510
      ESP Fit Center  192 is at  -1.723471 -0.713722 -3.362510
      ESP Fit Center  193 is at  -2.827506 -1.072445 -3.362510
      ESP Fit Center  194 is at  -2.827506 -2.233297 -3.362510
      ESP Fit Center  195 is at  -1.723471 -2.592020 -3.362510
      ESP Fit Center  196 is at  -2.028619 -1.652871 -3.683361
      ESP Fit Center  197 is at  -1.947011 -1.610541  1.436225
      ESP Fit Center  198 is at  -0.959532 -1.610541  1.115374
      ESP Fit Center  199 is at  -1.641863 -0.671392  1.115374
      ESP Fit Center  200 is at  -2.745898 -1.030115  1.115374
      ESP Fit Center  201 is at  -2.745898 -2.190967  1.115374
      ESP Fit Center  202 is at  -1.641863 -2.549690  1.115374
      ESP Fit Center  203 is at  -3.448428 -2.157012  0.275374
      ESP Fit Center  204 is at  -2.745898 -2.994255  0.275374
      ESP Fit Center  205 is at  -1.669560 -3.184042  0.275374
      ESP Fit Center  206 is at  -0.723044 -2.637571  0.275374
      ESP Fit Center  207 is at  -2.745898 -2.994255 -0.762924
      ESP Fit Center  208 is at  -1.669560 -3.184042 -0.762924
      ESP Fit Center  209 is at  -1.106908  1.393432 -1.222872
      ESP Fit Center  210 is at   1.456415 -0.570102 -2.272872
      ESP Fit Center  211 is at  -1.056259  1.534348 -1.510305
      ESP Fit Center  212 is at   1.340403  0.150634 -2.548603
      ESP Fit Center  213 is at   0.966595  1.177664 -2.548603
      ESP Fit Center  214 is at   0.020079  1.724135 -2.548603
      ESP Fit Center  215 is at  -1.056259  1.534348 -2.548603
      ESP Fit Center  216 is at   0.730107  0.150634 -3.388603
      ESP Fit Center  217 is at   0.047776  1.089783 -3.388603
      ESP Fit Center  218 is at  -1.056259  0.731060 -3.388603
      ESP Fit Center  219 is at  -1.056259 -0.429792 -3.388603
      ESP Fit Center  220 is at   0.047776 -0.788515 -3.388603
      ESP Fit Center  221 is at  -0.257372  0.150634 -3.709454
      ESP Fit Center  222 is at   0.569664 -2.369668 -0.092179
      ESP Fit Center  223 is at  -0.534371 -2.814233 -0.932179
      ESP Fit Center  224 is at   0.541967 -3.004020 -0.932179
      ESP Fit Center  225 is at   1.488483 -2.457549 -0.932179
      ESP Fit Center  226 is at  -0.534371 -2.814233 -1.970477
      ESP Fit Center  227 is at   0.541967 -3.004020 -1.970477
      ESP Fit Center  228 is at   1.488483 -2.457549 -1.970477
      ESP Fit Center  229 is at   1.251995 -1.430519 -2.810477
      ESP Fit Center  230 is at  -0.534371 -2.010945 -2.810477
      ESP Fit Center  231 is at   0.569664 -2.369668 -2.810477
      ESP Fit Center  232 is at   0.264516 -1.430519 -3.131328
      ESP Fit Center  233 is at   0.000000  0.000000  1.960000
      ESP Fit Center  234 is at  -0.490000  0.848705  1.697410
      ESP Fit Center  235 is at  -0.980000  0.000000  1.697410
      ESP Fit Center  236 is at  -0.490000 -0.848705  1.697410
      ESP Fit Center  237 is at   0.490000 -0.848705  1.697410
      ESP Fit Center  238 is at  -1.373233  0.997712  0.980000
      ESP Fit Center  239 is at  -1.697410  0.000000  0.980000
      ESP Fit Center  240 is at  -0.524528 -1.614333  0.980000
      ESP Fit Center  241 is at   0.524528 -1.614333  0.980000
      ESP Fit Center  242 is at  -0.980000  1.697410  0.000000
      ESP Fit Center  243 is at   0.388871  2.778576  0.000000
      ESP Fit Center  244 is at  -0.438332  2.207600  0.000000
      ESP Fit Center  245 is at   1.069888  1.413079  2.578917
      ESP Fit Center  246 is at   1.375036  2.352228  2.258066
      ESP Fit Center  247 is at   0.271001  1.993505  2.258066
      ESP Fit Center  248 is at   0.271001  0.832653  2.258066
      ESP Fit Center  249 is at   1.375036  0.473930  2.258066
      ESP Fit Center  250 is at   1.347339  2.986580  1.418066
      ESP Fit Center  251 is at   0.271001  2.796793  1.418066
      ESP Fit Center  252 is at  -0.431529  1.959550  1.418066
      ESP Fit Center  253 is at   1.347339  2.986580  0.379768
      ESP Fit Center  254 is at   0.271001  2.796793  0.379768
      ESP Fit Center  255 is at   1.399281  3.065800 -0.330414
      ESP Fit Center  256 is at   0.322943  2.876013 -0.330414
      ESP Fit Center  257 is at   2.345797  2.519329 -1.368712
      ESP Fit Center  258 is at   1.399281  3.065800 -1.368712
      ESP Fit Center  259 is at   0.322943  2.876013 -1.368712
      ESP Fit Center  260 is at  -0.379587  2.038770 -1.368712
      ESP Fit Center  261 is at   2.109309  1.492299 -2.208712
      ESP Fit Center  262 is at   1.426978  2.431448 -2.208712
      ESP Fit Center  263 is at   0.322943  2.072725 -2.208712
      ESP Fit Center  264 is at   1.426978  0.553150 -2.208712
      ESP Fit Center  265 is at   1.121830  1.492299 -2.529563
      ESP Fit Center  266 is at   3.618748 -1.728266  0.000000
      ESP Fit Center  267 is at   1.727534 -1.939615 -0.405076
      ESP Fit Center  268 is at   2.803872 -2.129402 -0.405076
      ESP Fit Center  269 is at   3.750388 -1.582931 -0.405076
      ESP Fit Center  270 is at   2.803872 -2.129402 -1.443374
      ESP Fit Center  271 is at   3.750388 -1.582931 -1.443374
      ESP Fit Center  272 is at   3.513900 -0.555901 -2.283374
      ESP Fit Center  273 is at   2.831569  0.383248 -2.283374
      ESP Fit Center  274 is at   1.727534  0.024525 -2.283374
      ESP Fit Center  275 is at   1.727534 -1.136327 -2.283374
      ESP Fit Center  276 is at   2.831569 -1.495050 -2.283374
      ESP Fit Center  277 is at   2.526421 -0.555901 -2.604225
      ESP Fit Center  278 is at   2.409010 -0.719939  2.489740
      ESP Fit Center  279 is at   1.610123 -0.139513  2.168889
      ESP Fit Center  280 is at   1.610123 -1.300365  2.168889
      ESP Fit Center  281 is at   2.714158 -1.659088  2.168889
      ESP Fit Center  282 is at   0.907593 -1.266410  1.328889
      ESP Fit Center  283 is at   1.610123 -2.103653  1.328889
      ESP Fit Center  284 is at   2.686461 -2.293440  1.328889
      ESP Fit Center  285 is at   3.632977 -1.746969  1.328889
      ESP Fit Center  286 is at   1.610123 -2.103653  0.290591
      ESP Fit Center  287 is at   2.686461 -2.293440  0.290591
      ESP Fit Center  288 is at   3.632977 -1.746969  0.290591
      ESP Fit Center  289 is at   5.540138 -0.021754  1.641591
      ESP Fit Center  290 is at   3.397220  3.342524  0.659217
      ESP Fit Center  291 is at   2.439477  2.881299  0.659217
      ESP Fit Center  292 is at   4.460236 -1.314850  0.659217
      ESP Fit Center  293 is at   5.417979 -0.853625  0.659217
      ESP Fit Center  294 is at   6.080758 -0.022526  0.659217
      ESP Fit Center  295 is at   6.317301  1.013837 -0.431135
      ESP Fit Center  296 is at   6.080758  2.050200 -0.431135
      ESP Fit Center  297 is at   5.417979  2.881299 -0.431135
      ESP Fit Center  298 is at   4.460236  3.342524 -0.431135
      ESP Fit Center  299 is at   3.397220  3.342524 -0.431135
      ESP Fit Center  300 is at   2.439477  2.881299 -0.431135
      ESP Fit Center  301 is at   4.460236 -1.314850 -0.431135
      ESP Fit Center  302 is at   5.417979 -0.853625 -0.431135
      ESP Fit Center  303 is at   6.080758 -0.022526 -0.431135
      ESP Fit Center  304 is at   5.844215  1.013837 -1.413509
      ESP Fit Center  305 is at   5.540138  2.049428 -1.413509
      ESP Fit Center  306 is at   4.724450  2.756225 -1.413509
      ESP Fit Center  307 is at   3.656126  2.909827 -1.413509
      ESP Fit Center  308 is at   2.674351  2.461466 -1.413509
      ESP Fit Center  309 is at   4.724450 -0.728551 -1.413509
      ESP Fit Center  310 is at   5.540138 -0.021754 -1.413509
      ESP Fit Center  311 is at   4.991743  1.013837 -2.093333
      ESP Fit Center  312 is at   4.460236  1.934435 -2.093333
      ESP Fit Center  313 is at   3.397220  1.934435 -2.093333
      ESP Fit Center  314 is at   2.865713  1.013837 -2.093333
      ESP Fit Center  315 is at   4.460236  0.093239 -2.093333
      ESP Fit Center  316 is at   3.928728  1.013837 -2.335959
      ESP Fit Center  317 is at   2.284748  2.565460  3.525423
      ESP Fit Center  318 is at   2.284748  1.404608  3.525423
      ESP Fit Center  319 is at   3.361086  3.558535  2.685423
      ESP Fit Center  320 is at   2.284748  3.368748  2.685423
      ESP Fit Center  321 is at   1.582218  2.531505  2.685423
      ESP Fit Center  322 is at   1.582218  1.438563  2.685423
      ESP Fit Center  323 is at   3.361086  3.558535  1.647125
      ESP Fit Center  324 is at   2.284748  3.368748  1.647125
      ESP Fit Center  325 is at   3.159701  1.076073  3.816920
      ESP Fit Center  326 is at   3.159701 -0.084779  3.816920
      ESP Fit Center  327 is at   2.457171 -0.050824  2.976920
      ESP Fit Center  328 is at   3.159701 -0.888067  2.976920
      ESP Fit Center  329 is at   4.236039 -1.077854  2.976920
      ESP Fit Center  330 is at   4.236039 -1.077854  1.938622
      ESP Fit Center  331 is at   5.182555 -0.531383  1.938622
      ESP Fit Center  332 is at   7.073438  3.213441  2.196944
      ESP Fit Center  333 is at   3.642107  3.630080  2.196944
      ESP Fit Center  334 is at   6.406020  4.203032  2.177293
      ESP Fit Center  335 is at   5.459504  4.749503  2.177293
      ESP Fit Center  336 is at   4.383166  4.559716  2.177293
      ESP Fit Center  337 is at   3.680636  3.722473  2.177293
      ESP Fit Center  338 is at   6.779828  3.176002  1.138995
      ESP Fit Center  339 is at   6.406020  4.203032  1.138995
      ESP Fit Center  340 is at   5.459504  4.749503  1.138995
      ESP Fit Center  341 is at   4.383166  4.559716  1.138995
      ESP Fit Center  342 is at   3.680636  3.722473  1.138995
      ESP Fit Center  343 is at   6.169532  3.176002  0.298995
      ESP Fit Center  344 is at   5.487201  4.115151  0.298995
      ESP Fit Center  345 is at   4.383166  3.756428  0.298995
      ESP Fit Center  346 is at   5.182053  3.176002 -0.021856
      ESP Fit Center  347 is at   7.328958  2.742175  2.391746
      ESP Fit Center  348 is at   6.382442  0.141644  2.391746
      ESP Fit Center  349 is at   7.702766  1.715145  1.353448
      ESP Fit Center  350 is at   7.328958  2.742175  1.353448
      ESP Fit Center  351 is at   6.382442  0.141644  1.353448
      ESP Fit Center  352 is at   7.328958  0.688115  1.353448
      ESP Fit Center  353 is at   7.092470  1.715145  0.513448
      ESP Fit Center  354 is at   6.410139  2.654294  0.513448
      ESP Fit Center  355 is at   6.410139  0.775996  0.513448
      ESP Fit Center  356 is at   5.902069  3.608135  6.159850
      ESP Fit Center  357 is at   4.839053  3.608135  6.159850
      ESP Fit Center  358 is at   4.307546  2.687537  6.159850
      ESP Fit Center  359 is at   6.981971  3.723128  5.480026
      ESP Fit Center  360 is at   6.166283  4.429925  5.480026
      ESP Fit Center  361 is at   5.097959  4.583527  5.480026
      ESP Fit Center  362 is at   4.116184  4.135166  5.480026
      ESP Fit Center  363 is at   3.532665  3.227192  5.480026
      ESP Fit Center  364 is at   3.532665  2.147882  5.480026
      ESP Fit Center  365 is at   7.522591  3.723900  4.497652
      ESP Fit Center  366 is at   6.859812  4.554999  4.497652
      ESP Fit Center  367 is at   5.902069  5.016224  4.497652
      ESP Fit Center  368 is at   4.839053  5.016224  4.497652
      ESP Fit Center  369 is at   3.881310  4.554999  4.497652
      ESP Fit Center  370 is at   3.218531  3.723900  4.497652
      ESP Fit Center  371 is at   2.981988  2.687537  4.497652
      ESP Fit Center  372 is at   3.218531  1.651174  4.497652
      ESP Fit Center  373 is at   3.881310  0.820075  4.497652
      ESP Fit Center  374 is at   7.522591  3.723900  3.407300
      ESP Fit Center  375 is at   6.859812  4.554999  3.407300
      ESP Fit Center  376 is at   5.902069  5.016224  3.407300
      ESP Fit Center  377 is at   4.839053  5.016224  3.407300
      ESP Fit Center  378 is at   3.881310  4.554999  3.407300
      ESP Fit Center  379 is at   3.218531  3.723900  3.407300
      ESP Fit Center  380 is at   6.981971  3.723128  2.424926
      ESP Fit Center  381 is at   6.166283  4.429925  2.424926
      ESP Fit Center  382 is at   5.794484 -0.633187  5.737103
      ESP Fit Center  383 is at   4.717134 -0.270681  5.662337
      ESP Fit Center  384 is at   4.014604 -0.236726  4.822337
      ESP Fit Center  385 is at   4.717134 -1.073969  4.822337
      ESP Fit Center  386 is at   4.717134 -1.073969  3.784039
      ESP Fit Center  387 is at   5.821169 -0.629404  2.944039
      ESP Fit Center  388 is at   5.831388  1.229911  7.424164
      ESP Fit Center  389 is at   6.818867  1.229911  7.103313
      ESP Fit Center  390 is at   6.136536  2.169060  7.103313
      ESP Fit Center  391 is at   5.032501  1.810337  7.103313
      ESP Fit Center  392 is at   5.032501  0.649485  7.103313
      ESP Fit Center  393 is at   6.136536  0.290762  7.103313
      ESP Fit Center  394 is at   7.055355  2.256941  6.263313
      ESP Fit Center  395 is at   4.329971  1.776382  6.263313
      ESP Fit Center  396 is at   4.329971  0.683440  6.263313
      ESP Fit Center  397 is at   5.032501 -0.153803  6.263313
      ESP Fit Center  398 is at   8.315656  2.672324  3.435938
      ESP Fit Center  399 is at   9.419726  1.024465  2.917125
      ESP Fit Center  400 is at   9.045918  2.051495  2.917125
      ESP Fit Center  401 is at   8.099402  2.597966  2.917125
      ESP Fit Center  402 is at   8.809430  1.024465  2.077125
      ESP Fit Center  403 is at   8.127099  1.963614  2.077125
      ESP Fit Center  404 is at   7.821951  1.024465  1.756274
      ESP Fit Center  405 is at   8.071392  1.855395  6.622231
      ESP Fit Center  406 is at   9.058871  1.855395  6.301380
      ESP Fit Center  407 is at   8.376540  2.794544  6.301380
      ESP Fit Center  408 is at   7.272505  2.435821  6.301380
      ESP Fit Center  409 is at   9.669167  1.855395  5.461380
      ESP Fit Center  410 is at   9.295359  2.882425  5.461380
      ESP Fit Center  411 is at   8.348843  3.428896  5.461380
      ESP Fit Center  412 is at   7.272505  3.239109  5.461380
      ESP Fit Center  413 is at   9.669167  1.855395  4.423082
      ESP Fit Center  414 is at   9.295359  2.882425  4.423082
      ESP Fit Center  415 is at   8.348843  3.428896  4.423082
      ESP Fit Center  416 is at   8.376540  2.794544  3.583082
      ESP Fit Center  417 is at   8.253278 -0.467457  7.726425
      ESP Fit Center  418 is at   9.316293 -0.467457  7.483799
      ESP Fit Center  419 is at   8.784786  0.453141  7.483799
      ESP Fit Center  420 is at   7.721770  0.453141  7.483799
      ESP Fit Center  421 is at   7.190263 -0.467457  7.483799
      ESP Fit Center  422 is at   7.721770 -1.388055  7.483799
      ESP Fit Center  423 is at   8.784786 -1.388055  7.483799
      ESP Fit Center  424 is at  10.168765 -0.467457  6.803975
      ESP Fit Center  425 is at   9.864688  0.568134  6.803975
      ESP Fit Center  426 is at   9.049000  1.274931  6.803975
      ESP Fit Center  427 is at   7.980676  1.428533  6.803975
      ESP Fit Center  428 is at   6.415382 -1.007112  6.803975
      ESP Fit Center  429 is at   6.998901 -1.915086  6.803975
      ESP Fit Center  430 is at   7.980676 -2.363447  6.803975
      ESP Fit Center  431 is at   9.049000 -2.209845  6.803975
      ESP Fit Center  432 is at   9.864688 -1.503048  6.803975
      ESP Fit Center  433 is at  10.641851 -0.467457  5.821601
      ESP Fit Center  434 is at  10.405308  0.568906  5.821601
      ESP Fit Center  435 is at   9.742529  1.400005  5.821601
      ESP Fit Center  436 is at   6.101248 -1.503820  5.821601
      ESP Fit Center  437 is at   9.742529 -2.334919  5.821601
      ESP Fit Center  438 is at  10.405308 -1.503820  5.821601
      ESP Fit Center  439 is at  10.641851 -0.467457  4.731249
      ESP Fit Center  440 is at  10.405308  0.568906  4.731249
      ESP Fit Center  441 is at   9.742529  1.400005  4.731249
      ESP Fit Center  442 is at  10.405308 -1.503820  4.731249
      ESP Fit Center  443 is at   9.864688  0.568134  3.748875
      ESP Fit Center  444 is at   7.967001 -2.705951  6.337234
      ESP Fit Center  445 is at   8.954480 -2.705951  6.016383
      ESP Fit Center  446 is at   7.168114 -3.286377  6.016383
      ESP Fit Center  447 is at   8.272149 -3.645100  6.016383
      ESP Fit Center  448 is at   9.564776 -2.705951  5.176383
      ESP Fit Center  449 is at   6.465584 -3.252422  5.176383
      ESP Fit Center  450 is at   7.168114 -4.089665  5.176383
      ESP Fit Center  451 is at   8.244452 -4.279452  5.176383
      ESP Fit Center  452 is at   9.190968 -3.732981  5.176383
      ESP Fit Center  453 is at   7.168114 -4.089665  4.138085
      ESP Fit Center  454 is at   8.244452 -4.279452  4.138085
      ESP Fit Center  455 is at   9.190968 -3.732981  4.138085
      ESP Fit Center  456 is at   5.969397 -2.312010  5.220028
      ESP Fit Center  457 is at   5.266867 -2.278055  4.380028
      ESP Fit Center  458 is at   5.969397 -3.115298  4.380028
      ESP Fit Center  459 is at   5.266867 -1.185113  3.341730
      ESP Fit Center  460 is at   5.266867 -2.278055  3.341730
      ESP Fit Center  461 is at   5.969397 -3.115298  3.341730
      ESP Fit Center  462 is at   5.969397 -1.151158  2.501730
      ESP Fit Center  463 is at   5.969397 -2.312010  2.501730
      ESP Fit Center  464 is at   9.423644 -3.467493  3.878209
      ESP Fit Center  465 is at  10.198097 -0.829950  1.778209
      ESP Fit Center  466 is at   6.923163 -1.300814  1.778209
      ESP Fit Center  467 is at   9.718148 -1.813188  1.009556
      ESP Fit Center  468 is at   8.668148 -1.813188  0.728209
      ESP Fit Center  469 is at   6.873363 -3.198618  2.722641
      ESP Fit Center  470 is at   7.575893 -4.035861  2.722641
      ESP Fit Center  471 is at   8.652231 -4.225648  2.722641
      ESP Fit Center  472 is at   6.873363 -2.105676  1.684343
      ESP Fit Center  473 is at   6.873363 -3.198618  1.684343
      ESP Fit Center  474 is at   7.575893 -4.035861  1.684343
      ESP Fit Center  475 is at   8.652231 -4.225648  1.684343
      ESP Fit Center  476 is at   9.598747 -3.679177  1.684343
      ESP Fit Center  477 is at   9.362259 -2.652147  0.844343
      ESP Fit Center  478 is at   7.575893 -2.071721  0.844343
      ESP Fit Center  479 is at   7.575893 -3.232573  0.844343
      ESP Fit Center  480 is at   8.679928 -3.591296  0.844343
      ESP Fit Center  481 is at   8.374780 -2.652147  0.523492
      ESP Fit Center  482 is at   9.767236  0.117775  2.761495
      ESP Fit Center  483 is at   7.041852 -0.362784  2.761495
      ESP Fit Center  484 is at   9.767236  0.117775  1.723197
      ESP Fit Center  485 is at   8.820720  0.664246  1.723197
      ESP Fit Center  486 is at   7.744382  0.474459  1.723197
      ESP Fit Center  487 is at   7.041852 -0.362784  1.723197
      ESP Fit Center  488 is at   9.530748 -0.909255  0.883197
      ESP Fit Center  489 is at   8.848417  0.029894  0.883197
      ESP Fit Center  490 is at   7.744382 -0.328829  0.883197
      ESP Fit Center  491 is at   7.744382 -1.489681  0.883197
      ESP Fit Center  492 is at   8.543269 -0.909255  0.562346
      ESP Fit Center  493 is at  10.707881 -1.915202  4.425132
      ESP Fit Center  494 is at  10.025550 -2.854351  4.425132
      ESP Fit Center  495 is at  11.318177 -1.915202  3.585132
      ESP Fit Center  496 is at  10.944369 -0.888172  3.585132
      ESP Fit Center  497 is at   9.997853 -3.488703  3.585132
      ESP Fit Center  498 is at  10.944369 -2.942232  3.585132
      ESP Fit Center  499 is at  11.318177 -1.915202  2.546834
      ESP Fit Center  500 is at  10.944369 -0.888172  2.546834
      ESP Fit Center  501 is at   9.997853 -3.488703  2.546834
      ESP Fit Center  502 is at  10.944369 -2.942232  2.546834
      ESP Fit Center  503 is at  10.707881 -1.915202  1.706834
      ESP Fit Center  504 is at  -7.645214  3.039331 -3.973786
      ESP Fit Center  505 is at  -4.078245  3.853468 -5.041886
      ESP Fit Center  506 is at  -7.645214  3.039331 -5.041886
      ESP Fit Center  507 is at  -4.757620  3.730947 -6.004212
      ESP Fit Center  508 is at  -6.765881  3.442203 -6.004212
      ESP Fit Center  509 is at  -4.757620  0.317289 -6.004212
      ESP Fit Center  510 is at  -5.016443  2.925928 -6.670161
      ESP Fit Center  511 is at  -5.016443  1.122308 -6.670161
      ESP Fit Center  512 is at  -5.241449  3.906494 -2.654036
      ESP Fit Center  513 is at  -6.201449  3.906494 -2.654036
      ESP Fit Center  514 is at  -4.376241  4.052461 -3.356805
      ESP Fit Center  515 is at  -5.207625  4.656497 -3.356805
      ESP Fit Center  516 is at  -6.235273  4.656497 -3.356805
      ESP Fit Center  517 is at  -7.066657  4.052461 -3.356805
      ESP Fit Center  518 is at  -7.384218  3.075110 -3.356805
      ESP Fit Center  519 is at  -4.058680  4.035110 -4.316805
      ESP Fit Center  520 is at  -4.761449  4.737879 -4.316805
      ESP Fit Center  521 is at  -5.721449  4.995110 -4.316805
      ESP Fit Center  522 is at  -6.681449  4.737879 -4.316805
      ESP Fit Center  523 is at  -7.384218  4.035110 -4.316805
      ESP Fit Center  524 is at  -4.376241  4.052461 -5.276805
      ESP Fit Center  525 is at  -5.207625  4.656497 -5.276805
      ESP Fit Center  526 is at  -6.235273  4.656497 -5.276805
      ESP Fit Center  527 is at  -7.066657  4.052461 -5.276805
      ESP Fit Center  528 is at  -5.241449  3.906494 -5.979574
      ESP Fit Center  529 is at  -6.201449  3.906494 -5.979574
      ESP Fit Center  530 is at  -2.873346  1.922725 -3.951328
      ESP Fit Center  531 is at  -3.190907  2.900076 -3.951328
      ESP Fit Center  532 is at  -3.190907  0.945374 -3.951328
      ESP Fit Center  533 is at  -2.616115  1.922725 -4.911328
      ESP Fit Center  534 is at  -2.873346  2.882725 -4.911328
      ESP Fit Center  535 is at  -3.576115  3.585494 -4.911328
      ESP Fit Center  536 is at  -3.576115  0.259956 -4.911328
      ESP Fit Center  537 is at  -2.873346  0.962725 -4.911328
      ESP Fit Center  538 is at  -2.873346  1.922725 -5.871328
      ESP Fit Center  539 is at  -3.190907  2.900076 -5.871328
      ESP Fit Center  540 is at  -4.022291  3.504112 -5.871328
      ESP Fit Center  541 is at  -4.022291  0.341338 -5.871328
      ESP Fit Center  542 is at  -3.190907  0.945374 -5.871328
      ESP Fit Center  543 is at  -3.576115  1.922725 -6.574097
      ESP Fit Center  544 is at  -4.056115  2.754109 -6.574097
      ESP Fit Center  545 is at  -4.056115  1.091341 -6.574097
      ESP Fit Center  546 is at  -4.536115  1.922725 -6.831328
      ESP Fit Center  547 is at  -7.910528  1.676445 -4.291448
      ESP Fit Center  548 is at  -7.910528  2.636445 -5.251448
      ESP Fit Center  549 is at  -8.167759  1.676445 -5.251448
      ESP Fit Center  550 is at  -7.910528  0.716445 -5.251448
      ESP Fit Center  551 is at  -7.207759  0.013676 -5.251448
      ESP Fit Center  552 is at  -6.247759 -0.243555 -5.251448
      ESP Fit Center  553 is at  -6.761583  3.257832 -6.211448
      ESP Fit Center  554 is at  -7.592967  2.653796 -6.211448
      ESP Fit Center  555 is at  -7.910528  1.676445 -6.211448
      ESP Fit Center  556 is at  -7.592967  0.699094 -6.211448
      ESP Fit Center  557 is at  -6.761583  0.095058 -6.211448
      ESP Fit Center  558 is at  -5.733935  0.095058 -6.211448
      ESP Fit Center  559 is at  -5.287759  1.676445 -6.914217
      ESP Fit Center  560 is at  -5.767759  2.507829 -6.914217
      ESP Fit Center  561 is at  -6.727759  2.507829 -6.914217
      ESP Fit Center  562 is at  -7.207759  1.676445 -6.914217
      ESP Fit Center  563 is at  -6.727759  0.845061 -6.914217
      ESP Fit Center  564 is at  -5.767759  0.845061 -6.914217
      ESP Fit Center  565 is at  -6.247759  1.676445 -7.171448
      ESP Fit Center  566 is at  -7.131147 -0.605309 -2.692962
      ESP Fit Center  567 is at  -3.564178  0.208828 -3.761062
      ESP Fit Center  568 is at  -6.901067 -0.194044 -4.723388
      ESP Fit Center  569 is at  -7.640945  1.317755 -1.162280
      ESP Fit Center  570 is at  -7.194769  2.899142 -1.865049
      ESP Fit Center  571 is at  -8.026153  2.295106 -1.865049
      ESP Fit Center  572 is at  -8.343714  1.317755 -1.865049
      ESP Fit Center  573 is at  -8.026153  0.340404 -1.865049
      ESP Fit Center  574 is at  -7.194769 -0.263632 -1.865049
      ESP Fit Center  575 is at  -7.640945  2.980524 -2.825049
      ESP Fit Center  576 is at  -8.343714  2.277755 -2.825049
      ESP Fit Center  577 is at  -8.600945  1.317755 -2.825049
      ESP Fit Center  578 is at  -8.343714  0.357755 -2.825049
      ESP Fit Center  579 is at  -7.640945 -0.345014 -2.825049
      ESP Fit Center  580 is at  -8.026153  2.295106 -3.785049
      ESP Fit Center  581 is at  -8.343714  1.317755 -3.785049
      ESP Fit Center  582 is at  -8.026153  0.340404 -3.785049
      ESP Fit Center  583 is at  -6.846793 -0.809157 -2.467883
      ESP Fit Center  584 is at  -6.015409 -1.413193 -2.467883
      ESP Fit Center  585 is at  -7.164354 -0.791806 -3.427883
      ESP Fit Center  586 is at  -6.461585 -1.494575 -3.427883
      ESP Fit Center  587 is at  -5.501585 -1.751806 -3.427883
      ESP Fit Center  588 is at  -3.838816  0.168194 -4.387883
      ESP Fit Center  589 is at  -6.846793 -0.809157 -4.387883
      ESP Fit Center  590 is at  -6.015409 -1.413193 -4.387883
      ESP Fit Center  591 is at  -4.987761 -1.413193 -4.387883
      ESP Fit Center  592 is at  -4.156377 -0.809157 -4.387883
      ESP Fit Center  593 is at  -5.981585 -0.663190 -5.090652
      ESP Fit Center  594 is at  -5.021585 -0.663190 -5.090652
      ESP Fit Center  595 is at  -2.810539  2.730188 -1.806153
      ESP Fit Center  596 is at  -3.503670  3.512572 -1.806153
      ESP Fit Center  597 is at  -4.480999  3.883224 -1.806153
      ESP Fit Center  598 is at  -5.518632  3.757232 -1.806153
      ESP Fit Center  599 is at  -6.378859  3.163461 -1.806153
      ESP Fit Center  600 is at  -2.560393  1.715308 -2.803047
      ESP Fit Center  601 is at  -2.810539  2.730188 -2.803047
      ESP Fit Center  602 is at  -3.503670  3.512572 -2.803047
      ESP Fit Center  603 is at  -4.480999  3.883224 -2.803047
      ESP Fit Center  604 is at  -2.992929  1.715308 -3.701217
      ESP Fit Center  605 is at  -3.327398  0.685918 -3.701217
      ESP Fit Center  606 is at  -5.989979  2.546565  0.457238
      ESP Fit Center  607 is at  -6.220059  2.957830 -0.505088
      ESP Fit Center  608 is at  -5.785692  0.949868  1.206538
      ESP Fit Center  609 is at  -6.265692  1.781252  0.949307
      ESP Fit Center  610 is at  -6.745692  0.949868  0.949307
      ESP Fit Center  611 is at  -6.265692  0.118484  0.949307
      ESP Fit Center  612 is at  -6.299516  2.531255  0.246538
      ESP Fit Center  613 is at  -7.130900  1.927219  0.246538
      ESP Fit Center  614 is at  -7.448461  0.949868  0.246538
      ESP Fit Center  615 is at  -7.130900 -0.027483  0.246538
      ESP Fit Center  616 is at  -6.299516 -0.631519  0.246538
      ESP Fit Center  617 is at  -6.745692  2.612637 -0.713462
      ESP Fit Center  618 is at  -7.448461  1.909868 -0.713462
      ESP Fit Center  619 is at  -7.705692  0.949868 -0.713462
      ESP Fit Center  620 is at  -7.448461 -0.010132 -0.713462
      ESP Fit Center  621 is at  -6.745692 -0.712901 -0.713462
      ESP Fit Center  622 is at  -6.299516 -0.631519 -1.673462
      ESP Fit Center  623 is at  -4.311085  1.841434  1.559012
      ESP Fit Center  624 is at  -3.351085  1.841434  1.301781
      ESP Fit Center  625 is at  -3.831085  2.672818  1.301781
      ESP Fit Center  626 is at  -4.791085  2.672818  1.301781
      ESP Fit Center  627 is at  -5.271085  1.841434  1.301781
      ESP Fit Center  628 is at  -3.831085  1.010050  1.301781
      ESP Fit Center  629 is at  -2.648316  1.841434  0.599012
      ESP Fit Center  630 is at  -2.965877  2.818785  0.599012
      ESP Fit Center  631 is at  -3.797261  3.422821  0.599012
      ESP Fit Center  632 is at  -4.824909  3.422821  0.599012
      ESP Fit Center  633 is at  -5.656293  2.818785  0.599012
      ESP Fit Center  634 is at  -2.648316  2.801434 -0.360988
      ESP Fit Center  635 is at  -3.351085  3.504203 -0.360988
      ESP Fit Center  636 is at  -4.311085  3.761434 -0.360988
      ESP Fit Center  637 is at  -5.271085  3.504203 -0.360988
      ESP Fit Center  638 is at  -2.965877  2.818785 -1.320988
      ESP Fit Center  639 is at  -6.088904 -1.185449 -0.421344
      ESP Fit Center  640 is at  -5.439651 -1.999586 -0.421344
      ESP Fit Center  641 is at  -4.501453 -2.451399 -0.421344
      ESP Fit Center  642 is at  -4.146423 -0.616748  1.945630
      ESP Fit Center  643 is at  -3.186423 -0.616748  1.688399
      ESP Fit Center  644 is at  -3.666423  0.214636  1.688399
      ESP Fit Center  645 is at  -4.626423  0.214636  1.688399
      ESP Fit Center  646 is at  -5.106423 -0.616748  1.688399
      ESP Fit Center  647 is at  -4.626423 -1.448132  1.688399
      ESP Fit Center  648 is at  -3.666423 -1.448132  1.688399
      ESP Fit Center  649 is at  -5.809192 -0.616748  0.985630
      ESP Fit Center  650 is at  -5.491631 -1.594099  0.985630
      ESP Fit Center  651 is at  -4.660247 -2.198135  0.985630
      ESP Fit Center  652 is at  -3.632599 -2.198135  0.985630
      ESP Fit Center  653 is at  -5.809192 -1.576748  0.025630
      ESP Fit Center  654 is at  -5.106423 -2.279517  0.025630
      ESP Fit Center  655 is at  -4.146423 -2.536748  0.025630
      ESP Fit Center  656 is at  -5.677674 -1.860710 -0.739818
      ESP Fit Center  657 is at  -4.846290 -2.464746 -0.739818
      ESP Fit Center  658 is at  -6.252466 -0.883359 -1.699818
      ESP Fit Center  659 is at  -5.995235 -1.843359 -1.699818
      ESP Fit Center  660 is at  -5.292466 -2.546128 -1.699818
      ESP Fit Center  661 is at  -4.332466 -2.803359 -1.699818
      ESP Fit Center  662 is at  -5.677674 -1.860710 -2.659818
      ESP Fit Center  663 is at  -4.846290 -2.464746 -2.659818
      ESP Fit Center  664 is at  -3.818642 -2.464746 -2.659818
      ESP Fit Center  665 is at  -3.372466 -0.883359 -3.362587
      ESP Fit Center  666 is at  -4.812466 -1.714743 -3.362587
      ESP Fit Center  667 is at  -3.852466 -1.714743 -3.362587
      ESP Fit Center  668 is at  -2.628067  0.102396  1.098420
      ESP Fit Center  669 is at  -2.142117  0.944086  0.876590
      ESP Fit Center  670 is at  -2.086885  1.767984  0.255037
      ESP Fit Center  671 is at  -1.387505  1.899660 -0.643133
      ESP Fit Center  672 is at  -2.364834  2.270312 -0.643133
      ESP Fit Center  673 is at  -1.387505  1.899660 -1.640027
      ESP Fit Center  674 is at  -2.364834  2.270312 -1.640027
      ESP Fit Center  675 is at  -2.086885  1.767984 -2.538197
      ESP Fit Center  676 is at  -2.142117  0.944086 -3.159750
      ESP Fit Center  677 is at  -2.628067  0.102396 -3.381580
      ESP Fit Center  678 is at  -2.988619 -3.315640 -2.003361
      ESP Fit Center  679 is at  -2.028619 -3.572871 -2.003361
      ESP Fit Center  680 is at  -1.068619 -3.315640 -2.003361
      ESP Fit Center  681 is at  -3.373827 -2.630222 -2.963361
      ESP Fit Center  682 is at  -2.542443 -3.234258 -2.963361
      ESP Fit Center  683 is at  -1.514795 -3.234258 -2.963361
      ESP Fit Center  684 is at  -0.683411 -2.630222 -2.963361
      ESP Fit Center  685 is at  -1.068619 -1.652871 -3.666130
      ESP Fit Center  686 is at  -1.548619 -0.821487 -3.666130
      ESP Fit Center  687 is at  -2.508619 -0.821487 -3.666130
      ESP Fit Center  688 is at  -2.988619 -1.652871 -3.666130
      ESP Fit Center  689 is at  -2.508619 -2.484255 -3.666130
      ESP Fit Center  690 is at  -1.548619 -2.484255 -3.666130
      ESP Fit Center  691 is at  -2.028619 -1.652871 -3.923361
      ESP Fit Center  692 is at  -1.947011 -1.610541  1.676225
      ESP Fit Center  693 is at  -0.987011 -1.610541  1.418994
      ESP Fit Center  694 is at  -2.427011 -0.779157  1.418994
      ESP Fit Center  695 is at  -2.907011 -1.610541  1.418994
      ESP Fit Center  696 is at  -2.427011 -2.441925  1.418994
      ESP Fit Center  697 is at  -1.467011 -2.441925  1.418994
      ESP Fit Center  698 is at  -3.292219 -2.587892  0.716225
      ESP Fit Center  699 is at  -2.460835 -3.191928  0.716225
      ESP Fit Center  700 is at  -1.433187 -3.191928  0.716225
      ESP Fit Center  701 is at  -0.601803 -2.587892  0.716225
      ESP Fit Center  702 is at  -3.609780 -2.570541 -0.243775
      ESP Fit Center  703 is at  -2.907011 -3.273310 -0.243775
      ESP Fit Center  704 is at  -1.947011 -3.530541 -0.243775
      ESP Fit Center  705 is at  -0.987011 -3.273310 -0.243775
      ESP Fit Center  706 is at   0.417245 -2.276931  0.273504
      ESP Fit Center  707 is at   1.514158 -0.570102 -2.719248
      ESP Fit Center  708 is at   0.158422 -1.471912 -3.385197
      ESP Fit Center  709 is at  -1.217372  1.813403 -2.029454
      ESP Fit Center  710 is at   1.405397  0.150634 -2.989454
      ESP Fit Center  711 is at   1.087836  1.127985 -2.989454
      ESP Fit Center  712 is at   0.256452  1.732021 -2.989454
      ESP Fit Center  713 is at  -0.771196  1.732021 -2.989454
      ESP Fit Center  714 is at  -1.602580  1.127985 -2.989454
      ESP Fit Center  715 is at   0.702628  0.150634 -3.692223
      ESP Fit Center  716 is at   0.222628  0.982018 -3.692223
      ESP Fit Center  717 is at  -0.737372  0.982018 -3.692223
      ESP Fit Center  718 is at  -1.217372  0.150634 -3.692223
      ESP Fit Center  719 is at  -0.737372 -0.680750 -3.692223
      ESP Fit Center  720 is at   0.222628 -0.680750 -3.692223
      ESP Fit Center  721 is at  -0.257372  0.150634 -3.949454
      ESP Fit Center  722 is at   0.744516 -2.261903  0.211441
      ESP Fit Center  723 is at  -0.249308 -3.011906 -0.491328
      ESP Fit Center  724 is at   0.778340 -3.011906 -0.491328
      ESP Fit Center  725 is at   1.609724 -2.407870 -0.491328
      ESP Fit Center  726 is at   0.264516 -3.350519 -1.451328
      ESP Fit Center  727 is at   1.224516 -3.093288 -1.451328
      ESP Fit Center  728 is at   1.927285 -2.390519 -1.451328
      ESP Fit Center  729 is at  -0.249308 -3.011906 -2.411328
      ESP Fit Center  730 is at   0.778340 -3.011906 -2.411328
      ESP Fit Center  731 is at   1.609724 -2.407870 -2.411328
      ESP Fit Center  732 is at   1.224516 -1.430519 -3.114097
      ESP Fit Center  733 is at  -0.215484 -2.261903 -3.114097
      ESP Fit Center  734 is at   0.744516 -2.261903 -3.114097
      ESP Fit Center  735 is at   0.000000  0.000000  2.240000
      ESP Fit Center  736 is at  -0.485950  0.841690  2.018170
      ESP Fit Center  737 is at  -0.971900  0.000000  2.018170
      ESP Fit Center  738 is at  -0.485950 -0.841690  2.018170
      ESP Fit Center  739 is at   0.485950 -0.841690  2.018170
      ESP Fit Center  740 is at  -1.416834  1.029390  1.396617
      ESP Fit Center  741 is at  -1.751303  0.000000  1.396617
      ESP Fit Center  742 is at  -0.541182 -1.665588  1.396617
      ESP Fit Center  743 is at   0.541182 -1.665588  1.396617
      ESP Fit Center  744 is at  -1.634627  1.448153  0.498447
      ESP Fit Center  745 is at   0.263233 -2.167916  0.498447
      ESP Fit Center  746 is at   0.612881 -0.086768  2.162325
      ESP Fit Center  747 is at   1.069888  1.413079  2.818917
      ESP Fit Center  748 is at   0.589888  2.244463  2.561686
      ESP Fit Center  749 is at   0.109888  1.413079  2.561686
      ESP Fit Center  750 is at   0.589888  0.581695  2.561686
      ESP Fit Center  751 is at   1.549888  0.581695  2.561686
      ESP Fit Center  752 is at   0.556064  2.994466  1.858917
      ESP Fit Center  753 is at  -0.275320  2.390430  1.858917
      ESP Fit Center  754 is at  -0.592881  1.413079  1.858917
      ESP Fit Center  755 is at   2.029888  3.075848  0.898917
      ESP Fit Center  756 is at   1.069888  3.333079  0.898917
      ESP Fit Center  757 is at   0.109888  3.075848  0.898917
      ESP Fit Center  758 is at  -0.592881  2.373079  0.898917
      ESP Fit Center  759 is at   2.081830  3.155068 -0.849563
      ESP Fit Center  760 is at   1.121830  3.412299 -0.849563
      ESP Fit Center  761 is at   0.161830  3.155068 -0.849563
      ESP Fit Center  762 is at  -0.540939  2.452299 -0.849563
      ESP Fit Center  763 is at   2.467038  2.469650 -1.809563
      ESP Fit Center  764 is at   1.635654  3.073686 -1.809563
      ESP Fit Center  765 is at   0.608006  3.073686 -1.809563
      ESP Fit Center  766 is at  -0.223378  2.469650 -1.809563
      ESP Fit Center  767 is at   2.081830  1.492299 -2.512332
      ESP Fit Center  768 is at   1.601830  2.323683 -2.512332
      ESP Fit Center  769 is at   0.641830  2.323683 -2.512332
      ESP Fit Center  770 is at   1.601830  0.660915 -2.512332
      ESP Fit Center  771 is at   1.121830  1.492299 -2.769563
      ESP Fit Center  772 is at   2.526421 -2.475901 -0.924225
      ESP Fit Center  773 is at   3.486421 -2.218670 -0.924225
      ESP Fit Center  774 is at   2.012597 -2.137288 -1.884225
      ESP Fit Center  775 is at   3.040245 -2.137288 -1.884225
      ESP Fit Center  776 is at   3.871629 -1.533252 -1.884225
      ESP Fit Center  777 is at   3.486421 -0.555901 -2.586994
      ESP Fit Center  778 is at   3.006421  0.275483 -2.586994
      ESP Fit Center  779 is at   2.046421  0.275483 -2.586994
      ESP Fit Center  780 is at   2.046421 -1.387285 -2.586994
      ESP Fit Center  781 is at   3.006421 -1.387285 -2.586994
      ESP Fit Center  782 is at   2.526421 -0.555901 -2.844225
      ESP Fit Center  783 is at   2.409010 -0.719939  2.729740
      ESP Fit Center  784 is at   1.929010  0.111445  2.472509
      ESP Fit Center  785 is at   1.449010 -0.719939  2.472509
      ESP Fit Center  786 is at   1.929010 -1.551323  2.472509
      ESP Fit Center  787 is at   2.889010 -1.551323  2.472509
      ESP Fit Center  788 is at   1.063802 -1.697290  1.769740
      ESP Fit Center  789 is at   1.895186 -2.301326  1.769740
      ESP Fit Center  790 is at   2.922834 -2.301326  1.769740
      ESP Fit Center  791 is at   3.754218 -1.697290  1.769740
      ESP Fit Center  792 is at   1.449010 -2.382708  0.809740
      ESP Fit Center  793 is at   2.409010 -2.639939  0.809740
      ESP Fit Center  794 is at   3.369010 -2.382708  0.809740
      ESP Fit Center  795 is at   4.728113 -1.446416  1.185555
      ESP Fit Center  796 is at   5.659677 -0.908577  1.185555
      ESP Fit Center  797 is at   6.728728  1.013837  0.114041
      ESP Fit Center  798 is at   4.187079  3.801893  0.114041
      ESP Fit Center  799 is at   3.162472  3.706949  0.114041
      ESP Fit Center  800 is at   2.241351  3.248285  0.114041
      ESP Fit Center  801 is at   4.187079 -1.774219  0.114041
      ESP Fit Center  802 is at   5.176795 -1.492620  0.114041
      ESP Fit Center  803 is at   5.997953 -0.872511  0.114041
      ESP Fit Center  804 is at   6.539650  0.002360  0.114041
      ESP Fit Center  805 is at   6.515591  1.013837 -0.957473
      ESP Fit Center  806 is at   6.291945  2.066009 -0.957473
      ESP Fit Center  807 is at   5.659677  2.936251 -0.957473
      ESP Fit Center  808 is at   4.728113  3.474090 -0.957473
      ESP Fit Center  809 is at   3.658327  3.586529 -0.957473
      ESP Fit Center  810 is at   2.635297  3.254126 -0.957473
      ESP Fit Center  811 is at   4.728113 -1.446416 -0.957473
      ESP Fit Center  812 is at   5.659677 -0.908577 -0.957473
      ESP Fit Center  813 is at   6.291945 -0.038335 -0.957473
      ESP Fit Center  814 is at   5.908627  1.013837 -1.865858
      ESP Fit Center  815 is at   5.643371  2.003786 -1.865858
      ESP Fit Center  816 is at   4.918677  2.728480 -1.865858
      ESP Fit Center  817 is at   3.928728  2.993736 -1.865858
      ESP Fit Center  818 is at   2.938779  2.728480 -1.865858
      ESP Fit Center  819 is at   4.918677 -0.700806 -1.865858
      ESP Fit Center  820 is at   5.643371  0.023888 -1.865858
      ESP Fit Center  821 is at   5.000242  1.013837 -2.472822
      ESP Fit Center  822 is at   4.464485  1.941795 -2.472822
      ESP Fit Center  823 is at   3.392971  1.941795 -2.472822
      ESP Fit Center  824 is at   2.857214  1.013837 -2.472822
      ESP Fit Center  825 is at   4.464485  0.085879 -2.472822
      ESP Fit Center  826 is at   3.928728  1.013837 -2.685959
      ESP Fit Center  827 is at   1.854141  0.403339  2.425429
      ESP Fit Center  828 is at   2.123635  1.985034  3.829043
      ESP Fit Center  829 is at   2.569811  3.566421  3.126274
      ESP Fit Center  830 is at   1.738427  2.962385  3.126274
      ESP Fit Center  831 is at   1.420866  1.985034  3.126274
      ESP Fit Center  832 is at   1.738427  1.007683  3.126274
      ESP Fit Center  833 is at   3.083635  3.905034  2.166274
      ESP Fit Center  834 is at   2.123635  3.647803  2.166274
      ESP Fit Center  835 is at   1.420866  2.945034  2.166274
      ESP Fit Center  836 is at   2.569811  3.566421  1.206274
      ESP Fit Center  837 is at   2.998588  0.495647  4.120540
      ESP Fit Center  838 is at   3.478588 -0.335737  4.120540
      ESP Fit Center  839 is at   2.295819  0.495647  3.417771
      ESP Fit Center  840 is at   2.613380 -0.481704  3.417771
      ESP Fit Center  841 is at   3.444764 -1.085740  3.417771
      ESP Fit Center  842 is at   4.472412 -1.085740  3.417771
      ESP Fit Center  843 is at   3.958588 -1.424353  2.457771
      ESP Fit Center  844 is at   4.918588 -1.167122  2.457771
      ESP Fit Center  845 is at   5.621357 -0.464353  2.457771
      ESP Fit Center  846 is at   7.322091  3.252735  1.662894
      ESP Fit Center  847 is at   6.844822  4.136002  1.658144
      ESP Fit Center  848 is at   6.142053  4.838771  1.658144
      ESP Fit Center  849 is at   5.182053  5.096002  1.658144
      ESP Fit Center  850 is at   4.222053  4.838771  1.658144
      ESP Fit Center  851 is at   3.519284  4.136002  1.658144
      ESP Fit Center  852 is at   6.844822  3.176002  0.698144
      ESP Fit Center  853 is at   6.527261  4.153353  0.698144
      ESP Fit Center  854 is at   5.695877  4.757389  0.698144
      ESP Fit Center  855 is at   4.668229  4.757389  0.698144
      ESP Fit Center  856 is at   3.836845  4.153353  0.698144
      ESP Fit Center  857 is at   6.142053  3.176002 -0.004625
      ESP Fit Center  858 is at   5.662053  4.007386 -0.004625
      ESP Fit Center  859 is at   4.702053  4.007386 -0.004625
      ESP Fit Center  860 is at   7.767760  2.675145  1.872597
      ESP Fit Center  861 is at   6.104991 -0.204855  1.872597
      ESP Fit Center  862 is at   7.767760  1.715145  0.912597
      ESP Fit Center  863 is at   7.450199  2.692496  0.912597
      ESP Fit Center  864 is at   6.618815  0.133758  0.912597
      ESP Fit Center  865 is at   7.450199  0.737794  0.912597
      ESP Fit Center  866 is at   7.064991  1.715145  0.209828
      ESP Fit Center  867 is at   6.584991  2.546529  0.209828
      ESP Fit Center  868 is at   5.906318  3.615495  6.539339
      ESP Fit Center  869 is at   4.834804  3.615495  6.539339
      ESP Fit Center  870 is at   4.299047  2.687537  6.539339
      ESP Fit Center  871 is at   7.085204  3.677486  5.932375
      ESP Fit Center  872 is at   6.360510  4.402180  5.932375
      ESP Fit Center  873 is at   5.370561  4.667436  5.932375
      ESP Fit Center  874 is at   4.380612  4.402180  5.932375
      ESP Fit Center  875 is at   3.655918  3.677486  5.932375
      ESP Fit Center  876 is at   3.390662  2.687537  5.932375
      ESP Fit Center  877 is at   3.655918  1.697588  5.932375
      ESP Fit Center  878 is at   7.101510  4.609951  5.023990
      ESP Fit Center  879 is at   6.169946  5.147790  5.023990
      ESP Fit Center  880 is at   5.100160  5.260229  5.023990
      ESP Fit Center  881 is at   4.077130  4.927826  5.023990
      ESP Fit Center  882 is at   3.277745  4.208057  5.023990
      ESP Fit Center  883 is at   2.840227  3.225376  5.023990
      ESP Fit Center  884 is at   2.840227  2.149698  5.023990
      ESP Fit Center  885 is at   3.277745  1.167017  5.023990
      ESP Fit Center  886 is at   7.981483  3.699014  3.952476
      ESP Fit Center  887 is at   7.439786  4.573885  3.952476
      ESP Fit Center  888 is at   6.618628  5.193994  3.952476
      ESP Fit Center  889 is at   5.628912  5.475593  3.952476
      ESP Fit Center  890 is at   4.604305  5.380649  3.952476
      ESP Fit Center  891 is at   3.683184  4.921985  3.952476
      ESP Fit Center  892 is at   2.989953  4.161547  3.952476
      ESP Fit Center  893 is at   2.618236  3.202036  3.952476
      ESP Fit Center  894 is at   7.733778  3.739709  2.880962
      ESP Fit Center  895 is at   7.101510  4.609951  2.880962
      ESP Fit Center  896 is at   6.169946  5.147790  2.880962
      ESP Fit Center  897 is at   5.100160  5.260229  2.880962
      ESP Fit Center  898 is at   4.077130  4.927826  2.880962
      ESP Fit Center  899 is at   3.277745  4.208057  2.880962
      ESP Fit Center  900 is at   3.853252  0.309745  5.263188
      ESP Fit Center  901 is at   4.170813 -0.667606  5.263188
      ESP Fit Center  902 is at   5.002197 -1.271642  5.263188
      ESP Fit Center  903 is at   3.853252 -0.650255  4.303188
      ESP Fit Center  904 is at   4.556021 -1.353024  4.303188
      ESP Fit Center  905 is at   5.831388  1.229911  7.664164
      ESP Fit Center  906 is at   6.791388  1.229911  7.406933
      ESP Fit Center  907 is at   6.311388  2.061295  7.406933
      ESP Fit Center  908 is at   5.351388  2.061295  7.406933
      ESP Fit Center  909 is at   4.871388  1.229911  7.406933
      ESP Fit Center  910 is at   5.351388  0.398527  7.406933
      ESP Fit Center  911 is at   6.311388  0.398527  7.406933
      ESP Fit Center  912 is at   7.176596  2.207262  6.704164
      ESP Fit Center  913 is at   6.345212  2.811298  6.704164
      ESP Fit Center  914 is at   4.486180  2.207262  6.704164
      ESP Fit Center  915 is at   4.168619  1.229911  6.704164
      ESP Fit Center  916 is at   4.486180  0.252560  6.704164
      ESP Fit Center  917 is at   5.317564 -0.351476  6.704164
      ESP Fit Center  918 is at   9.484720  1.024465  2.476274
      ESP Fit Center  919 is at   9.167159  2.001816  2.476274
      ESP Fit Center  920 is at   8.335775  2.605852  2.476274
      ESP Fit Center  921 is at   8.781951  1.024465  1.773505
      ESP Fit Center  922 is at   8.301951  1.855849  1.773505
      ESP Fit Center  923 is at   8.071392  1.855395  6.862231
      ESP Fit Center  924 is at   8.551392  2.686779  6.605000
      ESP Fit Center  925 is at   7.591392  2.686779  6.605000
      ESP Fit Center  926 is at   9.734161  1.855395  5.902231
      ESP Fit Center  927 is at   9.416600  2.832746  5.902231
      ESP Fit Center  928 is at   8.585216  3.436782  5.902231
      ESP Fit Center  929 is at   7.557568  3.436782  5.902231
      ESP Fit Center  930 is at   9.991392  1.855395  4.942231
      ESP Fit Center  931 is at   9.734161  2.815395  4.942231
      ESP Fit Center  932 is at   9.031392  3.518164  4.942231
      ESP Fit Center  933 is at   8.071392  3.775395  4.942231
      ESP Fit Center  934 is at   9.416600  2.832746  3.982231
      ESP Fit Center  935 is at   8.585216  3.436782  3.982231
      ESP Fit Center  936 is at   8.253278 -0.467457  8.076425
      ESP Fit Center  937 is at   9.324792 -0.467457  7.863288
      ESP Fit Center  938 is at   8.789035  0.460501  7.863288
      ESP Fit Center  939 is at   7.717521  0.460501  7.863288
      ESP Fit Center  940 is at   7.181764 -0.467457  7.863288
      ESP Fit Center  941 is at   7.717521 -1.395415  7.863288
      ESP Fit Center  942 is at   8.789035 -1.395415  7.863288
      ESP Fit Center  943 is at  10.233177 -0.467457  7.256324
      ESP Fit Center  944 is at   9.967921  0.522492  7.256324
      ESP Fit Center  945 is at   9.243227  1.247186  7.256324
      ESP Fit Center  946 is at   8.253278  1.512442  7.256324
      ESP Fit Center  947 is at   7.263329  1.247186  7.256324
      ESP Fit Center  948 is at   6.273379 -0.467457  7.256324
      ESP Fit Center  949 is at   6.538635 -1.457406  7.256324
      ESP Fit Center  950 is at   7.263329 -2.182100  7.256324
      ESP Fit Center  951 is at   8.253278 -2.447356  7.256324
      ESP Fit Center  952 is at   9.243227 -2.182100  7.256324
      ESP Fit Center  953 is at   9.967921 -1.457406  7.256324
      ESP Fit Center  954 is at  10.840141 -0.467457  6.347939
      ESP Fit Center  955 is at  10.616495  0.584715  6.347939
      ESP Fit Center  956 is at   9.984227  1.454957  6.347939
      ESP Fit Center  957 is at   5.722944 -1.005296  6.347939
      ESP Fit Center  958 is at   6.160462 -1.987977  6.347939
      ESP Fit Center  959 is at   6.959847 -2.707746  6.347939
      ESP Fit Center  960 is at   9.052663 -2.927710  6.347939
      ESP Fit Center  961 is at   9.984227 -2.389871  6.347939
      ESP Fit Center  962 is at  10.616495 -1.519629  6.347939
      ESP Fit Center  963 is at  11.053278 -0.467457  5.276425
      ESP Fit Center  964 is at  10.864200  0.544020  5.276425
      ESP Fit Center  965 is at  10.322503  1.418891  5.276425
      ESP Fit Center  966 is at  10.322503 -2.353805  5.276425
      ESP Fit Center  967 is at  10.864200 -1.478934  5.276425
      ESP Fit Center  968 is at  10.840141 -0.467457  4.204911
      ESP Fit Center  969 is at  10.616495  0.584715  4.204911
      ESP Fit Center  970 is at   9.984227  1.454957  4.204911
      ESP Fit Center  971 is at   9.967921  0.522492  3.296526
      ESP Fit Center  972 is at   6.023375 -2.317176  5.595336
      ESP Fit Center  973 is at   6.364905 -3.617884  3.564910
      ESP Fit Center  974 is at   7.487001 -3.537335  6.320003
      ESP Fit Center  975 is at   8.447001 -3.537335  6.320003
      ESP Fit Center  976 is at   6.621793 -3.683302  5.617234
      ESP Fit Center  977 is at   7.453177 -4.287338  5.617234
      ESP Fit Center  978 is at   8.480825 -4.287338  5.617234
      ESP Fit Center  979 is at   9.312209 -3.683302  5.617234
      ESP Fit Center  980 is at   6.304232 -3.665951  4.657234
      ESP Fit Center  981 is at   7.007001 -4.368720  4.657234
      ESP Fit Center  982 is at   7.967001 -4.625951  4.657234
      ESP Fit Center  983 is at   8.927001 -4.368720  4.657234
      ESP Fit Center  984 is at   9.629770 -3.665951  4.657234
      ESP Fit Center  985 is at   7.453177 -4.287338  3.697234
      ESP Fit Center  986 is at   8.480825 -4.287338  3.697234
      ESP Fit Center  987 is at   5.105515 -1.731584  4.820879
      ESP Fit Center  988 is at   5.423076 -2.708935  4.820879
      ESP Fit Center  989 is at   4.848284 -1.731584  3.860879
      ESP Fit Center  990 is at   5.105515 -2.691584  3.860879
      ESP Fit Center  991 is at   5.808284 -3.394353  3.860879
      ESP Fit Center  992 is at   5.105515 -1.731584  2.900879
      ESP Fit Center  993 is at   5.423076 -2.708935  2.900879
      ESP Fit Center  994 is at   6.254460 -3.312971  2.900879
      ESP Fit Center  995 is at   6.288284 -0.900200  2.198110
      ESP Fit Center  996 is at   5.808284 -1.731584  2.198110
      ESP Fit Center  997 is at   6.288284 -2.562968  2.198110
      ESP Fit Center  998 is at   9.188808 -4.094351  3.362259
      ESP Fit Center  999 is at  10.127006 -3.642538  2.294159
      ESP Fit Center 1000 is at  10.544544 -1.813188  1.331833
      ESP Fit Center 1001 is at  10.246672 -0.798732  1.331833
      ESP Fit Center 1002 is at   6.867760 -1.284546  1.331833
      ESP Fit Center 1003 is at  10.246672 -2.827644  1.331833
      ESP Fit Center 1004 is at   9.709469 -1.813188  0.665884
      ESP Fit Center 1005 is at   8.668148 -1.813188  0.428209
      ESP Fit Center 1006 is at   7.860956 -4.233534  3.163492
      ESP Fit Center 1007 is at   8.888604 -4.233534  3.163492
      ESP Fit Center 1008 is at   6.454780 -2.652147  2.203492
      ESP Fit Center 1009 is at   6.712011 -3.612147  2.203492
      ESP Fit Center 1010 is at   7.414780 -4.314916  2.203492
      ESP Fit Center 1011 is at   8.374780 -4.572147  2.203492
      ESP Fit Center 1012 is at   9.334780 -4.314916  2.203492
      ESP Fit Center 1013 is at   6.712011 -2.652147  1.243492
      ESP Fit Center 1014 is at   7.029572 -3.629498  1.243492
      ESP Fit Center 1015 is at   7.860956 -4.233534  1.243492
      ESP Fit Center 1016 is at   8.888604 -4.233534  1.243492
      ESP Fit Center 1017 is at   9.719988 -3.629498  1.243492
      ESP Fit Center 1018 is at   9.334780 -2.652147  0.540723
      ESP Fit Center 1019 is at   7.894780 -1.820763  0.540723
      ESP Fit Center 1020 is at   7.414780 -2.652147  0.540723
      ESP Fit Center 1021 is at   7.894780 -3.483531  0.540723
      ESP Fit Center 1022 is at   8.854780 -3.483531  0.540723
      ESP Fit Center 1023 is at   8.374780 -2.652147  0.283492
      ESP Fit Center 1024 is at  10.206038  0.050745  2.242346
      ESP Fit Center 1025 is at   9.503269  0.753514  2.242346
      ESP Fit Center 1026 is at   9.888477  0.068096  1.282346
      ESP Fit Center 1027 is at   9.057093  0.672132  1.282346
      ESP Fit Center 1028 is at   8.029445  0.672132  1.282346
      ESP Fit Center 1029 is at   7.198061  0.068096  1.282346
      ESP Fit Center 1030 is at   6.880500 -0.909255  1.282346
      ESP Fit Center 1031 is at   9.503269 -0.909255  0.579577
      ESP Fit Center 1032 is at   9.023269 -0.077871  0.579577
      ESP Fit Center 1033 is at   8.063269 -0.077871  0.579577
      ESP Fit Center 1034 is at   7.583269 -0.909255  0.579577
      ESP Fit Center 1035 is at   8.543269 -0.909255  0.322346
      ESP Fit Center 1036 is at  10.680402 -1.915202  4.728752
      ESP Fit Center 1037 is at  10.200402 -2.746586  4.728752
      ESP Fit Center 1038 is at  11.383171 -1.915202  4.025983
      ESP Fit Center 1039 is at  11.065610 -0.937851  4.025983
      ESP Fit Center 1040 is at  10.234226 -3.496589  4.025983
      ESP Fit Center 1041 is at  11.065610 -2.892553  4.025983
      ESP Fit Center 1042 is at  11.640402 -1.915202  3.065983
      ESP Fit Center 1043 is at  11.383171 -0.955202  3.065983
      ESP Fit Center 1044 is at  10.680402 -0.252433  3.065983
      ESP Fit Center 1045 is at  10.680402 -3.577971  3.065983
      ESP Fit Center 1046 is at  11.383171 -2.875202  3.065983
      ESP Fit Center 1047 is at  11.383171 -1.915202  2.105983
      ESP Fit Center 1048 is at  11.065610 -0.937851  2.105983
[...]
 1384 Fit       0.001663
 1385 Fit       0.000203
 1386 Fit       0.000851
 1387 Fit      -0.003365
 1388 Fit       0.007231
 1389 Fit       0.017145
 1390 Fit       0.010198
 1391 Fit       0.006369
 1392 Fit       0.005531
 1393 Fit       0.011979
 1394 Fit       0.002649
 1395 Fit      -0.002732
 1396 Fit      -0.006252
 1397 Fit      -0.003578
 1398 Fit      -0.002404
 1399 Fit      -0.008966
 1400 Fit      -0.011548
 1401 Fit      -0.012791
 1402 Fit      -0.013182
 1403 Fit      -0.010820
 1404 Fit      -0.004016
 1405 Fit      -0.011985
 1406 Fit      -0.014904
 1407 Fit      -0.015126
 1408 Fit      -0.015197
 1409 Fit      -0.015963
 1410 Fit      -0.016354
 1411 Fit      -0.014431
 1412 Fit      -0.008914
 1413 Fit      -0.000184
 1414 Fit      -0.014460
 1415 Fit      -0.016745
 1416 Fit      -0.015695
 1417 Fit      -0.014022
 1418 Fit      -0.013428
 1419 Fit      -0.013863
 1420 Fit      -0.013718
 1421 Fit      -0.011327
 1422 Fit      -0.006367
 1423 Fit       0.002271
 1424 Fit      -0.008131
 1425 Fit      -0.013725
 1426 Fit      -0.014280
 1427 Fit      -0.011812
 1428 Fit      -0.008984
 1429 Fit      -0.007481
 1430 Fit      -0.006874
 1431 Fit      -0.004446
 1432 Fit      -0.004386
 1433 Fit      -0.007612
 1434 Fit      -0.005780
 1435 Fit      -0.002007
 1436 Fit       0.000647
 1437 Fit       0.002018
 1438 Fit       0.004987
 1439 Fit       0.007341
 1440 Fit       0.009340
 1441 Fit       0.016780
 1442 Fit       0.001820
 1443 Fit      -0.001517
 1444 Fit       0.003626
 1445 Fit       0.003404
 1446 Fit       0.003180
 1447 Fit       0.000162
 1448 Fit      -0.000038
 1449 Fit       0.002708
 1450 Fit       0.002135
 1451 Fit       0.001110
 1452 Fit       0.006242
 1453 Fit       0.005997
 1454 Fit       0.004675
 1455 Fit       0.012207
 1456 Fit       0.002886
 1457 Fit       0.004638
 1458 Fit       0.001568
 1459 Fit       0.001964
 1460 Fit      -0.000825
 1461 Fit       0.000728
 1462 Fit       0.000785
 1463 Fit      -0.004664
 1464 Fit       0.001034
 1465 Fit      -0.002357
 1466 Fit      -0.016526
 1467 Fit      -0.016142
 1468 Fit      -0.013292
 1469 Fit      -0.012416
 1470 Fit      -0.016140
 1471 Fit      -0.016722
 1472 Fit      -0.015827
 1473 Fit      -0.016575
 1474 Fit      -0.014122
 1475 Fit      -0.008716
 1476 Fit      -0.004455
 1477 Fit      -0.003287
 1478 Fit      -0.006070
 1479 Fit      -0.012658
 1480 Fit      -0.014987
 1481 Fit      -0.012765
 1482 Fit      -0.010324
 1483 Fit      -0.011339
 1484 Fit      -0.014740
 1485 Fit      -0.017819
 1486 Fit      -0.015962
 1487 Fit      -0.009578
 1488 Fit      -0.001246
 1489 Fit      -0.009078
 1490 Fit      -0.007578
 1491 Fit      -0.003205
 1492 Fit      -0.000469
 1493 Fit      -0.003020
 1494 Fit      -0.008778
 1495 Fit      -0.014743
 1496 Fit      -0.018358
 1497 Fit      -0.017206
 1498 Fit      -0.010615
 1499 Fit       0.001427
 1500 Fit       0.002255
 1501 Fit      -0.006332
 1502 Fit      -0.014031
 1503 Fit      -0.016032
 1504 Fit      -0.015790
 1505 Fit      -0.009442
 1506 Fit      -0.009801
 1507 Fit      -0.010408
 1508 Fit      -0.004090
 1509 Fit       0.012112
 1510 Fit       0.003569
 1511 Fit       0.003959
 1512 Fit       0.004755
 1513 Fit       0.007295
 1514 Fit       0.008462
 1515 Fit       0.007979
 1516 Fit       0.005551
 1517 Fit       0.009500
 1518 Fit       0.010078
 1519 Fit       0.010109
 1520 Fit       0.009085
 1521 Fit       0.007179
 1522 Fit       0.011398
 1523 Fit       0.010354
 1524 Fit       0.010912
 1525 Fit       0.008731
 1526 Fit       0.016557
 1527 Fit       0.012550
 1528 Fit       0.016960
 1529 Fit       0.013358
 1530 Fit       0.016641
 1531 Fit       0.013817
 1532 Fit      -0.003380
 1533 Fit       0.005922
 1534 Fit       0.014436
 1535 Fit       0.004100
 1536 Fit       0.002380
 1537 Fit       0.002818
 1538 Fit       0.004318
 1539 Fit       0.003114
 1540 Fit       0.002889
 1541 Fit       0.003502
 1542 Fit       0.003386
 1543 Fit       0.011135
 1544 Fit       0.012733
 1545 Fit       0.011296
 1546 Fit       0.010173
 1547 Fit       0.008408
 1548 Fit       0.005998
 1549 Fit       0.006838
 1550 Fit       0.008913
 1551 Fit       0.009491
 1552 Fit       0.008712
 1553 Fit       0.006819
 1554 Fit       0.004497
 1555 Fit       0.003846
 1556 Fit       0.005460
 1557 Fit       0.007282
 1558 Fit       0.006017
 1559 Fit       0.004703
 1560 Fit       0.005793
 1561 Fit       0.004128
 1562 Fit       0.008514
 1563 Fit       0.014657
 1564 Fit       0.008308
 1565 Fit       0.003687
 1566 Fit       0.006055
 1567 Fit       0.006648
 1568 Fit       0.003158
 1569 Fit       0.003968
 1570 Fit      -0.001787
 1571 Fit      -0.009456
 1572 Fit       0.004961
 1573 Fit       0.002200
 1574 Fit       0.001726
 1575 Fit      -0.001324
 1576 Fit      -0.004773
 1577 Fit       0.004331
 1578 Fit       0.003498
 1579 Fit       0.002689
 1580 Fit       0.001133
 1581 Fit       0.003845
 1582 Fit       0.003550
 1583 Fit      -0.018230
 1584 Fit       0.001034
 1585 Fit       0.003803
 1586 Fit      -0.010020
 1587 Fit       0.000736
 1588 Fit      -0.005450
 1589 Fit      -0.004309
 1590 Fit       0.000403
 1591 Fit       0.005867
 1592 Fit       0.003808
 1593 Fit      -0.003006
 1594 Fit      -0.001914
 1595 Fit      -0.000213
 1596 Fit       0.001937
 1597 Fit      -0.000559
 1598 Fit      -0.001413
 1599 Fit      -0.000161
 1600 Fit       0.000948
 1601 Fit      -0.015007
 1602 Fit      -0.007777
 1603 Fit      -0.003787
 1604 Fit      -0.000726
 1605 Fit      -0.012097
 1606 Fit      -0.006785
 1607 Fit      -0.003390
 1608 Fit      -0.001338
 1609 Fit       0.000119
 1610 Fit      -0.007533
 1611 Fit      -0.004238
 1612 Fit      -0.001932
 1613 Fit      -0.000597
 1614 Fit       0.000211
 1615 Fit      -0.003975
 1616 Fit      -0.001983
 1617 Fit      -0.000820
 1618 Fit      -0.014037
 1619 Fit      -0.015358
 1620 Fit      -0.015452
 1621 Fit      -0.005301
 1622 Fit      -0.011072
 1623 Fit      -0.004752
 1624 Fit      -0.006618
 1625 Fit      -0.007668
 1626 Fit       0.000277
 1627 Fit      -0.002368
 1628 Fit      -0.001326
 1629 Fit      -0.003004
 1630 Fit      -0.004045
 1631 Fit       0.001656
 1632 Fit       0.000382
 1633 Fit      -0.000399
 1634 Fit      -0.001793
 1635 Fit       0.000718
 1636 Fit       0.005671
 1637 Fit       0.007941
 1638 Fit       0.002760
 1639 Fit       0.004980
 1640 Fit       0.006613
 1641 Fit       0.007481
 1642 Fit       0.007497
 1643 Fit       0.001347
 1644 Fit       0.003588
 1645 Fit       0.005282
 1646 Fit       0.005964
 1647 Fit       0.005397
 1648 Fit       0.003509
 1649 Fit       0.001558
 1650 Fit       0.003679
 1651 Fit       0.004243
 1652 Fit       0.002607
 1653 Fit       0.002223
 1654 Fit      -0.005311
 1655 Fit       0.013376
 1656 Fit       0.010574
 1657 Fit       0.009026
 1658 Fit       0.009091
 1659 Fit      -0.004091
 1660 Fit       0.002420
 1661 Fit       0.005978
 1662 Fit       0.008435
 1663 Fit       0.010865
 1664 Fit       0.001710
 1665 Fit       0.004708
 1666 Fit       0.006741
 1667 Fit       0.008210
 1668 Fit       0.009611
 1669 Fit       0.002208
 1670 Fit       0.004716
 1671 Fit       0.006611
 1672 Fit       0.007972
 1673 Fit       0.009177
 1674 Fit       0.007925
 1675 Fit       0.011148
 1676 Fit       0.012824
 1677 Fit       0.009796
 1678 Fit       0.010415
 1679 Fit       0.010708
 1680 Fit       0.009114
 1681 Fit       0.002403
 1682 Fit       0.008879
 1683 Fit       0.008620
 1684 Fit       0.007577
 1685 Fit       0.004340
 1686 Fit       0.007395
 1687 Fit       0.005563
 1688 Fit      -0.021259
 1689 Fit      -0.017743
 1690 Fit      -0.012374
 1691 Fit      -0.034560
 1692 Fit      -0.029503
 1693 Fit      -0.026254
 1694 Fit      -0.022313
 1695 Fit      -0.016657
 1696 Fit      -0.028686
 1697 Fit      -0.026761
 1698 Fit       0.004108
 1699 Fit       0.006313
 1700 Fit       0.002132
 1701 Fit      -0.001854
 1702 Fit      -0.009917
 1703 Fit      -0.004621
 1704 Fit       0.004751
 1705 Fit       0.007323
 1706 Fit       0.009857
 1707 Fit       0.003482
 1708 Fit       0.006433
 1709 Fit       0.008799
 1710 Fit       0.010884
 1711 Fit       0.001528
 1712 Fit       0.005474
 1713 Fit       0.008209
 1714 Fit       0.010128
 1715 Fit       0.012033
 1716 Fit       0.010950
 1717 Fit       0.012779
 1718 Fit       0.000594
 1719 Fit      -0.006099
 1720 Fit      -0.002795
 1721 Fit       0.000418
 1722 Fit      -0.019379
 1723 Fit      -0.010346
 1724 Fit      -0.005561
 1725 Fit      -0.002919
 1726 Fit      -0.000476
 1727 Fit      -0.019839
 1728 Fit      -0.012323
 1729 Fit      -0.009093
 1730 Fit      -0.006981
 1731 Fit      -0.020756
 1732 Fit      -0.018001
 1733 Fit       0.013017
 1734 Fit       0.011747
 1735 Fit       0.011038
 1736 Fit       0.003646
 1737 Fit      -0.002082
 1738 Fit      -0.001204
 1739 Fit       0.004752
 1740 Fit       0.007226
 1741 Fit       0.006858
 1742 Fit       0.004046
 1743 Fit       0.010243
 1744 Fit       0.009941
 1745 Fit       0.009168
 1746 Fit       0.008302
 1747 Fit       0.011840
 1748 Fit       0.010586
 1749 Fit       0.009946
 1750 Fit       0.013292
 1751 Fit       0.011880
 1752 Fit       0.011388
 1753 Fit       0.013045
 1754 Fit       0.012048
 1755 Fit       0.011667
 1756 Fit       0.012428
 1757 Fit       0.011622
 1758 Fit       0.009185
 1759 Fit      -0.026595
 1760 Fit      -0.026858
 1761 Fit      -0.032081
 1762 Fit      -0.024420
 1763 Fit      -0.019559
 1764 Fit      -0.010179
 1765 Fit      -0.016374
 1766 Fit       0.011115
 1767 Fit       0.010982
 1768 Fit       0.011561
 1769 Fit      -0.005969
 1770 Fit       0.011640
 1771 Fit       0.011303
 1772 Fit       0.011575
 1773 Fit       0.011324
 1774 Fit       0.012109
 1775 Fit       0.014152
 1776 Fit       0.010877
 1777 Fit       0.011042
 1778 Fit       0.011889
 1779 Fit       0.013465
 1780 Fit       0.009699
 1781 Fit       0.004361
 1782 Fit       0.000964
 1783 Fit       0.007009
 1784 Fit       0.009463
 1785 Fit       0.010237
 1786 Fit       0.007118
 1787 Fit      -0.004245
 1788 Fit      -0.007789
 1789 Fit       0.002315
 1790 Fit       0.003498
 1791 Fit      -0.000022
 1792 Fit       0.007723
 1793 Fit       0.006749
 1794 Fit       0.004836
 1795 Fit      -0.001189
 1796 Fit       0.009753
 1797 Fit       0.009120
 1798 Fit       0.008784
 1799 Fit       0.007880
 1800 Fit       0.011252
 1801 Fit       0.010667
 1802 Fit      -0.013568
 1803 Fit       0.009455
 1804 Fit       0.005683
 1805 Fit       0.001101
 1806 Fit      -0.006273
 1807 Fit      -0.016444
 1808 Fit       0.006793
 1809 Fit       0.002664
 1810 Fit      -0.002492
 1811 Fit      -0.000749
 1812 Fit       0.007150
 1813 Fit       0.008837
 1814 Fit       0.004211
 1815 Fit       0.008252
 1816 Fit       0.008046
 1817 Fit       0.012060
 1818 Fit       0.010947
 1819 Fit       0.011362
 1820 Fit       0.013436
 1821 Fit       0.012241
 1822 Fit       0.012432
 1823 Fit       0.013370
 1824 Fit       0.012435
 1825 Fit       0.012896
 1826 Fit       0.011807
 1827 Fit       0.012085
 1828 Fit      -0.009442
 1829 Fit      -0.016307
 1830 Fit      -0.013107
 1831 Fit      -0.005878
 1832 Fit      -0.020744
 1833 Fit      -0.018516
 1834 Fit      -0.009986
 1835 Fit      -0.007688
 1836 Fit      -0.020118
 1837 Fit      -0.002995
 1838 Fit      -0.010622
 1839 Fit      -0.013117
 1840 Fit       0.001691
 1841 Fit      -0.002775
 1842 Fit      -0.001247
 1843 Fit       0.002618
 1844 Fit      -0.002313
 1845 Fit      -0.008524
 1846 Fit      -0.000578
 1847 Fit      -0.005467
 1848 Fit      -0.013647
 1849 Fit      -0.004633
 1850 Fit      -0.004578
 1851 Fit      -0.005324
 1852 Fit      -0.005153
 1853 Fit      -0.010031
 1854 Fit      -0.021286
 1855 Fit      -0.004023
 1856 Fit      -0.003436
 1857 Fit      -0.006991
 1858 Fit       0.003652
 1859 Fit       0.000268
 1860 Fit      -0.000494
 1861 Fit       0.009915
 1862 Fit       0.006719
 1863 Fit       0.010306
 1864 Fit       0.006335
 1865 Fit       0.014004
 1866 Fit       0.010142
 1867 Fit       0.005798
 1868 Fit       0.006941
 1869 Fit       0.010648
 1870 Fit       0.010516
 1871 Fit       0.010676
 1872 Fit       0.004988
 1873 Fit       0.008846
 1874 Fit       0.015178
 1875 Fit       0.003414
 1876 Fit       0.009271
 1877 Fit       0.012843
 1878 Fit       0.001971
 1879 Fit       0.007874
 1880 Fit       0.009944
 1881 Fit       0.010117
 1882 Fit       0.008747
 1883 Fit       0.009001
 1884 Fit       0.006776
 1885 Fit       0.004991
 1886 Fit      -0.004804
 1887 Fit      -0.004757
 1888 Fit       0.004616
 1889 Fit       0.000175
 1890 Fit      -0.002453
 1891 Fit      -0.002439
 1892 Fit       0.000538
 1893 Fit      -0.004809
 1894 Fit      -0.003936
 1895 Fit      -0.004110
 1896 Fit      -0.005111
 1897 Fit      -0.007329
 1898 Fit      -0.009552
 1899 Fit      -0.009342
 1900 Fit       0.000685
 1901 Fit      -0.004390
 1902 Fit      -0.006683
 1903 Fit      -0.006316
 1904 Fit      -0.008113
 1905 Fit      -0.008029
 1906 Fit      -0.008781
 1907 Fit      -0.010338
 1908 Fit      -0.011555
 1909 Fit      -0.010255
 1910 Fit      -0.001013
 1911 Fit      -0.006051
 1912 Fit      -0.008023
 1913 Fit      -0.008109
 1914 Fit      -0.009167
 1915 Fit      -0.010234
 1916 Fit      -0.010346
 1917 Fit      -0.007179
 1918 Fit      -0.001445
 1919 Fit      -0.006093
 1920 Fit      -0.005793
 1921 Fit      -0.007361
 1922 Fit      -0.004460
 1923 Fit       0.003018
 1924 Fit       0.005340
 1925 Fit      -0.000798
 1926 Fit      -0.001944
 1927 Fit       0.002067
 1928 Fit      -0.003242
 1929 Fit       0.000545
 1930 Fit       0.002599
 1931 Fit       0.001575
 1932 Fit       0.003919
 1933 Fit       0.002509
 1934 Fit       0.003174
 1935 Fit       0.007060
 1936 Fit       0.011519
 1937 Fit       0.016398
 1938 Fit       0.016148
 1939 Fit       0.019297
 1940 Fit       0.002599
 1941 Fit       0.003675
 1942 Fit       0.001404
 1943 Fit       0.001468
 1944 Fit       0.001056
 1945 Fit       0.001670
 1946 Fit       0.002040
 1947 Fit       0.001897
 1948 Fit       0.001941
 1949 Fit       0.001742
 1950 Fit       0.000973
 1951 Fit      -0.001777
 1952 Fit      -0.001687
 1953 Fit       0.006253
 1954 Fit       0.006546
 1955 Fit       0.004292
 1956 Fit       0.006722
 1957 Fit      -0.002414
 1958 Fit      -0.004908
 1959 Fit      -0.002676
 1960 Fit      -0.001671
 1961 Fit      -0.006578
 1962 Fit      -0.008829
 1963 Fit      -0.009773
 1964 Fit      -0.009675
 1965 Fit      -0.007483
 1966 Fit      -0.002348
 1967 Fit      -0.008155
 1968 Fit      -0.011036
 1969 Fit      -0.011853
 1970 Fit      -0.012190
 1971 Fit      -0.012576
 1972 Fit      -0.012379
 1973 Fit      -0.010453
 1974 Fit      -0.006079
 1975 Fit       0.000235
 1976 Fit      -0.009455
 1977 Fit      -0.012568
 1978 Fit      -0.012992
 1979 Fit      -0.012441
 1980 Fit      -0.012081
 1981 Fit      -0.012203
 1982 Fit      -0.012190
 1983 Fit      -0.011033
 1984 Fit      -0.008091
 1985 Fit      -0.003041
 1986 Fit       0.004246
 1987 Fit      -0.009810
 1988 Fit      -0.012301
 1989 Fit      -0.012293
 1990 Fit      -0.011071
 1991 Fit      -0.009806
 1992 Fit      -0.009123
 1993 Fit      -0.008817
 1994 Fit      -0.007920
 1995 Fit      -0.005367
 1996 Fit      -0.004265
 1997 Fit      -0.008430
 1998 Fit      -0.009282
 1999 Fit      -0.007901
 2000 Fit      -0.005885
 2001 Fit      -0.004420
 2002 Fit      -0.003457
 2003 Fit      -0.001181
 2004 Fit      -0.000957
 2005 Fit      -0.003439
 2006 Fit      -0.002246
 2007 Fit       0.000989
 2008 Fit       0.003982
 2009 Fit       0.002262
 2010 Fit       0.005954
 2011 Fit       0.010273
 2012 Fit       0.012049
 2013 Fit       0.018557
 2014 Fit       0.000197
 2015 Fit       0.001616
 2016 Fit       0.001740
 2017 Fit       0.001587
 2018 Fit      -0.000996
 2019 Fit       0.002278
 2020 Fit      -0.000045
 2021 Fit       0.001631
 2022 Fit       0.000652
 2023 Fit      -0.002371
 2024 Fit       0.001623
 2025 Fit       0.001157
 2026 Fit       0.001878
 2027 Fit       0.005916
 2028 Fit       0.005225
 2029 Fit       0.001076
 2030 Fit       0.002893
 2031 Fit      -0.000035
 2032 Fit       0.000761
 2033 Fit      -0.000572
 2034 Fit      -0.000791
 2035 Fit       0.000188
 2036 Fit      -0.002470
 2037 Fit      -0.000563
 2038 Fit      -0.000705
 2039 Fit      -0.005635
 2040 Fit      -0.002820
 2041 Fit      -0.013086
 2042 Fit      -0.013099
 2043 Fit      -0.011169
 2044 Fit      -0.010269
 2045 Fit      -0.012412
 2046 Fit      -0.013072
 2047 Fit      -0.012851
 2048 Fit      -0.013345
 2049 Fit      -0.011730
 2050 Fit      -0.008231
 2051 Fit      -0.005310
 2052 Fit      -0.004266
 2053 Fit      -0.005884
 2054 Fit      -0.009825
 2055 Fit      -0.011526
 2056 Fit      -0.010488
 2057 Fit      -0.009281
 2058 Fit      -0.010085
 2059 Fit      -0.012248
 2060 Fit      -0.013969
 2061 Fit      -0.012691
 2062 Fit      -0.008534
 2063 Fit      -0.003279
 2064 Fit       0.000649
 2065 Fit      -0.007573
 2066 Fit      -0.006862
 2067 Fit      -0.004401
 2068 Fit      -0.002960
 2069 Fit      -0.004550
 2070 Fit      -0.008246
 2071 Fit      -0.012064
 2072 Fit      -0.014343
 2073 Fit      -0.013585
 2074 Fit      -0.009504
 2075 Fit      -0.003045
 2076 Fit      -0.001228
 2077 Fit      -0.000165
 2078 Fit      -0.001376
 2079 Fit      -0.006923
 2080 Fit      -0.011752
 2081 Fit      -0.013363
 2082 Fit      -0.013288
 2083 Fit      -0.009829
 2084 Fit      -0.003645
 2085 Fit       0.001280
 2086 Fit      -0.004690
 2087 Fit      -0.010092
 2088 Fit      -0.010008
 2089 Fit      -0.010614
 2090 Fit      -0.006940
 2091 Fit      -0.005600
 2092 Fit      -0.001296
 2093 Fit       0.005288
 2094 Fit       0.008758
 2095 Fit       0.010204
 2096 Fit       0.010286
 2097 Fit       0.001225
 2098 Fit       0.001407
 2099 Fit       0.002284
 2100 Fit       0.005052
 2101 Fit       0.006059
 2102 Fit       0.005508
 2103 Fit       0.003064
 2104 Fit       0.007766
 2105 Fit       0.008161
 2106 Fit       0.007901
 2107 Fit       0.006743
 2108 Fit       0.004503
 2109 Fit       0.009516
 2110 Fit       0.009424
 2111 Fit       0.008967
 2112 Fit       0.007828
 2113 Fit       0.007395
 2114 Fit       0.011596
 2115 Fit       0.009633
 2116 Fit       0.019893
 2117 Fit       0.014047
 2118 Fit       0.011453
 2119 Fit       0.014689
 2120 Fit       0.012136
 2121 Fit       0.010436
 2122 Fit       0.008185
 2123 Fit       0.005576
 2124 Fit      -0.000687
 2125 Fit       0.004994
 2126 Fit       0.001500
 2127 Fit       0.008207
 2128 Fit       0.003726
 2129 Fit       0.002281
 2130 Fit       0.002692
 2131 Fit       0.001292
 2132 Fit       0.003016
 2133 Fit       0.002731
 2134 Fit       0.002637
 2135 Fit       0.002963
 2136 Fit       0.010517
 2137 Fit       0.009228
 2138 Fit       0.007503
 2139 Fit       0.009981
 2140 Fit       0.009332
 2141 Fit       0.008372
 2142 Fit       0.006918
 2143 Fit       0.005142
 2144 Fit       0.007056
 2145 Fit       0.007861
 2146 Fit       0.007311
 2147 Fit       0.005897
 2148 Fit       0.004185
 2149 Fit       0.003558
 2150 Fit       0.004376
 2151 Fit       0.005966
 2152 Fit       0.005107
 2153 Fit       0.004028
 2154 Fit       0.004657
 2155 Fit       0.003714
 2156 Fit       0.006612
 2157 Fit       0.010296
 2158 Fit       0.003219
 2159 Fit       0.004573
 2160 Fit       0.004192
 2161 Fit       0.001624
 2162 Fit       0.003073
 2163 Fit      -0.004280
 2164 Fit       0.004074
 2165 Fit       0.000441
 2166 Fit      -0.000304
 2167 Fit      -0.003833
 2168 Fit       0.003502
 2169 Fit       0.001968
 2170 Fit       0.001577
 2171 Fit      -0.000212
 2172 Fit      -0.001701
 2173 Fit       0.003582
 2174 Fit       0.002822
 2175 Fit       0.002165
 2176 Fit       0.001278
 2177 Fit       0.002925
 Job cpu time:       0 days  0 hours  4 minutes 40.2 seconds.
 Normal termination of Gaussian 16 at Sat Jul  8 20:58:13 2023.
