 Copyright (c) 1988-2019, Gaussian, Inc.  All Rights Reserved.
  
 This is part of the Gaussian(R) 16 program.  It is based on
 the Gaussian(R) 09 system (copyright 2009, Gaussian, Inc.),
 the Gaussian(R) 03 system (copyright 2003, Gaussian, Inc.),
 the Gaussian(R) 98 system (copyright 1998, Gaussian, Inc.),
 the Gaussian(R) 94 system (copyright 1995, Gaussian, Inc.),
 the Gaussian 92(TM) system (copyright 1992, Gaussian, Inc.),
 the Gaussian 90(TM) system (copyright 1990, Gaussian, Inc.),
 the Gaussian 88(TM) system (copyright 1988, Gaussian, Inc.),
 the Gaussian 86(TM) system (copyright 1986, Carnegie Mellon
 University), and the Gaussian 82(TM) system (copyright 1983,
 Carnegie Mellon University). Gaussian is a federally registered
 trademark of Gaussian, Inc.
 Cite this work as:
 Gaussian 16, Revision C.01,
 M. J. Frisch, G. W. Trucks, H. B. Schlegel, G. E. Scuseria, 
 M. A. Robb, J. R. Cheeseman, G. Scalmani, V. Barone, 
 G. A. Petersson, H. Nakatsuji, X. Li, M. Caricato, A. V. Marenich, 
 J. Bloino, B. G. Janesko, R. Gomperts, B. Mennucci, H. P. Hratchian, 
 J. V. Ortiz, A. F. Izmaylov, J. L. Sonnenberg, D. Williams-Young, 
 F. Ding, F. Lipparini, F. Egidi, J. Goings, B. Peng, A. Petrone, 
 T. Henderson, D. Ranasinghe, V. G. Zakrzewski, J. Gao, N. Rega, 
 G. Zheng, W. Liang, M. Hada, M. Ehara, K. Toyota, R. Fukuda, 
 J. Hasegawa, M. Ishida, T. Nakajima, Y. Honda, O. Kitao, H. Nakai, 
 T. Vreven, K. Throssell, J. A. Montgomery, Jr., J. E. Peralta, 
 F. Ogliaro, M. J. Bearpark, J. J. Heyd, E. N. Brothers, K. N. Kudin, 
 V. N. Staroverov, T. A. Keith, R. Kobayashi, J. Normand, 
 K. Raghavachari, A. P. Rendell, J. C. Burant, S. S. Iyengar, 
 J. Tomasi, M. Cossi, J. M. Millam, M. Klene, C. Adamo, R. Cammi, 
 J. W. Ochterski, R. L. Martin, K. Morokuma, O. Farkas, 
 J. B. Foresman, and D. J. Fox, Gaussian, Inc., Wallingford CT, 2019.
 
 ******************************************
 Gaussian 16:  EM64L-G16RevC.01  3-Jul-2019
                 8-Jul-2023 
 ******************************************
 ----------------------------------------------------------------------
 #P HF/6-31G(d) SCF(Conver=8,XQC,MaxConventionalCycles=64,MaxCycle=128)
  NoSymm Test Pop=mk IOp(6/33=2) GFInput GFPrint
 ----------------------------------------------------------------------
 1/38=1,172=1/1;
 2/12=2,15=1,17=6,18=5,40=1/2;
 3/5=1,6=6,7=1,11=9,24=110,25=1,30=1/1,2,3;
 4//1;
 5/5=2,6=8,7=128,8=3,13=1,38=5,85=64/2,8;
 6/7=2,8=2,9=2,10=2,15=8,20=1,28=1,33=2/1,2;
 99/5=1,9=1/99;
 -------------------------------------------------
 MEP step - Input generated by PyRED DVE-DMDS-OPLS
 -------------------------------------------------
 Symbolic Z-matrix:
 Charge =  0 Multiplicity = 1
 C                    -6.9231    6.49473   2.45981 
 H                    -6.18153   7.09244   1.94188 
 H                    -7.82213   6.46925   1.85466 
 H                    -7.15519   6.97469   3.40548 
 C                    -6.40394   5.08941   2.69077 
 H                    -5.50664   5.1164    3.30598 
 H                    -7.14352   4.49348   3.2227 
 O                    -6.13536   4.50959   1.44437 
 C                    -5.62534   3.20872   1.4694 
 H                    -5.9686    2.70572   0.57451 
 H                    -5.99751   2.65282   2.32562 
 C                    -4.10546   3.21391   1.48384 
 H                    -3.74178   3.74334   0.60735 
 H                    -3.72978   3.73411   2.36248 
 O                    -3.68554   1.87975   1.49534 
 C                    -2.30326   1.66559   1.4642 
 H                    -2.11415   0.74391   2.00053 
 H                    -1.76967   2.46118   1.97721 
 C                    -1.79745   1.5523    0.0305 
 H                    -1.98442   2.47389  -0.50608 
 H                    -2.33152   0.75747  -0.48306 
 O                    -0.41352   1.33625   0. 
 C                     0.        0.        0. 
 H                    -0.38637  -0.50967  -0.87963 
 H                    -0.36748  -0.53077   0.87345 
 C                     1.52005   0.        0. 
 H                     1.87922   0.47422   0.90415 
 H                     1.88837   0.583    -0.8338 
 S                     2.24149  -1.66753  -0.02162 
 C                     2.18394  -2.09892  -1.79059 
 H                     2.25461  -3.17856  -1.81777 
 H                     1.22095  -1.83351  -2.20548 
 C                     3.31041  -1.46626  -2.60509 
 H                     4.27355  -1.73348  -2.19177 
 H                     3.24235  -0.38657  -2.57168 
 S                     3.24979  -1.88142  -4.37703 
 C                     3.91088  -3.57812  -4.41878 
 H                     3.59832  -3.96942  -5.37828 
 H                     3.43265  -4.18394  -3.66094 
 C                     5.43036  -3.64768  -4.28071 
 H                     5.90808  -3.04145  -5.0382 
 H                     5.74238  -3.25637  -3.32086 
 S                     6.09065  -5.34267  -4.32384 
 C                     5.99731  -5.77498  -6.09015 
 H                     6.16105  -6.84585  -6.11113 
 H                     4.99026  -5.60804  -6.45258 
 C                     7.01971  -5.07266  -6.97865 
 H                     8.02912  -5.27327  -6.63937 
 H                     6.92563  -5.42547  -8.00183 
 H                     6.87582  -3.99799  -6.9884 
 
 ITRead=  0  0  0  0  0  0  0  0  0  0  0  0  0  0  0  0  0  0  0  0
 ITRead=  0  0  0  0  0  0  0  0  0  0  0  0  0  0  0  0  0  0  0  0
 ITRead=  0  0  0  0  0  0  0  0  0  0
 MicOpt= -1 -1 -1 -1 -1 -1 -1 -1 -1 -1 -1 -1 -1 -1 -1 -1 -1 -1 -1 -1
 MicOpt= -1 -1 -1 -1 -1 -1 -1 -1 -1 -1 -1 -1 -1 -1 -1 -1 -1 -1 -1 -1
 MicOpt= -1 -1 -1 -1 -1 -1 -1 -1 -1 -1
 NAtoms=     50 NQM=       50 NQMF=       0 NMMI=      0 NMMIF=      0
                NMic=       0 NMicF=      0.
                          Input orientation:                          
 ---------------------------------------------------------------------
 Center     Atomic      Atomic             Coordinates (Angstroms)
 Number     Number       Type             X           Y           Z
 ---------------------------------------------------------------------
      1          6           0       -6.923104    6.494734    2.459807
      2          1           0       -6.181530    7.092444    1.941879
      3          1           0       -7.822133    6.469253    1.854664
      4          1           0       -7.155195    6.974690    3.405479
      5          6           0       -6.403942    5.089407    2.690768
      6          1           0       -5.506636    5.116398    3.305983
      7          1           0       -7.143519    4.493481    3.222701
      8          8           0       -6.135358    4.509585    1.444371
      9          6           0       -5.625339    3.208722    1.469398
     10          1           0       -5.968601    2.705717    0.574511
     11          1           0       -5.997509    2.652818    2.325623
     12          6           0       -4.105457    3.213910    1.483839
     13          1           0       -3.741777    3.743335    0.607353
     14          1           0       -3.729782    3.734110    2.362484
     15          8           0       -3.685541    1.879750    1.495337
     16          6           0       -2.303258    1.665587    1.464198
     17          1           0       -2.114149    0.743910    2.000528
     18          1           0       -1.769670    2.461182    1.977211
     19          6           0       -1.797449    1.552295    0.030500
     20          1           0       -1.984416    2.473892   -0.506081
     21          1           0       -2.331523    0.757469   -0.483055
     22          8           0       -0.413519    1.336245    0.000000
     23          6           0        0.000000    0.000000    0.000000
     24          1           0       -0.386371   -0.509671   -0.879627
     25          1           0       -0.367475   -0.530765    0.873453
     26          6           0        1.520047    0.000000    0.000000
     27          1           0        1.879216    0.474220    0.904154
     28          1           0        1.888372    0.583002   -0.833802
     29         16           0        2.241486   -1.667525   -0.021619
     30          6           0        2.183943   -2.098919   -1.790586
     31          1           0        2.254609   -3.178558   -1.817774
     32          1           0        1.220951   -1.833514   -2.205478
     33          6           0        3.310405   -1.466255   -2.605090
     34          1           0        4.273548   -1.733475   -2.191767
     35          1           0        3.242353   -0.386573   -2.571684
     36         16           0        3.249791   -1.881415   -4.377033
     37          6           0        3.910880   -3.578118   -4.418776
     38          1           0        3.598325   -3.969421   -5.378282
     39          1           0        3.432646   -4.183938   -3.660937
     40          6           0        5.430361   -3.647679   -4.280711
     41          1           0        5.908076   -3.041453   -5.038196
     42          1           0        5.742381   -3.256372   -3.320864
     43         16           0        6.090648   -5.342669   -4.323840
     44          6           0        5.997312   -5.774984   -6.090152
     45          1           0        6.161050   -6.845847   -6.111129
     46          1           0        4.990255   -5.608039   -6.452576
     47          6           0        7.019713   -5.072657   -6.978654
     48          1           0        8.029119   -5.273274   -6.639371
     49          1           0        6.925628   -5.425470   -8.001825
     50          1           0        6.875822   -3.997987   -6.988399
 ---------------------------------------------------------------------
 Stoichiometry    C14H30O3S3
 Framework group  C1[X(C14H30O3S3)]
 Standard basis: 6-31G(d) (6D, 7F)
   372 basis functions,   752 primitive gaussians,   372 cartesian basis functions
    93 alpha electrons       93 beta electrons
 Requested convergence on RMS density matrix=1.00D-08 within  64 cycles.
 Requested convergence on MAX density matrix=1.00D-06.
 Requested convergence on             energy=1.00D-06.
 SCF Done:  E(RHF) =  -1964.69384163     A.U. after   13 cycles
            NFock= 13  Conv=0.50D-08     -V/T= 2.0006
 Mulliken charges:
     1  C   -0.488586
     2  H    0.172601
     3  H    0.175983
     4  H    0.157001
     5  C    0.017424
     6  H    0.136113
     7  H    0.143316
     8  O   -0.632179
     9  C    0.002809
    10  H    0.180199
    11  H    0.154961
    12  C    0.004946
    13  H    0.152385
    14  H    0.144726
    15  O   -0.645233
    16  C   -0.002216
    17  H    0.171967
    18  H    0.155930
    19  C   -0.006398
    20  H    0.174696
    21  H    0.157061
    22  O   -0.639654
    23  C    0.029921
    24  H    0.149145
    25  H    0.157606
    26  C   -0.494612
    27  H    0.213156
    28  H    0.204583
    29  S    0.113121
    30  C   -0.475967
    31  H    0.205411
    32  H    0.210089
    33  C   -0.475859
    34  H    0.209485
    35  H    0.206400
    36  S    0.116487
    37  C   -0.475857
    38  H    0.203510
    39  H    0.208368
    40  C   -0.476168
    41  H    0.210630
    42  H    0.203445
    43  S    0.114430
    44  C   -0.476247
    45  H    0.201599
    46  H    0.188918
    47  C   -0.475608
    48  H    0.181671
    49  H    0.168376
    50  H    0.166116
 Sum of Mulliken charges =  -0.00000
 Dipole moment (field-independent basis, Debye):
    X=             -0.3964    Y=              0.3640    Z=             -0.3104  Tot=              0.6213
 Quadrupole moment (field-independent basis, Debye-Ang):
   XX=           -157.3185   YY=           -148.8538   ZZ=           -134.0605
   XY=              1.3757   XZ=            -14.8776   YZ=             19.3874
 Traceless Quadrupole moment (field-independent basis, Debye-Ang):
   XX=            -10.5743   YY=             -2.1095   ZZ=             12.6838
   XY=              1.3757   XZ=            -14.8776   YZ=             19.3874
 Octapole moment (field-independent basis, Debye-Ang**2):
  XXX=           -374.0507  YYY=            252.0544  ZZZ=            566.9897  XYY=           -134.7016
  XXY=            104.9611  XXZ=            211.8314  XZZ=            -64.1747  YZZ=              5.5858
  YYZ=            184.0240  XYZ=             17.4304
 Hexadecapole moment (field-independent basis, Debye-Ang**3):
 XXXX=         -18677.7076 YYYY=         -11460.9671 ZZZZ=          -9016.2533 XXXY=           7258.9293
 XXXZ=           5333.2569 YYYX=           6972.0675 YYYZ=          -3992.5123 ZZZX=           5032.7653
 ZZZY=          -3662.1761 XXYY=          -5090.5508 XXZZ=          -3976.3446 YYZZ=          -2801.3386
 XXYZ=           -987.2480 YYXZ=           1389.7427 ZZXY=           1572.8828
 Merz-Kollman atomic radii used.
 Atom Element Radius
    1     6    1.50
    2     1    1.20
    3     1    1.20
    4     1    1.20
    5     6    1.50
    6     1    1.20
    7     1    1.20
    8     8    1.40
    9     6    1.50
   10     1    1.20
   11     1    1.20
   12     6    1.50
   13     1    1.20
   14     1    1.20
   15     8    1.40
   16     6    1.50
   17     1    1.20
   18     1    1.20
   19     6    1.50
   20     1    1.20
   21     1    1.20
   22     8    1.40
   23     6    1.50
   24     1    1.20
   25     1    1.20
   26     6    1.50
   27     1    1.20
   28     1    1.20
   29    16    1.75
   30     6    1.50
   31     1    1.20
   32     1    1.20
   33     6    1.50
   34     1    1.20
   35     1    1.20
   36    16    1.75
   37     6    1.50
   38     1    1.20
   39     1    1.20
   40     6    1.50
   41     1    1.20
   42     1    1.20
   43    16    1.75
   44     6    1.50
   45     1    1.20
   46     1    1.20
   47     6    1.50
   48     1    1.20
   49     1    1.20
   50     1    1.20
 Generate VDW surfaces: Layer= 4 Dens= 1 Start= 1.400 Inc= 0.200
            Electrostatic Properties Using The SCF Density.


       Atomic Center    1 is at  -6.923104  6.494734  2.459807
       Atomic Center    2 is at  -6.181530  7.092444  1.941879
       Atomic Center    3 is at  -7.822133  6.469253  1.854664
       Atomic Center    4 is at  -7.155195  6.974690  3.405479
       Atomic Center    5 is at  -6.403942  5.089407  2.690768
       Atomic Center    6 is at  -5.506636  5.116398  3.305983
       Atomic Center    7 is at  -7.143519  4.493481  3.222701
       Atomic Center    8 is at  -6.135358  4.509585  1.444371
       Atomic Center    9 is at  -5.625339  3.208722  1.469398
       Atomic Center   10 is at  -5.968601  2.705717  0.574511
       Atomic Center   11 is at  -5.997509  2.652818  2.325623
       Atomic Center   12 is at  -4.105457  3.213910  1.483839
       Atomic Center   13 is at  -3.741777  3.743335  0.607353
       Atomic Center   14 is at  -3.729782  3.734110  2.362484
       Atomic Center   15 is at  -3.685541  1.879750  1.495337
       Atomic Center   16 is at  -2.303258  1.665587  1.464198
       Atomic Center   17 is at  -2.114149  0.743910  2.000528
       Atomic Center   18 is at  -1.769670  2.461182  1.977211
       Atomic Center   19 is at  -1.797449  1.552295  0.030500
       Atomic Center   20 is at  -1.984416  2.473892 -0.506081
       Atomic Center   21 is at  -2.331523  0.757469 -0.483055
       Atomic Center   22 is at  -0.413519  1.336245  0.000000
       Atomic Center   23 is at   0.000000  0.000000  0.000000
       Atomic Center   24 is at  -0.386371 -0.509671 -0.879627
       Atomic Center   25 is at  -0.367475 -0.530765  0.873453
       Atomic Center   26 is at   1.520047  0.000000  0.000000
       Atomic Center   27 is at   1.879216  0.474220  0.904154
       Atomic Center   28 is at   1.888372  0.583002 -0.833802
       Atomic Center   29 is at   2.241486 -1.667525 -0.021619
       Atomic Center   30 is at   2.183943 -2.098919 -1.790586
       Atomic Center   31 is at   2.254609 -3.178558 -1.817774
       Atomic Center   32 is at   1.220951 -1.833514 -2.205478
       Atomic Center   33 is at   3.310405 -1.466255 -2.605090
       Atomic Center   34 is at   4.273548 -1.733475 -2.191767
       Atomic Center   35 is at   3.242353 -0.386573 -2.571684
       Atomic Center   36 is at   3.249791 -1.881415 -4.377033
       Atomic Center   37 is at   3.910880 -3.578118 -4.418776
       Atomic Center   38 is at   3.598325 -3.969421 -5.378282
       Atomic Center   39 is at   3.432646 -4.183938 -3.660937
       Atomic Center   40 is at   5.430361 -3.647679 -4.280711
       Atomic Center   41 is at   5.908076 -3.041453 -5.038196
       Atomic Center   42 is at   5.742381 -3.256372 -3.320864
       Atomic Center   43 is at   6.090648 -5.342669 -4.323840
       Atomic Center   44 is at   5.997312 -5.774984 -6.090152
       Atomic Center   45 is at   6.161050 -6.845847 -6.111129
       Atomic Center   46 is at   4.990255 -5.608039 -6.452576
       Atomic Center   47 is at   7.019713 -5.072657 -6.978654
       Atomic Center   48 is at   8.029119 -5.273274 -6.639371
       Atomic Center   49 is at   6.925628 -5.425470 -8.001825
       Atomic Center   50 is at   6.875822 -3.997987 -6.988399
      ESP Fit Center   51 is at  -5.393155  7.477972  3.509807
      ESP Fit Center   52 is at  -8.668089  5.982360  3.509807
      ESP Fit Center   53 is at  -7.667774  8.458268  2.459807
      ESP Fit Center   54 is at  -8.494977  7.887292  2.459807
      ESP Fit Center   55 is at  -6.923104  6.494734  0.359807
      ESP Fit Center   56 is at  -4.583755  7.092444  2.461028
      ESP Fit Center   57 is at  -4.957563  8.119474  2.461028
      ESP Fit Center   58 is at  -5.904079  8.665945  2.461028
      ESP Fit Center   59 is at  -4.583755  7.092444  1.422730
      ESP Fit Center   60 is at  -4.957563  8.119474  1.422730
      ESP Fit Center   61 is at  -5.904079  8.665945  1.422730
      ESP Fit Center   62 is at  -6.980417  8.476158  1.422730
      ESP Fit Center   63 is at  -5.194051  7.092444  0.582730
      ESP Fit Center   64 is at  -5.876382  8.031593  0.582730
      ESP Fit Center   65 is at  -6.980417  7.672870  0.582730
      ESP Fit Center   66 is at  -6.181530  7.092444  0.261879
      ESP Fit Center   67 is at  -8.621020  7.852967  2.373813
      ESP Fit Center   68 is at  -9.323550  7.015724  2.373813
      ESP Fit Center   69 is at  -9.323550  5.922782  2.373813
      ESP Fit Center   70 is at  -8.621020  5.085539  2.373813
      ESP Fit Center   71 is at  -8.621020  7.852967  1.335515
      ESP Fit Center   72 is at  -9.323550  7.015724  1.335515
      ESP Fit Center   73 is at  -9.323550  5.922782  1.335515
      ESP Fit Center   74 is at  -8.621020  5.085539  1.335515
      ESP Fit Center   75 is at  -7.516985  7.408402  0.495515
      ESP Fit Center   76 is at  -8.621020  7.049679  0.495515
      ESP Fit Center   77 is at  -8.621020  5.888827  0.495515
      ESP Fit Center   78 is at  -7.516985  5.530104  0.495515
      ESP Fit Center   79 is at  -7.822133  6.469253  0.174664
      ESP Fit Center   80 is at  -7.155195  6.974690  5.085479
      ESP Fit Center   81 is at  -6.167716  6.974690  4.764628
      ESP Fit Center   82 is at  -6.850047  7.913839  4.764628
      ESP Fit Center   83 is at  -7.954082  7.555116  4.764628
      ESP Fit Center   84 is at  -7.954082  6.394264  4.764628
      ESP Fit Center   85 is at  -6.850047  6.035541  4.764628
      ESP Fit Center   86 is at  -5.931228  8.001720  3.924628
      ESP Fit Center   87 is at  -6.877744  8.548191  3.924628
      ESP Fit Center   88 is at  -7.954082  8.358404  3.924628
      ESP Fit Center   89 is at  -8.656612  7.521161  3.924628
      ESP Fit Center   90 is at  -8.656612  6.428219  3.924628
      ESP Fit Center   91 is at  -7.954082  8.358404  2.886330
      ESP Fit Center   92 is at  -6.403942  5.089407  4.790768
      ESP Fit Center   93 is at  -4.873993  6.072645  1.640768
      ESP Fit Center   94 is at  -8.148927  4.577033  1.640768
      ESP Fit Center   95 is at  -5.506636  5.116398  4.985983
      ESP Fit Center   96 is at  -4.519157  5.116398  4.665132
      ESP Fit Center   97 is at  -5.201488  6.055547  4.665132
      ESP Fit Center   98 is at  -5.201488  4.177249  4.665132
      ESP Fit Center   99 is at  -3.908861  5.116398  3.825132
      ESP Fit Center  100 is at  -4.282669  6.143428  3.825132
      ESP Fit Center  101 is at  -5.229185  6.689899  3.825132
      ESP Fit Center  102 is at  -5.229185  3.542897  3.825132
      ESP Fit Center  103 is at  -4.282669  6.143428  2.786834
      ESP Fit Center  104 is at  -7.143519  4.493481  4.902701
      ESP Fit Center  105 is at  -7.942406  5.073907  4.581850
      ESP Fit Center  106 is at  -7.942406  3.913055  4.581850
      ESP Fit Center  107 is at  -6.838371  3.554332  4.581850
      ESP Fit Center  108 is at  -8.644936  5.039952  3.741850
      ESP Fit Center  109 is at  -8.644936  3.947010  3.741850
      ESP Fit Center  110 is at  -7.942406  3.109767  3.741850
      ESP Fit Center  111 is at  -6.866068  2.919980  3.741850
      ESP Fit Center  112 is at  -8.644936  5.039952  2.703552
      ESP Fit Center  113 is at  -8.644936  3.947010  2.703552
      ESP Fit Center  114 is at  -7.942406  3.109767  2.703552
      ESP Fit Center  115 is at  -4.437948  5.489585  1.444371
      ESP Fit Center  116 is at  -8.095358  4.509585  1.444371
      ESP Fit Center  117 is at  -7.832768  3.529585  1.444371
      ESP Fit Center  118 is at  -4.762125  5.507297  0.464371
      ESP Fit Center  119 is at  -5.610830  6.123918  0.464371
      ESP Fit Center  120 is at  -7.508591  5.507297  0.464371
      ESP Fit Center  121 is at  -7.832768  4.509585  0.464371
      ESP Fit Center  122 is at  -7.508591  3.511873  0.464371
      ESP Fit Center  123 is at  -5.155358  4.509585 -0.253039
      ESP Fit Center  124 is at  -5.645358  5.358290 -0.253039
      ESP Fit Center  125 is at  -6.625358  5.358290 -0.253039
      ESP Fit Center  126 is at  -7.115358  4.509585 -0.253039
      ESP Fit Center  127 is at  -6.135358  4.509585 -0.515629
      ESP Fit Center  128 is at  -7.664317  2.706159  1.469398
      ESP Fit Center  129 is at  -7.197212  1.816164  1.469398
      ESP Fit Center  130 is at  -6.370009  1.245188  1.469398
      ESP Fit Center  131 is at  -5.100339  4.118049 -0.349255
      ESP Fit Center  132 is at  -7.470018  2.159246  1.093660
      ESP Fit Center  133 is at  -6.767488  1.322003  1.093660
      ESP Fit Center  134 is at  -5.691150  1.132216  1.093660
      ESP Fit Center  135 is at  -7.470018  3.252188  0.055362
      ESP Fit Center  136 is at  -7.470018  2.159246  0.055362
      ESP Fit Center  137 is at  -6.767488  1.322003  0.055362
      ESP Fit Center  138 is at  -5.691150  1.132216  0.055362
      ESP Fit Center  139 is at  -4.981122  2.705717 -0.784638
      ESP Fit Center  140 is at  -5.663453  3.644866 -0.784638
      ESP Fit Center  141 is at  -6.767488  3.286143 -0.784638
      ESP Fit Center  142 is at  -6.767488  2.125291 -0.784638
      ESP Fit Center  143 is at  -5.663453  1.766568 -0.784638
      ESP Fit Center  144 is at  -5.968601  2.705717 -1.105489
      ESP Fit Center  145 is at  -5.997509  2.652818  4.005623
      ESP Fit Center  146 is at  -5.010030  2.652818  3.684772
      ESP Fit Center  147 is at  -6.796396  2.072392  3.684772
      ESP Fit Center  148 is at  -5.692361  1.713669  3.684772
      ESP Fit Center  149 is at  -7.498926  2.106347  2.844772
      ESP Fit Center  150 is at  -6.796396  1.269104  2.844772
      ESP Fit Center  151 is at  -5.720058  1.079317  2.844772
      ESP Fit Center  152 is at  -7.498926  2.106347  1.806474
      ESP Fit Center  153 is at  -6.796396  1.269104  1.806474
      ESP Fit Center  154 is at  -5.720058  1.079317  1.806474
      ESP Fit Center  155 is at  -4.630457  2.304583  3.302492
      ESP Fit Center  156 is at  -2.245999  4.189829  1.483839
      ESP Fit Center  157 is at  -2.912521  4.942176  1.483839
      ESP Fit Center  158 is at  -3.852330  5.298599  1.483839
      ESP Fit Center  159 is at  -2.517810  4.770365  1.126502
      ESP Fit Center  160 is at  -3.464326  5.316836  1.126502
      ESP Fit Center  161 is at  -2.517810  4.770365  0.088204
      ESP Fit Center  162 is at  -3.464326  5.316836  0.088204
      ESP Fit Center  163 is at  -4.540664  5.127049  0.088204
      ESP Fit Center  164 is at  -3.436629  4.682484 -0.751796
      ESP Fit Center  165 is at  -4.540664  4.323761 -0.751796
      ESP Fit Center  166 is at  -4.540664  3.162909 -0.751796
      ESP Fit Center  167 is at  -3.741777  3.743335 -1.072647
      ESP Fit Center  168 is at  -3.729782  3.734110  4.042484
      ESP Fit Center  169 is at  -2.742303  3.734110  3.721633
      ESP Fit Center  170 is at  -3.424634  4.673259  3.721633
      ESP Fit Center  171 is at  -4.528669  3.153684  3.721633
      ESP Fit Center  172 is at  -3.424634  2.794961  3.721633
      ESP Fit Center  173 is at  -2.505815  4.761140  2.881633
      ESP Fit Center  174 is at  -3.452331  5.307611  2.881633
      ESP Fit Center  175 is at  -2.505815  4.761140  1.843335
      ESP Fit Center  176 is at  -3.452331  5.307611  1.843335
      ESP Fit Center  177 is at  -3.685541  1.879750  3.455337
      ESP Fit Center  178 is at  -4.665541  1.879750  3.192747
      ESP Fit Center  179 is at  -4.175541  1.031045  3.192747
      ESP Fit Center  180 is at  -5.058774  0.882038  2.475337
      ESP Fit Center  181 is at  -4.210069  0.265417  2.475337
      ESP Fit Center  182 is at  -5.382951  0.899750  1.495337
      ESP Fit Center  183 is at  -4.665541  0.182340  1.495337
      ESP Fit Center  184 is at  -3.685541 -0.080250  1.495337
      ESP Fit Center  185 is at  -5.058774  0.882038  0.515337
      ESP Fit Center  186 is at  -4.210069  0.265417  0.515337
      ESP Fit Center  187 is at  -4.665541  1.879750 -0.202073
      ESP Fit Center  188 is at  -4.175541  1.031045 -0.202073
      ESP Fit Center  189 is at  -2.303258  1.665587  3.564198
      ESP Fit Center  190 is at  -2.828258  2.574914  3.282851
      ESP Fit Center  191 is at  -2.114149  0.743910  3.680528
      ESP Fit Center  192 is at  -1.126670  0.743910  3.359677
      ESP Fit Center  193 is at  -2.913036  0.163484  3.359677
      ESP Fit Center  194 is at  -1.809001 -0.195239  3.359677
      ESP Fit Center  195 is at  -0.516374  0.743910  2.519677
      ESP Fit Center  196 is at  -3.615566  0.197439  2.519677
      ESP Fit Center  197 is at  -2.913036 -0.639804  2.519677
      ESP Fit Center  198 is at  -1.836698 -0.829591  2.519677
      ESP Fit Center  199 is at  -0.890182 -0.283120  2.519677
      ESP Fit Center  200 is at  -2.913036 -0.639804  1.481379
      ESP Fit Center  201 is at  -1.769670  2.461182  3.657211
      ESP Fit Center  202 is at  -0.782191  2.461182  3.336360
      ESP Fit Center  203 is at  -1.464522  3.400331  3.336360
      ESP Fit Center  204 is at  -0.171895  2.461182  2.496360
      ESP Fit Center  205 is at  -0.545703  3.488212  2.496360
      ESP Fit Center  206 is at  -1.492219  4.034683  2.496360
      ESP Fit Center  207 is at  -0.545703  3.488212  1.458062
      ESP Fit Center  208 is at  -1.492219  4.034683  1.458062
      ESP Fit Center  209 is at  -3.542434  2.064669 -1.019500
      ESP Fit Center  210 is at  -1.272449  0.642968 -1.788153
      ESP Fit Center  211 is at  -1.797449  1.552295 -2.069500
      ESP Fit Center  212 is at  -0.760449  3.500922  0.013068
      ESP Fit Center  213 is at  -1.706965  4.047393  0.013068
      ESP Fit Center  214 is at  -0.760449  3.500922 -1.025230
      ESP Fit Center  215 is at  -1.706965  4.047393 -1.025230
      ESP Fit Center  216 is at  -2.783303  3.857606 -1.025230
      ESP Fit Center  217 is at  -3.485833  3.020363 -1.025230
      ESP Fit Center  218 is at  -0.996937  2.473892 -1.865230
      ESP Fit Center  219 is at  -1.679268  3.413041 -1.865230
      ESP Fit Center  220 is at  -2.783303  3.054318 -1.865230
      ESP Fit Center  221 is at  -2.783303  1.893466 -1.865230
      ESP Fit Center  222 is at  -1.984416  2.473892 -2.186081
      ESP Fit Center  223 is at  -3.832940  0.210998  0.036094
      ESP Fit Center  224 is at  -3.130410 -0.626245  0.036094
      ESP Fit Center  225 is at  -2.054072 -0.816032  0.036094
      ESP Fit Center  226 is at  -3.832940  1.303940 -1.002204
      ESP Fit Center  227 is at  -3.832940  0.210998 -1.002204
      ESP Fit Center  228 is at  -3.130410 -0.626245 -1.002204
      ESP Fit Center  229 is at  -2.054072 -0.816032 -1.002204
      ESP Fit Center  230 is at  -3.130410  1.337895 -1.842204
      ESP Fit Center  231 is at  -3.130410  0.177043 -1.842204
      ESP Fit Center  232 is at  -2.026375 -0.181680 -1.842204
      ESP Fit Center  233 is at  -2.331523  0.757469 -2.163055
      ESP Fit Center  234 is at   0.566481  1.336245  1.697410
      ESP Fit Center  235 is at   0.076481  2.184950  1.697410
      ESP Fit Center  236 is at   0.959714  2.333957  0.980000
      ESP Fit Center  237 is at   0.111009  2.950578  0.980000
      ESP Fit Center  238 is at   1.283891  2.316245  0.000000
      ESP Fit Center  239 is at   0.566481  3.033655  0.000000
      ESP Fit Center  240 is at  -0.413519  3.296245  0.000000
      ESP Fit Center  241 is at   0.959714  2.333957 -0.980000
      ESP Fit Center  242 is at   0.111009  2.950578 -0.980000
      ESP Fit Center  243 is at   0.566481  1.336245 -1.697410
      ESP Fit Center  244 is at   0.076481  2.184950 -1.697410
      ESP Fit Center  245 is at  -0.413519  1.336245 -1.960000
      ESP Fit Center  246 is at   0.525000  0.909327  1.818653
      ESP Fit Center  247 is at  -1.571873 -1.392558  0.000000
      ESP Fit Center  248 is at  -0.744670 -1.963534  0.000000
      ESP Fit Center  249 is at   0.525000  0.909327 -1.818653
      ESP Fit Center  250 is at  -1.887788 -1.056142 -0.360478
      ESP Fit Center  251 is at  -1.185258 -1.893385 -0.360478
      ESP Fit Center  252 is at  -1.887788 -1.056142 -1.398776
      ESP Fit Center  253 is at  -1.185258 -1.893385 -1.398776
      ESP Fit Center  254 is at  -0.081223  0.429478 -2.238776
      ESP Fit Center  255 is at  -1.185258  0.070755 -2.238776
      ESP Fit Center  256 is at  -1.185258 -1.090097 -2.238776
      ESP Fit Center  257 is at  -0.386371 -0.509671 -2.559627
      ESP Fit Center  258 is at  -0.367475 -0.530765  2.553453
      ESP Fit Center  259 is at   0.620004 -0.530765  2.232602
      ESP Fit Center  260 is at  -0.062327  0.408384  2.232602
      ESP Fit Center  261 is at  -1.166362 -1.111191  2.232602
      ESP Fit Center  262 is at  -0.062327 -1.469914  2.232602
      ESP Fit Center  263 is at  -1.868892 -1.077236  1.392602
      ESP Fit Center  264 is at  -1.166362 -1.914479  1.392602
      ESP Fit Center  265 is at  -0.090024 -2.104266  1.392602
      ESP Fit Center  266 is at  -1.868892 -1.077236  0.354304
      ESP Fit Center  267 is at  -1.166362 -1.914479  0.354304
      ESP Fit Center  268 is at   3.379505  0.975919  0.000000
      ESP Fit Center  269 is at   1.773174  2.084689  0.000000
      ESP Fit Center  270 is at   1.879216  0.474220  2.584154
      ESP Fit Center  271 is at   2.866695  0.474220  2.263303
      ESP Fit Center  272 is at   2.184364  1.413369  2.263303
      ESP Fit Center  273 is at   1.080329  1.054646  2.263303
      ESP Fit Center  274 is at   1.080329 -0.106206  2.263303
      ESP Fit Center  275 is at   2.184364 -0.464929  2.263303
      ESP Fit Center  276 is at   3.476991  0.474220  1.423303
      ESP Fit Center  277 is at   3.103183  1.501250  1.423303
      ESP Fit Center  278 is at   2.156667  2.047721  1.423303
      ESP Fit Center  279 is at   1.080329  1.857934  1.423303
      ESP Fit Center  280 is at   3.103183  1.501250  0.385005
      ESP Fit Center  281 is at   2.156667  2.047721  0.385005
      ESP Fit Center  282 is at   3.112339  1.610032 -0.314653
      ESP Fit Center  283 is at   2.165823  2.156503 -0.314653
      ESP Fit Center  284 is at   3.112339  1.610032 -1.352951
      ESP Fit Center  285 is at   2.165823  2.156503 -1.352951
      ESP Fit Center  286 is at   1.089485  1.966716 -1.352951
      ESP Fit Center  287 is at   2.193520  1.522151 -2.192951
      ESP Fit Center  288 is at   1.089485  1.163428 -2.192951
      ESP Fit Center  289 is at   1.089485  0.002576 -2.192951
      ESP Fit Center  290 is at   2.241486 -1.667525  2.428381
      ESP Fit Center  291 is at   3.304501 -1.667525  2.185755
      ESP Fit Center  292 is at   2.772994 -0.746927  2.185755
      ESP Fit Center  293 is at   1.709978 -0.746927  2.185755
      ESP Fit Center  294 is at   1.178471 -1.667525  2.185755
      ESP Fit Center  295 is at   1.709978 -2.588123  2.185755
      ESP Fit Center  296 is at   2.772994 -2.588123  2.185755
      ESP Fit Center  297 is at   4.156973 -1.667525  1.505931
      ESP Fit Center  298 is at   3.852896 -0.631934  1.505931
      ESP Fit Center  299 is at   0.403590 -2.207180  1.505931
      ESP Fit Center  300 is at   0.987109 -3.115154  1.505931
      ESP Fit Center  301 is at   1.968884 -3.563515  1.505931
      ESP Fit Center  302 is at   3.037208 -3.409913  1.505931
      ESP Fit Center  303 is at   3.852896 -2.703116  1.505931
      ESP Fit Center  304 is at   4.630059 -1.667525  0.523557
      ESP Fit Center  305 is at   4.393516 -0.631162  0.523557
      ESP Fit Center  306 is at   3.730737  0.199937  0.523557
      ESP Fit Center  307 is at   0.089456 -2.703888  0.523557
      ESP Fit Center  308 is at   0.752235 -3.534987  0.523557
      ESP Fit Center  309 is at   1.709978 -3.996212  0.523557
      ESP Fit Center  310 is at   2.772994 -3.996212  0.523557
      ESP Fit Center  311 is at   3.730737 -3.534987  0.523557
      ESP Fit Center  312 is at   4.393516 -2.703888  0.523557
      ESP Fit Center  313 is at   4.393516 -0.631162 -0.566795
      ESP Fit Center  314 is at   3.730737  0.199937 -0.566795
      ESP Fit Center  315 is at   0.089456 -2.703888 -0.566795
      ESP Fit Center  316 is at   0.752235 -3.534987 -0.566795
      ESP Fit Center  317 is at   3.730737 -3.534987 -0.566795
      ESP Fit Center  318 is at   4.393516 -2.703888 -0.566795
      ESP Fit Center  319 is at   2.559757 -4.117707 -0.458625
      ESP Fit Center  320 is at   0.753192 -3.725029 -1.298625
      ESP Fit Center  321 is at   1.455722 -4.562272 -1.298625
      ESP Fit Center  322 is at   2.532060 -4.752059 -1.298625
      ESP Fit Center  323 is at   3.478576 -4.205588 -1.298625
      ESP Fit Center  324 is at   0.753192 -3.725029 -2.336923
      ESP Fit Center  325 is at   1.455722 -4.562272 -2.336923
      ESP Fit Center  326 is at   2.532060 -4.752059 -2.336923
      ESP Fit Center  327 is at   1.455722 -3.758984 -3.176923
      ESP Fit Center  328 is at  -0.280466 -2.379985 -1.686329
      ESP Fit Center  329 is at   1.498402 -0.260013 -2.724627
      ESP Fit Center  330 is at   0.422064 -0.449800 -2.724627
      ESP Fit Center  331 is at  -0.280466 -1.287043 -2.724627
      ESP Fit Center  332 is at  -0.280466 -2.379985 -2.724627
      ESP Fit Center  333 is at   0.422064 -3.217228 -2.724627
      ESP Fit Center  334 is at   0.422064 -1.253088 -3.564627
      ESP Fit Center  335 is at   0.422064 -2.413940 -3.564627
      ESP Fit Center  336 is at   5.261027 -1.733475 -0.832618
      ESP Fit Center  337 is at   4.578696 -0.794326 -0.832618
      ESP Fit Center  338 is at   4.578696 -2.672624 -0.832618
      ESP Fit Center  339 is at   5.871323 -1.733475 -1.672618
      ESP Fit Center  340 is at   5.497515 -0.706445 -1.672618
      ESP Fit Center  341 is at   4.550999 -3.306976 -1.672618
      ESP Fit Center  342 is at   5.497515 -2.760505 -1.672618
      ESP Fit Center  343 is at   5.497515 -0.706445 -2.710916
      ESP Fit Center  344 is at   3.547501  0.552576 -1.212535
      ESP Fit Center  345 is at   4.466320  0.640457 -2.052535
      ESP Fit Center  346 is at   3.519804  1.186928 -2.052535
      ESP Fit Center  347 is at   4.466320  0.640457 -3.090833
      ESP Fit Center  348 is at   3.519804  1.186928 -3.090833
      ESP Fit Center  349 is at   2.443466  0.997141 -3.090833
      ESP Fit Center  350 is at   1.740936  0.159898 -3.090833
      ESP Fit Center  351 is at   3.547501  0.552576 -3.930833
      ESP Fit Center  352 is at   5.401821 -0.845052 -3.831857
      ESP Fit Center  353 is at   4.739042 -0.013953 -3.831857
      ESP Fit Center  354 is at   1.760540 -0.013953 -3.831857
      ESP Fit Center  355 is at   1.097761 -0.845052 -3.831857
      ESP Fit Center  356 is at   1.097761 -2.917778 -3.831857
      ESP Fit Center  357 is at   1.760540 -3.748877 -3.831857
      ESP Fit Center  358 is at   5.401821 -0.845052 -4.922209
      ESP Fit Center  359 is at   4.739042 -0.013953 -4.922209
      ESP Fit Center  360 is at   3.781299  0.447272 -4.922209
      ESP Fit Center  361 is at   2.718283  0.447272 -4.922209
      ESP Fit Center  362 is at   1.760540 -0.013953 -4.922209
      ESP Fit Center  363 is at   1.097761 -0.845052 -4.922209
      ESP Fit Center  364 is at   0.861218 -1.881415 -4.922209
      ESP Fit Center  365 is at   1.097761 -2.917778 -4.922209
      ESP Fit Center  366 is at   1.760540 -3.748877 -4.922209
      ESP Fit Center  367 is at   4.861201 -0.845824 -5.904583
      ESP Fit Center  368 is at   4.045513 -0.139027 -5.904583
      ESP Fit Center  369 is at   2.977189  0.014575 -5.904583
      ESP Fit Center  370 is at   1.995414 -0.433786 -5.904583
      ESP Fit Center  371 is at   1.411895 -1.341760 -5.904583
      ESP Fit Center  372 is at   1.411895 -2.421070 -5.904583
      ESP Fit Center  373 is at   1.995414 -3.329044 -5.904583
      ESP Fit Center  374 is at   4.312806 -1.881415 -6.584407
      ESP Fit Center  375 is at   3.781299 -0.960817 -6.584407
      ESP Fit Center  376 is at   2.718283 -0.960817 -6.584407
      ESP Fit Center  377 is at   2.186776 -1.881415 -6.584407
      ESP Fit Center  378 is at   2.718283 -2.802013 -6.584407
      ESP Fit Center  379 is at   3.781299 -2.802013 -6.584407
      ESP Fit Center  380 is at   3.249791 -1.881415 -6.827033
      ESP Fit Center  381 is at   1.871902 -4.080681 -4.418776
      ESP Fit Center  382 is at   2.799438 -5.353135 -4.859133
      ESP Fit Center  383 is at   2.096908 -3.422950 -5.897431
      ESP Fit Center  384 is at   2.096908 -4.515892 -5.897431
      ESP Fit Center  385 is at   2.799438 -5.353135 -5.897431
      ESP Fit Center  386 is at   4.585804 -3.969421 -6.737431
      ESP Fit Center  387 is at   3.903473 -3.030272 -6.737431
      ESP Fit Center  388 is at   2.799438 -3.388995 -6.737431
      ESP Fit Center  389 is at   2.799438 -4.549847 -6.737431
      ESP Fit Center  390 is at   3.598325 -3.969421 -7.058282
      ESP Fit Center  391 is at   4.420125 -4.183938 -2.301788
      ESP Fit Center  392 is at   2.633759 -4.764364 -2.301788
      ESP Fit Center  393 is at   3.737794 -5.123087 -2.301788
      ESP Fit Center  394 is at   1.931229 -4.730409 -3.141788
      ESP Fit Center  395 is at   2.633759 -5.567652 -3.141788
      ESP Fit Center  396 is at   3.710097 -5.757439 -3.141788
      ESP Fit Center  397 is at   1.931229 -4.730409 -4.180086
      ESP Fit Center  398 is at   2.633759 -5.567652 -4.180086
      ESP Fit Center  399 is at   7.505851 -3.041453 -4.519047
      ESP Fit Center  400 is at   7.132043 -2.014423 -4.519047
      ESP Fit Center  401 is at   6.185527 -1.467952 -4.519047
      ESP Fit Center  402 is at   7.505851 -3.041453 -5.557345
      ESP Fit Center  403 is at   7.132043 -2.014423 -5.557345
      ESP Fit Center  404 is at   6.185527 -1.467952 -5.557345
      ESP Fit Center  405 is at   6.213224 -2.102304 -6.397345
      ESP Fit Center  406 is at   5.109189 -2.461027 -6.397345
      ESP Fit Center  407 is at   5.109189 -3.621879 -6.397345
      ESP Fit Center  408 is at   5.742381 -3.256372 -1.640864
      ESP Fit Center  409 is at   6.729860 -3.256372 -1.961715
      ESP Fit Center  410 is at   6.047529 -2.317223 -1.961715
      ESP Fit Center  411 is at   4.943494 -3.836798 -1.961715
      ESP Fit Center  412 is at   6.047529 -4.195521 -1.961715
      ESP Fit Center  413 is at   7.340156 -3.256372 -2.801715
      ESP Fit Center  414 is at   6.966348 -2.229342 -2.801715
      ESP Fit Center  415 is at   6.019832 -1.682871 -2.801715
      ESP Fit Center  416 is at   6.966348 -2.229342 -3.840013
      ESP Fit Center  417 is at   6.090648 -5.342669 -1.873840
      ESP Fit Center  418 is at   7.153663 -5.342669 -2.116466
      ESP Fit Center  419 is at   6.622156 -4.422071 -2.116466
      ESP Fit Center  420 is at   5.559140 -4.422071 -2.116466
      ESP Fit Center  421 is at   5.027633 -5.342669 -2.116466
      ESP Fit Center  422 is at   5.559140 -6.263267 -2.116466
      ESP Fit Center  423 is at   6.622156 -6.263267 -2.116466
      ESP Fit Center  424 is at   8.006135 -5.342669 -2.796290
      ESP Fit Center  425 is at   7.702058 -4.307078 -2.796290
      ESP Fit Center  426 is at   4.252752 -5.882324 -2.796290
      ESP Fit Center  427 is at   4.836271 -6.790298 -2.796290
      ESP Fit Center  428 is at   5.818046 -7.238659 -2.796290
      ESP Fit Center  429 is at   6.886370 -7.085057 -2.796290
      ESP Fit Center  430 is at   7.702058 -6.378260 -2.796290
      ESP Fit Center  431 is at   8.479221 -5.342669 -3.778664
      ESP Fit Center  432 is at   8.242678 -4.306306 -3.778664
      ESP Fit Center  433 is at   7.579899 -3.475207 -3.778664
      ESP Fit Center  434 is at   3.938618 -6.379032 -3.778664
      ESP Fit Center  435 is at   4.601397 -7.210131 -3.778664
      ESP Fit Center  436 is at   5.559140 -7.671356 -3.778664
      ESP Fit Center  437 is at   6.622156 -7.671356 -3.778664
      ESP Fit Center  438 is at   7.579899 -7.210131 -3.778664
      ESP Fit Center  439 is at   8.242678 -6.379032 -3.778664
      ESP Fit Center  440 is at   8.479221 -5.342669 -4.869016
      ESP Fit Center  441 is at   8.242678 -4.306306 -4.869016
      ESP Fit Center  442 is at   7.579899 -3.475207 -4.869016
      ESP Fit Center  443 is at   3.938618 -6.379032 -4.869016
      ESP Fit Center  444 is at   4.601397 -7.210131 -4.869016
      ESP Fit Center  445 is at   7.579899 -7.210131 -4.869016
      ESP Fit Center  446 is at   8.242678 -6.379032 -4.869016
      ESP Fit Center  447 is at   4.425439 -7.167542 -6.090152
      ESP Fit Center  448 is at   4.806347 -7.149430 -7.140152
      ESP Fit Center  449 is at   5.472312 -6.684311 -7.908805
      ESP Fit Center  450 is at   6.466198 -7.784996 -4.751980
      ESP Fit Center  451 is at   7.758825 -6.845847 -5.591980
      ESP Fit Center  452 is at   4.659633 -7.392318 -5.591980
      ESP Fit Center  453 is at   5.362163 -8.229561 -5.591980
      ESP Fit Center  454 is at   6.438501 -8.419348 -5.591980
      ESP Fit Center  455 is at   7.385017 -7.872877 -5.591980
      ESP Fit Center  456 is at   4.659633 -7.392318 -6.630278
      ESP Fit Center  457 is at   5.362163 -8.229561 -6.630278
      ESP Fit Center  458 is at   6.438501 -8.419348 -6.630278
      ESP Fit Center  459 is at   7.385017 -7.872877 -6.630278
      ESP Fit Center  460 is at   5.362163 -7.426273 -7.470278
      ESP Fit Center  461 is at   6.466198 -7.784996 -7.470278
      ESP Fit Center  462 is at   3.488838 -6.154510 -5.933427
      ESP Fit Center  463 is at   4.191368 -6.991753 -5.933427
      ESP Fit Center  464 is at   4.191368 -4.224325 -6.971725
      ESP Fit Center  465 is at   3.488838 -5.061568 -6.971725
      ESP Fit Center  466 is at   3.488838 -6.154510 -6.971725
      ESP Fit Center  467 is at   4.191368 -6.991753 -6.971725
      ESP Fit Center  468 is at   4.191368 -5.027613 -7.811725
      ESP Fit Center  469 is at   4.191368 -6.188465 -7.811725
      ESP Fit Center  470 is at   4.990255 -5.608039 -8.132576
      ESP Fit Center  471 is at   8.549662 -4.089419 -8.028654
      ESP Fit Center  472 is at   5.274728 -4.560283 -8.028654
      ESP Fit Center  473 is at   9.016598 -5.273274 -5.280222
      ESP Fit Center  474 is at   8.334267 -4.334125 -5.280222
      ESP Fit Center  475 is at   8.334267 -6.212423 -5.280222
      ESP Fit Center  476 is at   9.626894 -5.273274 -6.120222
      ESP Fit Center  477 is at   9.253086 -4.246244 -6.120222
      ESP Fit Center  478 is at   8.306570 -6.846775 -6.120222
      ESP Fit Center  479 is at   9.253086 -6.300304 -6.120222
      ESP Fit Center  480 is at   9.626894 -5.273274 -7.158520
      ESP Fit Center  481 is at   9.253086 -4.246244 -7.158520
      ESP Fit Center  482 is at   8.306570 -6.846775 -7.158520
      ESP Fit Center  483 is at   9.253086 -6.300304 -7.158520
      ESP Fit Center  484 is at   9.016598 -5.273274 -7.998520
      ESP Fit Center  485 is at   8.523403 -5.425470 -8.520974
      ESP Fit Center  486 is at   5.424211 -4.878999 -8.520974
      ESP Fit Center  487 is at   5.424211 -5.971941 -8.520974
      ESP Fit Center  488 is at   6.126741 -6.809184 -8.520974
      ESP Fit Center  489 is at   7.203079 -6.998971 -8.520974
      ESP Fit Center  490 is at   8.149595 -6.452500 -8.520974
      ESP Fit Center  491 is at   7.913107 -5.425470 -9.360974
      ESP Fit Center  492 is at   7.230776 -4.486321 -9.360974
      ESP Fit Center  493 is at   6.126741 -4.845044 -9.360974
      ESP Fit Center  494 is at   6.126741 -6.005896 -9.360974
      ESP Fit Center  495 is at   7.230776 -6.364619 -9.360974
      ESP Fit Center  496 is at   6.925628 -5.425470 -9.681825
      ESP Fit Center  497 is at   8.099789 -2.970957 -6.469250
      ESP Fit Center  498 is at   7.153273 -2.424486 -6.469250
      ESP Fit Center  499 is at   8.099789 -2.970957 -7.507548
      ESP Fit Center  500 is at   7.153273 -2.424486 -7.507548
      ESP Fit Center  501 is at   6.076935 -2.614273 -7.507548
      ESP Fit Center  502 is at   5.374405 -3.451516 -7.507548
      ESP Fit Center  503 is at   7.180970 -3.058838 -8.347548
      ESP Fit Center  504 is at   6.076935 -3.417561 -8.347548
      ESP Fit Center  505 is at  -5.344580  7.509190  3.956183
      ESP Fit Center  506 is at  -8.723492  5.966092  3.956183
      ESP Fit Center  507 is at  -6.402444  8.775897  2.993857
      ESP Fit Center  508 is at  -9.031215  7.509947  2.993857
      ESP Fit Center  509 is at  -9.031215  5.479521  2.993857
      ESP Fit Center  510 is at  -7.443764  8.775897  1.925757
      ESP Fit Center  511 is at  -8.381962  8.324084  1.925757
      ESP Fit Center  512 is at  -6.923104  6.494734  0.059807
      ESP Fit Center  513 is at  -4.518761  7.092444  2.901879
      ESP Fit Center  514 is at  -4.836322  8.069795  2.901879
      ESP Fit Center  515 is at  -5.667706  8.673831  2.901879
      ESP Fit Center  516 is at  -4.261530  7.092444  1.941879
      ESP Fit Center  517 is at  -4.518761  8.052444  1.941879
      ESP Fit Center  518 is at  -5.221530  8.755213  1.941879
      ESP Fit Center  519 is at  -6.181530  9.012444  1.941879
      ESP Fit Center  520 is at  -4.518761  7.092444  0.981879
      ESP Fit Center  521 is at  -4.836322  8.069795  0.981879
      ESP Fit Center  522 is at  -5.667706  8.673831  0.981879
      ESP Fit Center  523 is at  -6.695354  8.673831  0.981879
      ESP Fit Center  524 is at  -5.221530  7.092444  0.279110
      ESP Fit Center  525 is at  -5.701530  7.923828  0.279110
      ESP Fit Center  526 is at  -6.661530  7.923828  0.279110
      ESP Fit Center  527 is at  -6.181530  7.092444  0.021879
      ESP Fit Center  528 is at  -9.167341  7.446604  2.814664
      ESP Fit Center  529 is at  -9.484902  6.469253  2.814664
      ESP Fit Center  530 is at  -9.167341  5.491902  2.814664
      ESP Fit Center  531 is at  -8.782133  8.132022  1.854664
      ESP Fit Center  532 is at  -9.484902  7.429253  1.854664
      ESP Fit Center  533 is at  -9.742133  6.469253  1.854664
      ESP Fit Center  534 is at  -9.484902  5.509253  1.854664
      ESP Fit Center  535 is at  -8.782133  4.806484  1.854664
      ESP Fit Center  536 is at  -8.335957  8.050640  0.894664
      ESP Fit Center  537 is at  -9.167341  7.446604  0.894664
      ESP Fit Center  538 is at  -9.484902  6.469253  0.894664
      ESP Fit Center  539 is at  -9.167341  5.491902  0.894664
      ESP Fit Center  540 is at  -8.335957  4.887866  0.894664
      ESP Fit Center  541 is at  -7.342133  7.300637  0.191895
      ESP Fit Center  542 is at  -8.302133  7.300637  0.191895
      ESP Fit Center  543 is at  -8.782133  6.469253  0.191895
      ESP Fit Center  544 is at  -8.302133  5.637869  0.191895
      ESP Fit Center  545 is at  -7.822133  6.469253 -0.065336
      ESP Fit Center  546 is at  -7.155195  6.974690  5.325479
      ESP Fit Center  547 is at  -6.195195  6.974690  5.068248
      ESP Fit Center  548 is at  -6.675195  7.806074  5.068248
      ESP Fit Center  549 is at  -7.635195  7.806074  5.068248
      ESP Fit Center  550 is at  -8.115195  6.974690  5.068248
      ESP Fit Center  551 is at  -7.635195  6.143306  5.068248
      ESP Fit Center  552 is at  -6.675195  6.143306  5.068248
      ESP Fit Center  553 is at  -5.492426  6.974690  4.365479
      ESP Fit Center  554 is at  -5.809987  7.952041  4.365479
      ESP Fit Center  555 is at  -6.641371  8.556077  4.365479
      ESP Fit Center  556 is at  -7.669019  8.556077  4.365479
      ESP Fit Center  557 is at  -8.500403  7.952041  4.365479
      ESP Fit Center  558 is at  -8.817964  6.974690  4.365479
      ESP Fit Center  559 is at  -8.500403  5.997339  4.365479
      ESP Fit Center  560 is at  -6.195195  8.637459  3.405479
      ESP Fit Center  561 is at  -7.155195  8.894690  3.405479
      ESP Fit Center  562 is at  -8.115195  8.637459  3.405479
      ESP Fit Center  563 is at  -8.817964  7.934690  3.405479
      ESP Fit Center  564 is at  -6.403942  5.089407  5.090768
      ESP Fit Center  565 is at  -5.624459  3.382578  4.187144
      ESP Fit Center  566 is at  -4.295831  6.104620  2.156718
      ESP Fit Center  567 is at  -5.506636  5.116398  5.225983
      ESP Fit Center  568 is at  -4.546636  5.116398  4.968752
      ESP Fit Center  569 is at  -5.026636  5.947782  4.968752
      ESP Fit Center  570 is at  -5.986636  5.947782  4.968752
      ESP Fit Center  571 is at  -5.986636  4.285014  4.968752
      ESP Fit Center  572 is at  -5.026636  4.285014  4.968752
      ESP Fit Center  573 is at  -3.843867  5.116398  4.265983
      ESP Fit Center  574 is at  -4.161428  6.093749  4.265983
      ESP Fit Center  575 is at  -4.992812  6.697785  4.265983
      ESP Fit Center  576 is at  -4.992812  3.535011  4.265983
      ESP Fit Center  577 is at  -4.161428  4.139047  4.265983
      ESP Fit Center  578 is at  -3.843867  6.076398  3.305983
      ESP Fit Center  579 is at  -4.546636  6.779167  3.305983
      ESP Fit Center  580 is at  -4.161428  6.093749  2.345983
      ESP Fit Center  581 is at  -7.143519  4.493481  5.142701
      ESP Fit Center  582 is at  -7.623519  5.324865  4.885470
      ESP Fit Center  583 is at  -8.103519  4.493481  4.885470
      ESP Fit Center  584 is at  -7.623519  3.662097  4.885470
      ESP Fit Center  585 is at  -6.663519  3.662097  4.885470
      ESP Fit Center  586 is at  -8.488727  5.470832  4.182701
      ESP Fit Center  587 is at  -8.806288  4.493481  4.182701
      ESP Fit Center  588 is at  -8.488727  3.516130  4.182701
      ESP Fit Center  589 is at  -7.657343  2.912094  4.182701
      ESP Fit Center  590 is at  -6.629695  2.912094  4.182701
      ESP Fit Center  591 is at  -9.063519  4.493481  3.222701
      ESP Fit Center  592 is at  -8.806288  3.533481  3.222701
      ESP Fit Center  593 is at  -8.103519  2.830712  3.222701
      ESP Fit Center  594 is at  -8.806288  4.493481  2.262701
      ESP Fit Center  595 is at  -8.488727  3.516130  2.262701
      ESP Fit Center  596 is at  -8.255738  3.986958  0.945924
      ESP Fit Center  597 is at  -4.718524  5.538975  0.047754
      ESP Fit Center  598 is at  -5.594176  6.175173  0.047754
      ESP Fit Center  599 is at  -6.676540  6.175173  0.047754
      ESP Fit Center  600 is at  -7.552192  5.538975  0.047754
      ESP Fit Center  601 is at  -7.886661  4.509585  0.047754
      ESP Fit Center  602 is at  -5.163458  4.509585 -0.573799
      ESP Fit Center  603 is at  -5.649408  5.351275 -0.573799
      ESP Fit Center  604 is at  -6.621308  5.351275 -0.573799
      ESP Fit Center  605 is at  -7.107258  4.509585 -0.573799
      ESP Fit Center  606 is at  -6.135358  4.509585 -0.795629
      ESP Fit Center  607 is at  -7.965166  3.208722  2.003448
      ESP Fit Center  608 is at  -7.965166  3.208722  0.935348
      ESP Fit Center  609 is at  -7.888601  2.705717  0.574511
      ESP Fit Center  610 is at  -7.631370  1.745717  0.574511
      ESP Fit Center  611 is at  -6.928601  1.042948  0.574511
      ESP Fit Center  612 is at  -5.968601  0.785717  0.574511
      ESP Fit Center  613 is at  -7.313809  3.683068 -0.385489
      ESP Fit Center  614 is at  -7.631370  2.705717 -0.385489
      ESP Fit Center  615 is at  -7.313809  1.728366 -0.385489
      ESP Fit Center  616 is at  -6.482425  1.124330 -0.385489
      ESP Fit Center  617 is at  -5.454777  1.124330 -0.385489
      ESP Fit Center  618 is at  -5.008601  2.705717 -1.088258
      ESP Fit Center  619 is at  -5.488601  3.537101 -1.088258
      ESP Fit Center  620 is at  -6.448601  3.537101 -1.088258
      ESP Fit Center  621 is at  -6.928601  2.705717 -1.088258
      ESP Fit Center  622 is at  -6.448601  1.874333 -1.088258
      ESP Fit Center  623 is at  -5.488601  1.874333 -1.088258
      ESP Fit Center  624 is at  -5.968601  2.705717 -1.345489
      ESP Fit Center  625 is at  -5.997509  2.652818  4.245623
      ESP Fit Center  626 is at  -5.037509  2.652818  3.988392
      ESP Fit Center  627 is at  -6.957509  2.652818  3.988392
      ESP Fit Center  628 is at  -6.477509  1.821434  3.988392
      ESP Fit Center  629 is at  -5.517509  1.821434  3.988392
      ESP Fit Center  630 is at  -7.342717  1.675467  3.285623
      ESP Fit Center  631 is at  -6.511333  1.071431  3.285623
      ESP Fit Center  632 is at  -5.483685  1.071431  3.285623
      ESP Fit Center  633 is at  -7.917509  2.652818  2.325623
      ESP Fit Center  634 is at  -7.660278  1.692818  2.325623
      ESP Fit Center  635 is at  -6.957509  0.990049  2.325623
      ESP Fit Center  636 is at  -5.997509  0.732818  2.325623
      ESP Fit Center  637 is at  -4.626117  2.312100  3.646164
      ESP Fit Center  638 is at  -2.079008  4.703335  0.607353
      ESP Fit Center  639 is at  -2.781777  5.406104  0.607353
      ESP Fit Center  640 is at  -3.741777  5.663335  0.607353
      ESP Fit Center  641 is at  -2.396569  4.720686 -0.352647
      ESP Fit Center  642 is at  -3.227953  5.324722 -0.352647
      ESP Fit Center  643 is at  -4.255601  5.324722 -0.352647
      ESP Fit Center  644 is at  -3.261777  4.574719 -1.055416
      ESP Fit Center  645 is at  -4.221777  4.574719 -1.055416
      ESP Fit Center  646 is at  -4.701777  3.743335 -1.055416
      ESP Fit Center  647 is at  -4.221777  2.911951 -1.055416
      ESP Fit Center  648 is at  -3.741777  3.743335 -1.312647
      ESP Fit Center  649 is at  -3.729782  3.734110  4.282484
      ESP Fit Center  650 is at  -2.769782  3.734110  4.025253
      ESP Fit Center  651 is at  -3.249782  4.565494  4.025253
      ESP Fit Center  652 is at  -4.209782  2.902726  4.025253
      ESP Fit Center  653 is at  -3.249782  2.902726  4.025253
      ESP Fit Center  654 is at  -2.384574  4.711461  3.322484
      ESP Fit Center  655 is at  -3.215958  5.315497  3.322484
      ESP Fit Center  656 is at  -2.067013  4.694110  2.362484
      ESP Fit Center  657 is at  -2.769782  5.396879  2.362484
      ESP Fit Center  658 is at  -3.729782  5.654110  2.362484
      ESP Fit Center  659 is at  -3.685541  1.879750  3.735337
      ESP Fit Center  660 is at  -4.657441  1.879750  3.513507
      ESP Fit Center  661 is at  -4.171491  1.038060  3.513507
      ESP Fit Center  662 is at  -5.102375  0.850360  2.891954
      ESP Fit Center  663 is at  -4.226723  0.214162  2.891954
      ESP Fit Center  664 is at  -5.320168  0.431597  1.993784
      ESP Fit Center  665 is at  -4.459941 -0.162174  1.993784
      ESP Fit Center  666 is at  -5.320168  0.431597  0.996890
      ESP Fit Center  667 is at  -4.459941 -0.162174  0.996890
      ESP Fit Center  668 is at  -5.102375  0.850360  0.098720
      ESP Fit Center  669 is at  -4.226723  0.214162  0.098720
      ESP Fit Center  670 is at  -2.303258  1.665587  3.864198
      ESP Fit Center  671 is at  -2.823918  2.567397  3.626523
      ESP Fit Center  672 is at  -2.114149  0.743910  3.920528
      ESP Fit Center  673 is at  -1.154149  0.743910  3.663297
      ESP Fit Center  674 is at  -3.074149  0.743910  3.663297
      ESP Fit Center  675 is at  -2.594149 -0.087474  3.663297
      ESP Fit Center  676 is at  -1.634149 -0.087474  3.663297
      ESP Fit Center  677 is at  -0.451380  0.743910  2.960528
      ESP Fit Center  678 is at  -3.459357 -0.233441  2.960528
      ESP Fit Center  679 is at  -2.627973 -0.837477  2.960528
      ESP Fit Center  680 is at  -1.600325 -0.837477  2.960528
      ESP Fit Center  681 is at  -0.768941 -0.233441  2.960528
      ESP Fit Center  682 is at  -3.074149 -0.918859  2.000528
      ESP Fit Center  683 is at  -2.114149 -1.176090  2.000528
      ESP Fit Center  684 is at  -2.627973 -0.837477  1.040528
      ESP Fit Center  685 is at  -1.769670  2.461182  3.897211
      ESP Fit Center  686 is at  -0.809670  2.461182  3.639980
      ESP Fit Center  687 is at  -1.289670  3.292566  3.639980
      ESP Fit Center  688 is at  -2.249670  3.292566  3.639980
      ESP Fit Center  689 is at  -1.289670  1.629798  3.639980
      ESP Fit Center  690 is at  -0.106901  2.461182  2.937211
      ESP Fit Center  691 is at  -0.424462  3.438533  2.937211
      ESP Fit Center  692 is at  -1.255846  4.042569  2.937211
      ESP Fit Center  693 is at   0.150330  2.461182  1.977211
      ESP Fit Center  694 is at  -0.106901  3.421182  1.977211
      ESP Fit Center  695 is at  -0.809670  4.123951  1.977211
      ESP Fit Center  696 is at  -1.769670  4.381182  1.977211
      ESP Fit Center  697 is at  -0.424462  3.438533  1.017211
      ESP Fit Center  698 is at  -1.255846  4.042569  1.017211
      ESP Fit Center  699 is at  -1.276789  0.650485 -2.131825
      ESP Fit Center  700 is at  -1.797449  1.552295 -2.369500
      ESP Fit Center  701 is at  -1.470592  4.055279  0.453919
      ESP Fit Center  702 is at  -1.024416  4.136661 -0.506081
      ESP Fit Center  703 is at  -1.984416  4.393892 -0.506081
      ESP Fit Center  704 is at  -0.639208  3.451243 -1.466081
      ESP Fit Center  705 is at  -1.470592  4.055279 -1.466081
      ESP Fit Center  706 is at  -2.498240  4.055279 -1.466081
      ESP Fit Center  707 is at  -3.329624  3.451243 -1.466081
      ESP Fit Center  708 is at  -3.647185  2.473892 -1.466081
      ESP Fit Center  709 is at  -1.024416  2.473892 -2.168850
      ESP Fit Center  710 is at  -1.504416  3.305276 -2.168850
      ESP Fit Center  711 is at  -2.464416  3.305276 -2.168850
      ESP Fit Center  712 is at  -2.944416  2.473892 -2.168850
      ESP Fit Center  713 is at  -1.984416  2.473892 -2.426081
      ESP Fit Center  714 is at  -3.676731 -0.219882  0.476945
      ESP Fit Center  715 is at  -2.845347 -0.823918  0.476945
      ESP Fit Center  716 is at  -4.251523  0.757469 -0.483055
      ESP Fit Center  717 is at  -3.994292 -0.202531 -0.483055
      ESP Fit Center  718 is at  -3.291523 -0.905300 -0.483055
      ESP Fit Center  719 is at  -2.331523 -1.162531 -0.483055
      ESP Fit Center  720 is at  -3.994292  0.757469 -1.443055
      ESP Fit Center  721 is at  -3.676731 -0.219882 -1.443055
      ESP Fit Center  722 is at  -2.845347 -0.823918 -1.443055
      ESP Fit Center  723 is at  -2.811523  1.588853 -2.145824
      ESP Fit Center  724 is at  -3.291523  0.757469 -2.145824
      ESP Fit Center  725 is at  -2.811523 -0.073915 -2.145824
      ESP Fit Center  726 is at  -1.851523 -0.073915 -2.145824
      ESP Fit Center  727 is at  -2.331523  0.757469 -2.403055
      ESP Fit Center  728 is at   0.558381  1.336245  2.018170
      ESP Fit Center  729 is at   1.003315  2.365635  1.396617
      ESP Fit Center  730 is at   0.127663  3.001833  1.396617
      ESP Fit Center  731 is at   1.520174  2.351125  0.498447
      ESP Fit Center  732 is at   0.827043  3.133509  0.498447
      ESP Fit Center  733 is at  -0.150286  3.504161  0.498447
      ESP Fit Center  734 is at   0.827043  3.133509 -0.498447
      ESP Fit Center  735 is at  -0.150286  3.504161 -0.498447
      ESP Fit Center  736 is at   1.003315  2.365635 -1.396617
      ESP Fit Center  737 is at   0.127663  3.001833 -1.396617
      ESP Fit Center  738 is at   0.558381  1.336245 -2.018170
      ESP Fit Center  739 is at   0.072431  2.177935 -2.018170
      ESP Fit Center  740 is at  -0.413519  1.336245 -2.240000
      ESP Fit Center  741 is at   0.520660  0.901810 -2.162325
      ESP Fit Center  742 is at  -2.049140 -1.469671 -0.879627
      ESP Fit Center  743 is at  -1.346371 -2.172440 -0.879627
      ESP Fit Center  744 is at  -0.386371 -2.429671 -0.879627
      ESP Fit Center  745 is at  -1.731579 -1.487022 -1.839627
      ESP Fit Center  746 is at  -0.900195 -2.091058 -1.839627
      ESP Fit Center  747 is at   0.093629  0.321713 -2.542396
      ESP Fit Center  748 is at  -0.866371  0.321713 -2.542396
      ESP Fit Center  749 is at  -1.346371 -0.509671 -2.542396
      ESP Fit Center  750 is at  -0.866371 -1.341055 -2.542396
      ESP Fit Center  751 is at  -0.386371 -0.509671 -2.799627
      ESP Fit Center  752 is at  -0.367475 -0.530765  2.793453
      ESP Fit Center  753 is at   0.592525 -0.530765  2.536222
      ESP Fit Center  754 is at   0.112525  0.300619  2.536222
      ESP Fit Center  755 is at  -0.847475 -1.362149  2.536222
      ESP Fit Center  756 is at   0.112525 -1.362149  2.536222
      ESP Fit Center  757 is at  -1.712683 -1.508116  1.833453
      ESP Fit Center  758 is at  -0.881299 -2.112152  1.833453
      ESP Fit Center  759 is at   0.146349 -2.112152  1.833453
      ESP Fit Center  760 is at  -2.030244 -1.490765  0.873453
      ESP Fit Center  761 is at  -1.327475 -2.193534  0.873453
      ESP Fit Center  762 is at  -0.367475 -2.450765  0.873453
      ESP Fit Center  763 is at   1.879216  0.474220  2.824154
      ESP Fit Center  764 is at   2.839216  0.474220  2.566923
      ESP Fit Center  765 is at   2.359216  1.305604  2.566923
      ESP Fit Center  766 is at   1.399216  1.305604  2.566923
      ESP Fit Center  767 is at   0.919216  0.474220  2.566923
      ESP Fit Center  768 is at   1.399216 -0.357164  2.566923
      ESP Fit Center  769 is at   2.359216 -0.357164  2.566923
      ESP Fit Center  770 is at   3.541985  0.474220  1.864154
      ESP Fit Center  771 is at   3.224424  1.451571  1.864154
      ESP Fit Center  772 is at   2.393040  2.055607  1.864154
      ESP Fit Center  773 is at   1.365392  2.055607  1.864154
      ESP Fit Center  774 is at   3.799216  0.474220  0.904154
      ESP Fit Center  775 is at   3.541985  1.434220  0.904154
      ESP Fit Center  776 is at   2.839216  2.136989  0.904154
      ESP Fit Center  777 is at   1.879216  2.394220  0.904154
      ESP Fit Center  778 is at   3.808372  0.583002 -0.833802
      ESP Fit Center  779 is at   3.551141  1.543002 -0.833802
      ESP Fit Center  780 is at   2.848372  2.245771 -0.833802
      ESP Fit Center  781 is at   1.888372  2.503002 -0.833802
      ESP Fit Center  782 is at   3.233580  1.560353 -1.793802
      ESP Fit Center  783 is at   2.402196  2.164389 -1.793802
      ESP Fit Center  784 is at   1.374548  2.164389 -1.793802
      ESP Fit Center  785 is at   2.368372  1.414386 -2.496571
      ESP Fit Center  786 is at   1.408372  1.414386 -2.496571
      ESP Fit Center  787 is at   0.928372  0.583002 -2.496571
      ESP Fit Center  788 is at   2.241486 -1.667525  2.778381
      ESP Fit Center  789 is at   3.313000 -1.667525  2.565244
      ESP Fit Center  790 is at   2.777243 -0.739567  2.565244
      ESP Fit Center  791 is at   1.705729 -0.739567  2.565244
      ESP Fit Center  792 is at   1.169972 -1.667525  2.565244
      ESP Fit Center  793 is at   1.705729 -2.595483  2.565244
      ESP Fit Center  794 is at   2.777243 -2.595483  2.565244
      ESP Fit Center  795 is at   4.221385 -1.667525  1.958280
      ESP Fit Center  796 is at   3.956129 -0.677576  1.958280
      ESP Fit Center  797 is at   0.526843 -2.657474  1.958280
      ESP Fit Center  798 is at   1.251537 -3.382168  1.958280
      ESP Fit Center  799 is at   2.241486 -3.647424  1.958280
      ESP Fit Center  800 is at   3.231435 -3.382168  1.958280
      ESP Fit Center  801 is at   3.956129 -2.657474  1.958280
      ESP Fit Center  802 is at   4.828349 -1.667525  1.049895
      ESP Fit Center  803 is at   4.604703 -0.615353  1.049895
      ESP Fit Center  804 is at   3.972435  0.254889  1.049895
      ESP Fit Center  805 is at   0.148670 -3.188045  1.049895
      ESP Fit Center  806 is at   0.948055 -3.907814  1.049895
      ESP Fit Center  807 is at   1.971085 -4.240217  1.049895
      ESP Fit Center  808 is at   3.040871 -4.127778  1.049895
      ESP Fit Center  809 is at   3.972435 -3.589939  1.049895
      ESP Fit Center  810 is at   4.604703 -2.719697  1.049895
      ESP Fit Center  811 is at   5.041486 -1.667525 -0.021619
      ESP Fit Center  812 is at   4.852408 -0.656048 -0.021619
      ESP Fit Center  813 is at   4.310711  0.218823 -0.021619
      ESP Fit Center  814 is at  -0.139122 -3.141535 -0.021619
      ESP Fit Center  815 is at   0.554109 -3.901973 -0.021619
      ESP Fit Center  816 is at   1.475230 -4.360637 -0.021619
      ESP Fit Center  817 is at   2.499837 -4.455581 -0.021619
      ESP Fit Center  818 is at   3.489553 -4.173982 -0.021619
      ESP Fit Center  819 is at   4.310711 -3.553873 -0.021619
      ESP Fit Center  820 is at   4.852408 -2.679002 -0.021619
      ESP Fit Center  821 is at   0.148670 -3.188045 -1.093133
      ESP Fit Center  822 is at   0.075832 -3.114132 -1.256536
      ESP Fit Center  823 is at   0.955165 -3.517004 -3.286962
      ESP Fit Center  824 is at   0.909401 -4.155909 -0.857774
      ESP Fit Center  825 is at   1.740785 -4.759945 -0.857774
      ESP Fit Center  826 is at   2.768433 -4.759945 -0.857774
      ESP Fit Center  827 is at   3.599817 -4.155909 -0.857774
      ESP Fit Center  828 is at   0.591840 -4.138558 -1.817774
      ESP Fit Center  829 is at   1.294609 -4.841327 -1.817774
      ESP Fit Center  830 is at   2.254609 -5.098558 -1.817774
      ESP Fit Center  831 is at   3.214609 -4.841327 -1.817774
      ESP Fit Center  832 is at   0.909401 -4.155909 -2.777774
      ESP Fit Center  833 is at   1.740785 -4.759945 -2.777774
      ESP Fit Center  834 is at  -0.124257 -2.810865 -1.245478
      ESP Fit Center  835 is at  -0.441818 -2.793514 -2.205478
      ESP Fit Center  836 is at   0.260951 -3.496283 -2.205478
      ESP Fit Center  837 is at   0.707127 -0.252127 -3.165478
      ESP Fit Center  838 is at  -0.124257 -0.856163 -3.165478
      ESP Fit Center  839 is at  -0.441818 -1.833514 -3.165478
      ESP Fit Center  840 is at  -0.124257 -2.810865 -3.165478
      ESP Fit Center  841 is at   0.707127 -3.414901 -3.165478
      ESP Fit Center  842 is at   0.260951 -1.833514 -3.868247
      ESP Fit Center  843 is at   5.418516 -0.451042 -3.139140
      ESP Fit Center  844 is at   5.233548 -1.733475 -0.528998
      ESP Fit Center  845 is at   5.936317 -1.733475 -1.231767
      ESP Fit Center  846 is at   5.618756 -0.756124 -1.231767
      ESP Fit Center  847 is at   4.787372 -0.152088 -1.231767
      ESP Fit Center  848 is at   4.787372 -3.314862 -1.231767
      ESP Fit Center  849 is at   5.618756 -2.710826 -1.231767
      ESP Fit Center  850 is at   6.193548 -1.733475 -2.191767
      ESP Fit Center  851 is at   5.936317 -0.773475 -2.191767
      ESP Fit Center  852 is at   5.233548 -0.070706 -2.191767
      ESP Fit Center  853 is at   5.618756 -0.756124 -3.151767
      ESP Fit Center  854 is at   4.587561  0.590778 -1.611684
      ESP Fit Center  855 is at   3.756177  1.194814 -1.611684
      ESP Fit Center  856 is at   4.905122  0.573427 -2.571684
      ESP Fit Center  857 is at   4.202353  1.276196 -2.571684
      ESP Fit Center  858 is at   3.242353  1.533427 -2.571684
      ESP Fit Center  859 is at   4.587561  0.590778 -3.531684
      ESP Fit Center  860 is at   3.756177  1.194814 -3.531684
      ESP Fit Center  861 is at   2.728529  1.194814 -3.531684
      ESP Fit Center  862 is at   1.897145  0.590778 -3.531684
      ESP Fit Center  863 is at   5.613008 -0.829243 -3.305519
      ESP Fit Center  864 is at   5.860713 -0.869938 -4.377033
      ESP Fit Center  865 is at   5.319016  0.004933 -4.377033
      ESP Fit Center  866 is at   4.497858  0.625042 -4.377033
      ESP Fit Center  867 is at   3.508142  0.906641 -4.377033
      ESP Fit Center  868 is at   2.483535  0.811697 -4.377033
      ESP Fit Center  869 is at   1.562414  0.353033 -4.377033
      ESP Fit Center  870 is at   0.869183 -0.407405 -4.377033
      ESP Fit Center  871 is at   0.497466 -1.366916 -4.377033
      ESP Fit Center  872 is at   0.497466 -2.395914 -4.377033
      ESP Fit Center  873 is at   0.869183 -3.355425 -4.377033
      ESP Fit Center  874 is at   1.562414 -4.115863 -4.377033
      ESP Fit Center  875 is at   5.613008 -0.829243 -5.448547
      ESP Fit Center  876 is at   4.980740  0.040999 -5.448547
      ESP Fit Center  877 is at   4.049176  0.578838 -5.448547
      ESP Fit Center  878 is at   2.979390  0.691277 -5.448547
      ESP Fit Center  879 is at   1.956360  0.358874 -5.448547
      ESP Fit Center  880 is at   1.156975 -0.360895 -5.448547
      ESP Fit Center  881 is at   0.719457 -1.343576 -5.448547
      ESP Fit Center  882 is at   0.719457 -2.419254 -5.448547
      ESP Fit Center  883 is at   1.156975 -3.401935 -5.448547
      ESP Fit Center  884 is at   4.964434 -0.891466 -6.356932
      ESP Fit Center  885 is at   4.239740 -0.166772 -6.356932
      ESP Fit Center  886 is at   3.249791  0.098484 -6.356932
      ESP Fit Center  887 is at   2.259842 -0.166772 -6.356932
      ESP Fit Center  888 is at   1.535148 -0.891466 -6.356932
      ESP Fit Center  889 is at   1.269892 -1.881415 -6.356932
      ESP Fit Center  890 is at   1.535148 -2.871364 -6.356932
      ESP Fit Center  891 is at   4.321305 -1.881415 -6.963896
      ESP Fit Center  892 is at   3.785548 -0.953457 -6.963896
      ESP Fit Center  893 is at   2.714034 -0.953457 -6.963896
      ESP Fit Center  894 is at   2.178277 -1.881415 -6.963896
      ESP Fit Center  895 is at   2.714034 -2.809373 -6.963896
      ESP Fit Center  896 is at   3.785548 -2.809373 -6.963896
      ESP Fit Center  897 is at   3.249791 -1.881415 -7.177033
      ESP Fit Center  898 is at   1.802769 -4.593331 -4.952826
      ESP Fit Center  899 is at   3.390220 -5.859281 -4.952826
      ESP Fit Center  900 is at   1.935556 -4.929421 -5.378282
      ESP Fit Center  901 is at   2.638325 -5.632190 -5.378282
      ESP Fit Center  902 is at   1.935556 -3.969421 -6.338282
      ESP Fit Center  903 is at   2.253117 -4.946772 -6.338282
      ESP Fit Center  904 is at   4.078325 -3.138037 -7.041051
      ESP Fit Center  905 is at   3.118325 -3.138037 -7.041051
      ESP Fit Center  906 is at   2.638325 -3.969421 -7.041051
      ESP Fit Center  907 is at   3.118325 -4.800805 -7.041051
      ESP Fit Center  908 is at   3.598325 -3.969421 -7.298282
      ESP Fit Center  909 is at   4.392646 -4.183938 -1.998168
      ESP Fit Center  910 is at   2.952646 -5.015322 -1.998168
      ESP Fit Center  911 is at   3.912646 -5.015322 -1.998168
      ESP Fit Center  912 is at   2.087438 -5.161289 -2.700937
      ESP Fit Center  913 is at   2.918822 -5.765325 -2.700937
      ESP Fit Center  914 is at   1.512646 -4.183938 -3.660937
      ESP Fit Center  915 is at   1.769877 -5.143938 -3.660937
      ESP Fit Center  916 is at   2.472646 -5.846707 -3.660937
      ESP Fit Center  917 is at   3.432646 -6.103938 -3.660937
      ESP Fit Center  918 is at   2.087438 -5.161289 -4.620937
      ESP Fit Center  919 is at   2.918822 -5.765325 -4.620937
      ESP Fit Center  920 is at   7.538472 -2.632466 -3.746661
      ESP Fit Center  921 is at   5.951021 -1.366516 -3.746661
      ESP Fit Center  922 is at   7.253284 -2.064102 -4.078196
      ESP Fit Center  923 is at   6.421900 -1.460066 -4.078196
      ESP Fit Center  924 is at   7.828076 -3.041453 -5.038196
      ESP Fit Center  925 is at   7.570845 -2.081453 -5.038196
      ESP Fit Center  926 is at   6.868076 -1.378684 -5.038196
      ESP Fit Center  927 is at   5.908076 -1.121453 -5.038196
      ESP Fit Center  928 is at   7.253284 -2.064102 -5.998196
      ESP Fit Center  929 is at   6.421900 -1.460066 -5.998196
      ESP Fit Center  930 is at   5.428076 -2.210069 -6.700965
      ESP Fit Center  931 is at   4.948076 -3.041453 -6.700965
      ESP Fit Center  932 is at   5.742381 -3.256372 -1.400864
      ESP Fit Center  933 is at   6.702381 -3.256372 -1.658095
      ESP Fit Center  934 is at   6.222381 -2.424988 -1.658095
      ESP Fit Center  935 is at   5.262381 -4.087756 -1.658095
      ESP Fit Center  936 is at   6.222381 -4.087756 -1.658095
      ESP Fit Center  937 is at   7.405150 -3.256372 -2.360864
      ESP Fit Center  938 is at   7.087589 -2.279021 -2.360864
      ESP Fit Center  939 is at   6.256205 -1.674985 -2.360864
      ESP Fit Center  940 is at   7.405150 -2.296372 -3.320864
      ESP Fit Center  941 is at   6.702381 -1.593603 -3.320864
      ESP Fit Center  942 is at   6.090648 -5.342669 -1.523840
      ESP Fit Center  943 is at   7.162162 -5.342669 -1.736977
      ESP Fit Center  944 is at   6.626405 -4.414711 -1.736977
      ESP Fit Center  945 is at   5.554891 -4.414711 -1.736977
      ESP Fit Center  946 is at   5.019134 -5.342669 -1.736977
      ESP Fit Center  947 is at   5.554891 -6.270627 -1.736977
      ESP Fit Center  948 is at   6.626405 -6.270627 -1.736977
      ESP Fit Center  949 is at   8.070547 -5.342669 -2.343941
      ESP Fit Center  950 is at   7.805291 -4.352720 -2.343941
      ESP Fit Center  951 is at   4.376005 -6.332618 -2.343941
      ESP Fit Center  952 is at   5.100699 -7.057312 -2.343941
      ESP Fit Center  953 is at   6.090648 -7.322568 -2.343941
      ESP Fit Center  954 is at   7.080597 -7.057312 -2.343941
      ESP Fit Center  955 is at   7.805291 -6.332618 -2.343941
      ESP Fit Center  956 is at   8.677511 -5.342669 -3.252326
      ESP Fit Center  957 is at   8.453865 -4.290497 -3.252326
      ESP Fit Center  958 is at   7.821597 -3.420255 -3.252326
      ESP Fit Center  959 is at   3.997832 -6.863189 -3.252326
      ESP Fit Center  960 is at   4.797217 -7.582958 -3.252326
      ESP Fit Center  961 is at   5.820247 -7.915361 -3.252326
      ESP Fit Center  962 is at   6.890033 -7.802922 -3.252326
      ESP Fit Center  963 is at   7.821597 -7.265083 -3.252326
      ESP Fit Center  964 is at   8.453865 -6.394841 -3.252326
      ESP Fit Center  965 is at   8.890648 -5.342669 -4.323840
      ESP Fit Center  966 is at   8.701570 -4.331192 -4.323840
      ESP Fit Center  967 is at   8.159873 -3.456321 -4.323840
      ESP Fit Center  968 is at   3.710040 -6.816679 -4.323840
      ESP Fit Center  969 is at   4.403271 -7.577117 -4.323840
      ESP Fit Center  970 is at   5.324392 -8.035781 -4.323840
      ESP Fit Center  971 is at   6.348999 -8.130725 -4.323840
      ESP Fit Center  972 is at   7.338715 -7.849126 -4.323840
      ESP Fit Center  973 is at   8.159873 -7.229017 -4.323840
      ESP Fit Center  974 is at   8.701570 -6.354146 -4.323840
      ESP Fit Center  975 is at   7.821597 -3.420255 -5.395354
      ESP Fit Center  976 is at   4.768534 -7.193069 -7.586528
      ESP Fit Center  977 is at   5.476652 -6.676794 -8.252477
      ESP Fit Center  978 is at   4.815842 -7.823198 -5.151129
      ESP Fit Center  979 is at   5.647226 -8.427234 -5.151129
      ESP Fit Center  980 is at   6.674874 -8.427234 -5.151129
      ESP Fit Center  981 is at   7.506258 -7.823198 -5.151129
      ESP Fit Center  982 is at   4.498281 -7.805847 -6.111129
      ESP Fit Center  983 is at   5.201050 -8.508616 -6.111129
      ESP Fit Center  984 is at   6.161050 -8.765847 -6.111129
      ESP Fit Center  985 is at   7.121050 -8.508616 -6.111129
      ESP Fit Center  986 is at   7.823819 -7.805847 -6.111129
      ESP Fit Center  987 is at   4.815842 -7.823198 -7.071129
      ESP Fit Center  988 is at   5.647226 -8.427234 -7.071129
      ESP Fit Center  989 is at   6.674874 -8.427234 -7.071129
      ESP Fit Center  990 is at   7.506258 -7.823198 -7.071129
      ESP Fit Center  991 is at   5.681050 -7.677231 -7.773898
      ESP Fit Center  992 is at   6.641050 -7.677231 -7.773898
      ESP Fit Center  993 is at   3.645047 -6.585390 -5.492576
      ESP Fit Center  994 is at   3.070255 -5.608039 -6.452576
      ESP Fit Center  995 is at   3.327486 -6.568039 -6.452576
      ESP Fit Center  996 is at   4.030255 -7.270808 -6.452576
      ESP Fit Center  997 is at   4.476431 -4.026652 -7.412576
      ESP Fit Center  998 is at   3.645047 -4.630688 -7.412576
      ESP Fit Center  999 is at   3.327486 -5.608039 -7.412576
      ESP Fit Center 1000 is at   3.645047 -6.585390 -7.412576
      ESP Fit Center 1001 is at   4.476431 -7.189426 -7.412576
      ESP Fit Center 1002 is at   4.510255 -4.776655 -8.115345
      ESP Fit Center 1003 is at   4.030255 -5.608039 -8.115345
      ESP Fit Center 1004 is at   4.510255 -6.439423 -8.115345
      ESP Fit Center 1005 is at   4.990255 -5.608039 -8.372576
      ESP Fit Center 1006 is at   7.540373 -7.353820 -7.512704
      ESP Fit Center 1007 is at   8.896109 -5.072657 -8.475030
      ESP Fit Center 1008 is at   8.598237 -4.058201 -8.475030
      ESP Fit Center 1009 is at   5.219325 -4.544015 -8.475030
      ESP Fit Center 1010 is at   8.989119 -5.273274 -4.976602
      ESP Fit Center 1011 is at   9.691888 -5.273274 -5.679371
      ESP Fit Center 1012 is at   9.374327 -4.295923 -5.679371
      ESP Fit Center 1013 is at   8.542943 -3.691887 -5.679371
      ESP Fit Center 1014 is at   8.542943 -6.854661 -5.679371
      ESP Fit Center 1015 is at   9.374327 -6.250625 -5.679371
      ESP Fit Center 1016 is at   9.949119 -5.273274 -6.639371
      ESP Fit Center 1017 is at   9.691888 -4.313274 -6.639371
      ESP Fit Center 1018 is at   8.989119 -3.610505 -6.639371
      ESP Fit Center 1019 is at   8.989119 -6.936043 -6.639371
      ESP Fit Center 1020 is at   9.691888 -6.233274 -6.639371
      ESP Fit Center 1021 is at   9.691888 -5.273274 -7.599371
      ESP Fit Center 1022 is at   9.374327 -4.295923 -7.599371
      ESP Fit Center 1023 is at   8.542943 -6.854661 -7.599371
      ESP Fit Center 1024 is at   9.374327 -6.250625 -7.599371
      ESP Fit Center 1025 is at   6.925628 -7.345470 -8.001825
      ESP Fit Center 1026 is at   7.885628 -7.088239 -8.001825
      ESP Fit Center 1027 is at   8.588397 -5.425470 -8.961825
      ESP Fit Center 1028 is at   8.270836 -4.448119 -8.961825
      ESP Fit Center 1029 is at   6.411804 -3.844083 -8.961825
      ESP Fit Center 1030 is at   5.580420 -4.448119 -8.961825
      ESP Fit Center 1031 is at   5.262859 -5.425470 -8.961825
      ESP Fit Center 1032 is at   5.580420 -6.402821 -8.961825
      ESP Fit Center 1033 is at   6.411804 -7.006857 -8.961825
      ESP Fit Center 1034 is at   7.439452 -7.006857 -8.961825
      ESP Fit Center 1035 is at   8.270836 -6.402821 -8.961825
      ESP Fit Center 1036 is at   7.885628 -5.425470 -9.664594
      ESP Fit Center 1037 is at   7.405628 -4.594086 -9.664594
      ESP Fit Center 1038 is at   6.445628 -4.594086 -9.664594
      ESP Fit Center 1039 is at   5.965628 -5.425470 -9.664594
      ESP Fit Center 1040 is at   6.445628 -6.256854 -9.664594
      ESP Fit Center 1041 is at   7.405628 -6.256854 -9.664594
      ESP Fit Center 1042 is at   6.925628 -5.425470 -9.921825
      ESP Fit Center 1043 is at   8.221030 -3.020636 -6.028399
      ESP Fit Center 1044 is at   8.538591 -3.037987 -6.988399
      ESP Fit Center 1045 is at   7.835822 -2.335218 -6.988399
      ESP Fit Center 1046 is at   6.875822 -2.077987 -6.988399
      ESP Fit Center 1047 is at   5.915822 -2.335218 -6.988399
      ESP Fit Center 1048 is at   5.213053 -3.037987 -6.988399
[...]
 1397 Fit       0.003521
 1398 Fit       0.000802
 1399 Fit      -0.005593
 1400 Fit      -0.010780
 1401 Fit      -0.009987
 1402 Fit      -0.006459
 1403 Fit      -0.003817
 1404 Fit      -0.003991
 1405 Fit      -0.006359
 1406 Fit      -0.009232
 1407 Fit      -0.010920
 1408 Fit      -0.009460
 1409 Fit      -0.003546
 1410 Fit      -0.007268
 1411 Fit      -0.013322
 1412 Fit      -0.013321
 1413 Fit      -0.011203
 1414 Fit      -0.010152
 1415 Fit      -0.011172
 1416 Fit      -0.012960
 1417 Fit      -0.013051
 1418 Fit      -0.009177
 1419 Fit      -0.000454
 1420 Fit       0.003388
 1421 Fit      -0.008269
 1422 Fit      -0.012760
 1423 Fit      -0.012777
 1424 Fit      -0.012243
 1425 Fit      -0.012196
 1426 Fit      -0.010321
 1427 Fit      -0.003776
 1428 Fit       0.000267
 1429 Fit      -0.008210
 1430 Fit      -0.009378
 1431 Fit      -0.005838
 1432 Fit       0.003898
 1433 Fit       0.008844
 1434 Fit      -0.002095
 1435 Fit       0.004483
 1436 Fit       0.004116
 1437 Fit       0.007759
 1438 Fit       0.007558
 1439 Fit       0.008145
 1440 Fit       0.012184
 1441 Fit       0.012414
 1442 Fit       0.010907
 1443 Fit       0.016705
 1444 Fit       0.015525
 1445 Fit       0.014941
 1446 Fit       0.006030
 1447 Fit       0.009249
 1448 Fit       0.000691
 1449 Fit       0.007528
 1450 Fit       0.006985
 1451 Fit       0.001466
 1452 Fit       0.000098
 1453 Fit       0.003950
 1454 Fit       0.002971
 1455 Fit      -0.005064
 1456 Fit       0.008089
 1457 Fit       0.004384
 1458 Fit       0.006989
 1459 Fit       0.015928
 1460 Fit       0.009896
 1461 Fit       0.005967
 1462 Fit       0.011089
 1463 Fit       0.008824
 1464 Fit       0.001141
 1465 Fit       0.006245
 1466 Fit       0.010293
 1467 Fit       0.003037
 1468 Fit       0.005183
 1469 Fit      -0.006409
 1470 Fit      -0.010040
 1471 Fit      -0.000704
 1472 Fit       0.004644
 1473 Fit      -0.003247
 1474 Fit      -0.011814
 1475 Fit      -0.013191
 1476 Fit      -0.014413
 1477 Fit      -0.008030
 1478 Fit       0.002075
 1479 Fit      -0.010577
 1480 Fit      -0.015543
 1481 Fit      -0.015844
 1482 Fit      -0.015633
 1483 Fit      -0.015978
 1484 Fit      -0.017596
 1485 Fit      -0.013634
 1486 Fit      -0.004630
 1487 Fit      -0.007979
 1488 Fit      -0.014965
 1489 Fit      -0.015505
 1490 Fit      -0.013794
 1491 Fit      -0.013197
 1492 Fit      -0.014826
 1493 Fit      -0.017220
 1494 Fit      -0.016992
 1495 Fit      -0.015025
 1496 Fit      -0.008367
 1497 Fit      -0.005106
 1498 Fit      -0.011404
 1499 Fit      -0.011468
 1500 Fit      -0.008601
 1501 Fit      -0.006524
 1502 Fit      -0.007469
 1503 Fit      -0.011006
 1504 Fit      -0.015004
 1505 Fit      -0.010505
 1506 Fit      -0.005721
 1507 Fit       0.000101
 1508 Fit      -0.004319
 1509 Fit      -0.003118
 1510 Fit       0.001413
 1511 Fit      -0.003383
 1512 Fit      -0.007605
 1513 Fit       0.005129
 1514 Fit       0.008582
 1515 Fit       0.010256
 1516 Fit       0.000270
 1517 Fit       0.003426
 1518 Fit       0.004192
 1519 Fit       0.005725
 1520 Fit       0.007136
 1521 Fit       0.007998
 1522 Fit       0.007734
 1523 Fit       0.006620
 1524 Fit       0.008742
 1525 Fit       0.009479
 1526 Fit       0.009648
 1527 Fit       0.008950
 1528 Fit       0.010540
 1529 Fit       0.010780
 1530 Fit       0.006477
 1531 Fit       0.011771
 1532 Fit       0.007918
 1533 Fit       0.015858
 1534 Fit       0.017239
 1535 Fit       0.015325
 1536 Fit       0.012150
 1537 Fit       0.009876
 1538 Fit       0.013043
 1539 Fit       0.012509
 1540 Fit       0.011271
 1541 Fit       0.000674
 1542 Fit       0.002188
 1543 Fit       0.007975
 1544 Fit       0.002630
 1545 Fit       0.003474
 1546 Fit       0.013032
 1547 Fit       0.008490
 1548 Fit       0.005119
 1549 Fit       0.003646
 1550 Fit       0.003340
 1551 Fit       0.004217
 1552 Fit       0.007052
 1553 Fit      -0.000951
 1554 Fit      -0.002151
 1555 Fit      -0.002938
 1556 Fit       0.000714
 1557 Fit      -0.000379
 1558 Fit       0.002837
 1559 Fit       0.001918
 1560 Fit       0.001252
 1561 Fit       0.004055
 1562 Fit       0.003378
 1563 Fit       0.003535
 1564 Fit       0.002773
 1565 Fit       0.004841
 1566 Fit       0.004025
 1567 Fit       0.009957
 1568 Fit       0.004305
 1569 Fit       0.009895
 1570 Fit       0.010933
 1571 Fit       0.010583
 1572 Fit       0.009515
 1573 Fit       0.007567
 1574 Fit       0.005568
 1575 Fit       0.006366
 1576 Fit       0.005983
 1577 Fit       0.007159
 1578 Fit       0.009010
 1579 Fit       0.009335
 1580 Fit       0.007965
 1581 Fit       0.007970
 1582 Fit       0.001459
 1583 Fit       0.002663
 1584 Fit       0.005346
 1585 Fit       0.007688
 1586 Fit       0.008934
 1587 Fit       0.003801
 1588 Fit       0.005636
 1589 Fit       0.006884
 1590 Fit       0.008050
 1591 Fit       0.010726
 1592 Fit       0.004884
 1593 Fit       0.006161
 1594 Fit       0.005324
 1595 Fit       0.003586
 1596 Fit       0.003533
 1597 Fit       0.001223
 1598 Fit       0.001045
 1599 Fit       0.000971
 1600 Fit       0.001014
 1601 Fit      -0.000444
 1602 Fit      -0.000378
 1603 Fit      -0.001462
 1604 Fit      -0.001669
 1605 Fit      -0.003669
 1606 Fit      -0.007806
 1607 Fit      -0.016328
 1608 Fit       0.004181
 1609 Fit       0.003311
 1610 Fit       0.002553
 1611 Fit       0.001597
 1612 Fit       0.000910
 1613 Fit       0.001834
 1614 Fit       0.001758
 1615 Fit       0.000973
 1616 Fit      -0.000262
 1617 Fit      -0.003566
 1618 Fit      -0.000623
 1619 Fit      -0.000334
 1620 Fit      -0.001428
 1621 Fit      -0.008199
 1622 Fit      -0.004023
 1623 Fit      -0.005360
 1624 Fit      -0.011097
 1625 Fit       0.000951
 1626 Fit       0.001200
 1627 Fit       0.000968
 1628 Fit      -0.000278
 1629 Fit       0.000365
 1630 Fit       0.000222
 1631 Fit      -0.001164
 1632 Fit      -0.004873
 1633 Fit      -0.002852
 1634 Fit      -0.001560
 1635 Fit      -0.001307
 1636 Fit      -0.003004
 1637 Fit      -0.008645
 1638 Fit      -0.004871
 1639 Fit      -0.005560
 1640 Fit      -0.013326
 1641 Fit      -0.011368
 1642 Fit       0.007397
 1643 Fit       0.007777
 1644 Fit       0.006443
 1645 Fit       0.006173
 1646 Fit       0.006478
 1647 Fit       0.008019
 1648 Fit       0.009214
 1649 Fit       0.005579
 1650 Fit       0.004880
 1651 Fit       0.004779
 1652 Fit       0.004721
 1653 Fit       0.004709
 1654 Fit       0.005334
 1655 Fit       0.003146
 1656 Fit       0.002925
 1657 Fit       0.002928
 1658 Fit       0.002851
 1659 Fit       0.002699
 1660 Fit       0.002786
 1661 Fit       0.008672
 1662 Fit       0.008142
 1663 Fit       0.007629
 1664 Fit       0.004503
 1665 Fit      -0.000784
 1666 Fit       0.008537
 1667 Fit       0.008616
 1668 Fit       0.008502
 1669 Fit       0.008191
 1670 Fit       0.009541
 1671 Fit       0.008371
 1672 Fit       0.007739
 1673 Fit       0.008027
 1674 Fit       0.009613
 1675 Fit       0.008411
 1676 Fit       0.006763
 1677 Fit       0.007131
 1678 Fit       0.007939
 1679 Fit       0.007070
 1680 Fit       0.006788
 1681 Fit       0.007344
 1682 Fit       0.006119
 1683 Fit       0.005747
 1684 Fit       0.005815
 1685 Fit       0.006303
 1686 Fit       0.007194
 1687 Fit       0.004057
 1688 Fit       0.004039
 1689 Fit       0.004445
 1690 Fit       0.001337
 1691 Fit       0.001097
 1692 Fit       0.001804
 1693 Fit      -0.008754
 1694 Fit      -0.012950
 1695 Fit      -0.014994
 1696 Fit      -0.017492
 1697 Fit      -0.018359
 1698 Fit      -0.018098
 1699 Fit      -0.016961
 1700 Fit      -0.015930
 1701 Fit      -0.018918
 1702 Fit      -0.016778
 1703 Fit      -0.013705
 1704 Fit      -0.001269
 1705 Fit      -0.005121
 1706 Fit      -0.001866
 1707 Fit      -0.006462
 1708 Fit      -0.004535
 1709 Fit      -0.006151
 1710 Fit      -0.002106
 1711 Fit      -0.001473
 1712 Fit      -0.003816
 1713 Fit      -0.008078
 1714 Fit      -0.002654
 1715 Fit      -0.000777
 1716 Fit      -0.001502
 1717 Fit      -0.003673
 1718 Fit       0.001204
 1719 Fit      -0.003169
 1720 Fit      -0.006808
 1721 Fit      -0.003036
 1722 Fit      -0.000404
 1723 Fit       0.000155
 1724 Fit      -0.001164
 1725 Fit       0.006545
 1726 Fit       0.005315
 1727 Fit       0.004099
 1728 Fit       0.001897
 1729 Fit       0.005107
 1730 Fit       0.002708
 1731 Fit      -0.000670
 1732 Fit      -0.005999
 1733 Fit       0.002067
 1734 Fit       0.000401
 1735 Fit      -0.003460
 1736 Fit      -0.001451
 1737 Fit       0.002122
 1738 Fit       0.001252
 1739 Fit      -0.002753
 1740 Fit       0.005196
 1741 Fit       0.004126
 1742 Fit       0.000354
 1743 Fit       0.002570
 1744 Fit      -0.003434
 1745 Fit       0.003955
 1746 Fit      -0.001014
 1747 Fit      -0.000498
 1748 Fit       0.003427
 1749 Fit       0.004279
 1750 Fit       0.008512
 1751 Fit       0.008041
 1752 Fit       0.009854
 1753 Fit       0.005176
 1754 Fit       0.005062
 1755 Fit       0.008864
 1756 Fit       0.009568
 1757 Fit       0.008697
 1758 Fit       0.007712
 1759 Fit       0.007712
 1760 Fit       0.006251
 1761 Fit      -0.001854
 1762 Fit      -0.007462
 1763 Fit      -0.011267
 1764 Fit      -0.013296
 1765 Fit      -0.008228
 1766 Fit      -0.013797
 1767 Fit      -0.010628
 1768 Fit      -0.011347
 1769 Fit      -0.006876
 1770 Fit       0.002775
 1771 Fit       0.004762
 1772 Fit       0.004363
 1773 Fit      -0.001772
 1774 Fit       0.005172
 1775 Fit       0.003353
 1776 Fit       0.003239
 1777 Fit       0.002795
 1778 Fit       0.005085
 1779 Fit       0.001385
 1780 Fit       0.004539
 1781 Fit       0.006347
 1782 Fit      -0.001799
 1783 Fit       0.003375
 1784 Fit       0.006061
 1785 Fit       0.007148
 1786 Fit      -0.002793
 1787 Fit       0.003495
 1788 Fit      -0.002349
 1789 Fit       0.005248
 1790 Fit       0.005428
 1791 Fit       0.005431
 1792 Fit       0.006885
 1793 Fit       0.004065
 1794 Fit       0.005080
 1795 Fit       0.007289
 1796 Fit      -0.001099
 1797 Fit       0.001001
 1798 Fit       0.004410
 1799 Fit       0.007494
 1800 Fit       0.001174
 1801 Fit       0.006216
 1802 Fit      -0.001476
 1803 Fit       0.001845
 1804 Fit       0.003563
 1805 Fit      -0.001214
 1806 Fit       0.003621
 1807 Fit       0.004706
 1808 Fit       0.002245
 1809 Fit      -0.001842
 1810 Fit       0.005184
 1811 Fit      -0.002326
 1812 Fit       0.003463
 1813 Fit      -0.005234
 1814 Fit       0.001119
 1815 Fit       0.004186
 1816 Fit       0.004865
 1817 Fit       0.004178
 1818 Fit       0.001003
 1819 Fit       0.003425
 1820 Fit       0.003601
 1821 Fit       0.002051
 1822 Fit       0.000522
 1823 Fit       0.006186
 1824 Fit      -0.003305
 1825 Fit      -0.000362
 1826 Fit       0.003638
 1827 Fit       0.007335
 1828 Fit       0.002312
 1829 Fit       0.002852
 1830 Fit       0.005205
 1831 Fit       0.008506
 1832 Fit       0.004145
 1833 Fit       0.006081
 1834 Fit       0.004710
 1835 Fit      -0.005220
 1836 Fit      -0.010139
 1837 Fit      -0.007721
 1838 Fit      -0.011198
 1839 Fit      -0.011716
 1840 Fit      -0.006132
 1841 Fit      -0.011198
 1842 Fit      -0.010578
 1843 Fit      -0.009763
 1844 Fit      -0.006095
 1845 Fit      -0.000766
 1846 Fit       0.007094
 1847 Fit       0.005553
 1848 Fit       0.008715
 1849 Fit       0.007426
 1850 Fit       0.006905
 1851 Fit       0.008815
 1852 Fit       0.008955
 1853 Fit       0.007104
 1854 Fit       0.005333
 1855 Fit       0.007711
 1856 Fit       0.007397
 1857 Fit       0.005916
 1858 Fit       0.007625
 1859 Fit       0.005642
 1860 Fit       0.002640
 1861 Fit       0.004900
 1862 Fit      -0.000114
 1863 Fit       0.003587
 1864 Fit      -0.002207
 1865 Fit       0.004479
 1866 Fit       0.002012
 1867 Fit      -0.000564
 1868 Fit       0.005226
 1869 Fit       0.003458
 1870 Fit       0.004662
 1871 Fit       0.004775
 1872 Fit       0.006759
 1873 Fit       0.000579
 1874 Fit       0.003235
 1875 Fit       0.003126
 1876 Fit       0.000804
 1877 Fit       0.001567
 1878 Fit       0.002089
 1879 Fit      -0.000845
 1880 Fit       0.002073
 1881 Fit      -0.003398
 1882 Fit       0.007475
 1883 Fit       0.004777
 1884 Fit      -0.000141
 1885 Fit       0.006289
 1886 Fit       0.000330
 1887 Fit       0.006093
 1888 Fit       0.009443
 1889 Fit      -0.004349
 1890 Fit      -0.006809
 1891 Fit      -0.001155
 1892 Fit       0.001923
 1893 Fit      -0.002171
 1894 Fit      -0.007714
 1895 Fit      -0.008953
 1896 Fit      -0.009475
 1897 Fit      -0.005352
 1898 Fit      -0.006558
 1899 Fit      -0.010384
 1900 Fit      -0.011169
 1901 Fit      -0.011098
 1902 Fit      -0.010908
 1903 Fit      -0.011224
 1904 Fit      -0.008491
 1905 Fit      -0.002810
 1906 Fit      -0.004615
 1907 Fit      -0.010057
 1908 Fit      -0.011287
 1909 Fit      -0.010712
 1910 Fit      -0.010317
 1911 Fit      -0.010807
 1912 Fit      -0.011555
 1913 Fit      -0.010390
 1914 Fit      -0.009205
 1915 Fit      -0.005425
 1916 Fit      -0.005623
 1917 Fit      -0.009037
 1918 Fit      -0.008976
 1919 Fit      -0.007562
 1920 Fit      -0.006676
 1921 Fit      -0.007047
 1922 Fit      -0.008289
 1923 Fit      -0.009699
 1924 Fit      -0.004943
 1925 Fit      -0.005747
 1926 Fit      -0.004045
 1927 Fit      -0.000037
 1928 Fit      -0.001682
 1929 Fit      -0.004726
 1930 Fit      -0.004333
 1931 Fit      -0.002175
 1932 Fit      -0.000466
 1933 Fit      -0.000419
 1934 Fit      -0.001297
 1935 Fit      -0.002174
 1936 Fit      -0.003332
 1937 Fit       0.002997
 1938 Fit       0.001352
 1939 Fit       0.004263
 1940 Fit       0.005800
 1941 Fit       0.006369
 1942 Fit       0.007013
 1943 Fit       0.010760
 1944 Fit       0.006938
 1945 Fit       0.008977
 1946 Fit       0.007155
 1947 Fit       0.007371
 1948 Fit       0.006713
 1949 Fit       0.005167
 1950 Fit       0.004478
 1951 Fit       0.004579
 1952 Fit       0.002906
 1953 Fit       0.000815
 1954 Fit       0.002133
 1955 Fit       0.003952
 1956 Fit       0.001361
 1957 Fit       0.002494
 1958 Fit       0.000039
 1959 Fit       0.004284
 1960 Fit       0.008093
 1961 Fit       0.004820
 1962 Fit       0.003525
 1963 Fit       0.005040
 1964 Fit       0.002755
 1965 Fit       0.005784
 1966 Fit       0.008229
 1967 Fit       0.003923
 1968 Fit       0.006112
 1969 Fit       0.007606
 1970 Fit       0.008464
 1971 Fit       0.002906
 1972 Fit       0.000126
 1973 Fit       0.008232
 1974 Fit      -0.004785
 1975 Fit      -0.005144
 1976 Fit      -0.003026
 1977 Fit      -0.000348
 1978 Fit       0.000960
 1979 Fit       0.000467
 1980 Fit      -0.000750
 1981 Fit      -0.001822
 1982 Fit      -0.002919
 1983 Fit      -0.003861
 1984 Fit      -0.003045
 1985 Fit       0.000589
 1986 Fit      -0.007953
 1987 Fit      -0.008855
 1988 Fit      -0.007409
 1989 Fit      -0.005738
 1990 Fit      -0.005266
 1991 Fit      -0.006115
 1992 Fit      -0.007525
 1993 Fit      -0.008529
 1994 Fit      -0.008022
 1995 Fit      -0.004947
 1996 Fit       0.000864
 1997 Fit      -0.003779
 1998 Fit      -0.009187
 1999 Fit      -0.010167
 2000 Fit      -0.009352
 2001 Fit      -0.008792
 2002 Fit      -0.009175
 2003 Fit      -0.009757
 2004 Fit      -0.009048
 2005 Fit      -0.005615
 2006 Fit       0.001256
 2007 Fit       0.004035
 2008 Fit      -0.004766
 2009 Fit      -0.008785
 2010 Fit      -0.009493
 2011 Fit      -0.009284
 2012 Fit      -0.008855
 2013 Fit      -0.006906
 2014 Fit      -0.001761
 2015 Fit       0.001172
 2016 Fit      -0.005382
 2017 Fit      -0.006614
 2018 Fit      -0.003808
 2019 Fit       0.003414
 2020 Fit       0.007227
 2021 Fit      -0.001023
 2022 Fit       0.004875
 2023 Fit       0.005383
 2024 Fit       0.006044
 2025 Fit       0.008320
 2026 Fit       0.007562
 2027 Fit       0.011412
 2028 Fit       0.009550
 2029 Fit       0.013341
 2030 Fit       0.005662
 2031 Fit       0.008527
 2032 Fit       0.001115
 2033 Fit       0.008133
 2034 Fit       0.005138
 2035 Fit      -0.001825
 2036 Fit       0.005423
 2037 Fit       0.004392
 2038 Fit      -0.001275
 2039 Fit       0.002667
 2040 Fit       0.001888
 2041 Fit       0.001794
 2042 Fit       0.002124
 2043 Fit       0.004032
 2044 Fit       0.003192
 2045 Fit      -0.002232
 2046 Fit       0.004323
 2047 Fit       0.006742
 2048 Fit       0.004146
 2049 Fit       0.000860
 2050 Fit       0.005016
 2051 Fit       0.002322
 2052 Fit       0.004992
 2053 Fit      -0.005535
 2054 Fit      -0.008078
 2055 Fit      -0.001520
 2056 Fit       0.002345
 2057 Fit      -0.002742
 2058 Fit      -0.009077
 2059 Fit      -0.010437
 2060 Fit      -0.010915
 2061 Fit      -0.006084
 2062 Fit       0.002260
 2063 Fit      -0.007273
 2064 Fit      -0.011605
 2065 Fit      -0.012517
 2066 Fit      -0.012584
 2067 Fit      -0.012518
 2068 Fit      -0.013195
 2069 Fit      -0.009817
 2070 Fit      -0.002906
 2071 Fit      -0.004666
 2072 Fit      -0.010914
 2073 Fit      -0.012329
 2074 Fit      -0.011839
 2075 Fit      -0.011651
 2076 Fit      -0.012527
 2077 Fit      -0.013611
 2078 Fit      -0.013523
 2079 Fit      -0.011597
 2080 Fit      -0.006663
 2081 Fit      -0.006098
 2082 Fit      -0.009835
 2083 Fit      -0.009877
 2084 Fit      -0.008518
 2085 Fit      -0.007781
 2086 Fit      -0.008648
 2087 Fit      -0.010756
 2088 Fit      -0.012864
 2089 Fit      -0.010540
 2090 Fit      -0.009991
 2091 Fit      -0.006831
 2092 Fit      -0.001280
 2093 Fit      -0.002497
 2094 Fit      -0.005498
 2095 Fit      -0.005299
 2096 Fit      -0.003339
 2097 Fit      -0.001703
 2098 Fit      -0.001932
 2099 Fit      -0.003979
 2100 Fit      -0.006800
 2101 Fit      -0.009254
 2102 Fit       0.002594
 2103 Fit       0.000589
 2104 Fit       0.000271
 2105 Fit       0.002251
 2106 Fit       0.009506
 2107 Fit       0.009820
 2108 Fit       0.003146
 2109 Fit       0.004495
 2110 Fit       0.005061
 2111 Fit       0.004599
 2112 Fit       0.003206
 2113 Fit       0.006397
 2114 Fit       0.007027
 2115 Fit       0.007330
 2116 Fit       0.007014
 2117 Fit       0.006348
 2118 Fit       0.008232
 2119 Fit       0.008443
 2120 Fit       0.008507
 2121 Fit       0.006889
 2122 Fit       0.012461
 2123 Fit       0.009233
 2124 Fit       0.007491
 2125 Fit       0.013341
 2126 Fit       0.012422
 2127 Fit       0.010565
 2128 Fit       0.009198
 2129 Fit       0.011284
 2130 Fit       0.010941
 2131 Fit       0.010399
 2132 Fit      -0.001501
 2133 Fit       0.001051
 2134 Fit       0.002290
 2135 Fit       0.006064
 2136 Fit       0.003039
 2137 Fit       0.002630
 2138 Fit       0.003063
 2139 Fit       0.008991
 2140 Fit       0.004751
 2141 Fit       0.003636
 2142 Fit       0.003830
 2143 Fit       0.003469
 2144 Fit       0.003995
 2145 Fit       0.005039
 2146 Fit       0.006349
 2147 Fit      -0.003810
 2148 Fit      -0.004707
 2149 Fit      -0.003471
 2150 Fit       0.000876
 2151 Fit       0.000249
 2152 Fit      -0.000100
 2153 Fit       0.004387
 2154 Fit       0.002011
 2155 Fit       0.001341
 2156 Fit       0.002628
 2157 Fit       0.002069
 2158 Fit       0.003727
 2159 Fit       0.003087
 2160 Fit       0.003069
 2161 Fit       0.003590
 2162 Fit       0.009575
 2163 Fit       0.007723
 2164 Fit       0.005587
 2165 Fit       0.004387
 2166 Fit       0.006750
 2167 Fit       0.008513
 2168 Fit       0.009324
 2169 Fit       0.009096
 2170 Fit       0.008253
 2171 Fit       0.006837
 2172 Fit       0.005376
 2173 Fit       0.005785
 2174 Fit       0.005545
 2175 Fit       0.006476
 2176 Fit       0.007818
 2177 Fit       0.008009
 2178 Fit       0.006963
 2179 Fit       0.006926
 2180 Fit       0.003939
 2181 Fit       0.006450
 2182 Fit       0.004080
 2183 Fit       0.005344
 2184 Fit       0.005775
 2185 Fit       0.006720
 2186 Fit       0.011221
 2187 Fit       0.004613
 2188 Fit       0.005435
 2189 Fit       0.006444
 2190 Fit       0.005496
 Job cpu time:       0 days  0 hours  4 minutes 28.4 seconds.
 Normal termination of Gaussian 16 at Sat Jul  8 20:55:19 2023.
