 Copyright (c) 1988-2019, Gaussian, Inc.  All Rights Reserved.
  
 This is part of the Gaussian(R) 16 program.  It is based on
 the Gaussian(R) 09 system (copyright 2009, Gaussian, Inc.),
 the Gaussian(R) 03 system (copyright 2003, Gaussian, Inc.),
 the Gaussian(R) 98 system (copyright 1998, Gaussian, Inc.),
 the Gaussian(R) 94 system (copyright 1995, Gaussian, Inc.),
 the Gaussian 92(TM) system (copyright 1992, Gaussian, Inc.),
 the Gaussian 90(TM) system (copyright 1990, Gaussian, Inc.),
 the Gaussian 88(TM) system (copyright 1988, Gaussian, Inc.),
 the Gaussian 86(TM) system (copyright 1986, Carnegie Mellon
 University), and the Gaussian 82(TM) system (copyright 1983,
 Carnegie Mellon University). Gaussian is a federally registered
 trademark of Gaussian, Inc.
 Cite this work as:
 Gaussian 16, Revision C.01,
 M. J. Frisch, G. W. Trucks, H. B. Schlegel, G. E. Scuseria, 
 M. A. Robb, J. R. Cheeseman, G. Scalmani, V. Barone, 
 G. A. Petersson, H. Nakatsuji, X. Li, M. Caricato, A. V. Marenich, 
 J. Bloino, B. G. Janesko, R. Gomperts, B. Mennucci, H. P. Hratchian, 
 J. V. Ortiz, A. F. Izmaylov, J. L. Sonnenberg, D. Williams-Young, 
 F. Ding, F. Lipparini, F. Egidi, J. Goings, B. Peng, A. Petrone, 
 T. Henderson, D. Ranasinghe, V. G. Zakrzewski, J. Gao, N. Rega, 
 G. Zheng, W. Liang, M. Hada, M. Ehara, K. Toyota, R. Fukuda, 
 J. Hasegawa, M. Ishida, T. Nakajima, Y. Honda, O. Kitao, H. Nakai, 
 T. Vreven, K. Throssell, J. A. Montgomery, Jr., J. E. Peralta, 
 F. Ogliaro, M. J. Bearpark, J. J. Heyd, E. N. Brothers, K. N. Kudin, 
 V. N. Staroverov, T. A. Keith, R. Kobayashi, J. Normand, 
 K. Raghavachari, A. P. Rendell, J. C. Burant, S. S. Iyengar, 
 J. Tomasi, M. Cossi, J. M. Millam, M. Klene, C. Adamo, R. Cammi, 
 J. W. Ochterski, R. L. Martin, K. Morokuma, O. Farkas, 
 J. B. Foresman, and D. J. Fox, Gaussian, Inc., Wallingford CT, 2019.
 
 ******************************************
 Gaussian 16:  EM64L-G16RevC.01  3-Jul-2019
                 8-Jul-2023 
 ******************************************
 ----------------------------------------------------------------------
 #P HF/6-31G(d) SCF(Conver=8,XQC,MaxConventionalCycles=64,MaxCycle=128)
  NoSymm Test Pop=mk IOp(6/33=2) GFInput GFPrint
 ----------------------------------------------------------------------
 1/38=1,172=1/1;
 2/12=2,15=1,17=6,18=5,40=1/2;
 3/5=1,6=6,7=1,11=9,24=110,25=1,30=1/1,2,3;
 4//1;
 5/5=2,6=8,7=128,8=3,13=1,38=5,85=64/2,8;
 6/7=2,8=2,9=2,10=2,15=8,20=1,28=1,33=2/1,2;
 99/5=1,9=1/99;
 -------------------------------------------------
 MEP step - Input generated by PyRED DVE-DMDS-OPLS
 -------------------------------------------------
 Symbolic Z-matrix:
 Charge =  0 Multiplicity = 1
 C                    -2.35911   2.0848   -7.63521 
 H                    -1.69351   1.35876  -8.09093 
 H                    -3.33242   1.98903  -8.10747 
 H                    -1.97081   3.0753   -7.84366 
 C                    -2.47434   1.87326  -6.13282 
 H                    -3.15132   2.60386  -5.70782 
 H                    -2.88491   0.8893   -5.91689 
 O                    -1.24335   2.05023  -5.48177 
 C                    -0.41349   0.92552  -5.39004 
 H                     0.60903   1.28175  -5.40445 
 H                    -0.55083   0.27205  -6.24916 
 C                    -0.63269   0.12136  -4.11756 
 H                    -1.6875   -0.1197   -3.99773 
 H                    -0.08853  -0.8128   -4.20578 
 O                    -0.14124   0.74656  -2.96786 
 C                    -0.94608   1.74197  -2.38732 
 H                    -1.95898   1.37137  -2.24333 
 H                    -0.99238   2.61173  -3.03167 
 C                    -0.35767   2.14721  -1.05001 
 H                    -0.81919   3.07729  -0.7426 
 H                     0.70486   2.33077  -1.16447 
 O                    -0.61282   1.25507   0. 
 C                     0.        0.        0. 
 H                    -0.32401  -0.59092  -0.84918 
 H                    -0.36543  -0.48928   0.89383 
 C                     1.52758   0.        0. 
 H                     1.9069    0.33733  -0.95573 
 H                     1.85787  -1.02581   0.12404 
 S                     2.36953   1.04797   1.22544 
 C                     1.68319   0.4682    2.81138 
 H                     1.39316  -0.57023   2.7165 
 H                     2.50111   0.5014    3.51937 
 C                     0.51161   1.31573   3.30628 
 H                    -0.29312   1.30848   2.58577 
 H                     0.8167    2.34808   3.41791 
 S                    -0.20891   0.71371   4.86724 
 C                     0.96746   1.32758   6.11498 
 H                     1.9792    1.1344    5.78363 
 H                     0.80358   0.71995   6.99511 
 C                     0.76708   2.80104   6.46415 
 H                     0.85353   3.43021   5.58846 
 H                    -0.22967   2.94777   6.85883 
 S                     1.89684   3.40201   7.75872 
 C                     3.44981   3.6718    6.84696 
 H                     4.205     3.7615    7.61869 
 H                     3.69321   2.78348   6.27645 
 C                     3.46328   4.91117   5.95688 
 H                     2.72058   4.85094   5.16904 
 H                     3.2643    5.80484   6.53658 
 H                     4.43544   5.01847   5.48396 
 
 ITRead=  0  0  0  0  0  0  0  0  0  0  0  0  0  0  0  0  0  0  0  0
 ITRead=  0  0  0  0  0  0  0  0  0  0  0  0  0  0  0  0  0  0  0  0
 ITRead=  0  0  0  0  0  0  0  0  0  0
 MicOpt= -1 -1 -1 -1 -1 -1 -1 -1 -1 -1 -1 -1 -1 -1 -1 -1 -1 -1 -1 -1
 MicOpt= -1 -1 -1 -1 -1 -1 -1 -1 -1 -1 -1 -1 -1 -1 -1 -1 -1 -1 -1 -1
 MicOpt= -1 -1 -1 -1 -1 -1 -1 -1 -1 -1
 NAtoms=     50 NQM=       50 NQMF=       0 NMMI=      0 NMMIF=      0
                NMic=       0 NMicF=      0.
                          Input orientation:                          
 ---------------------------------------------------------------------
 Center     Atomic      Atomic             Coordinates (Angstroms)
 Number     Number       Type             X           Y           Z
 ---------------------------------------------------------------------
      1          6           0       -2.359111    2.084796   -7.635213
      2          1           0       -1.693510    1.358755   -8.090931
      3          1           0       -3.332415    1.989031   -8.107466
      4          1           0       -1.970808    3.075302   -7.843655
      5          6           0       -2.474341    1.873255   -6.132816
      6          1           0       -3.151318    2.603863   -5.707816
      7          1           0       -2.884908    0.889299   -5.916889
      8          8           0       -1.243351    2.050226   -5.481771
      9          6           0       -0.413493    0.925518   -5.390041
     10          1           0        0.609033    1.281754   -5.404448
     11          1           0       -0.550827    0.272053   -6.249155
     12          6           0       -0.632686    0.121363   -4.117560
     13          1           0       -1.687495   -0.119702   -3.997731
     14          1           0       -0.088529   -0.812795   -4.205784
     15          8           0       -0.141236    0.746560   -2.967862
     16          6           0       -0.946081    1.741970   -2.387316
     17          1           0       -1.958976    1.371366   -2.243331
     18          1           0       -0.992382    2.611728   -3.031672
     19          6           0       -0.357671    2.147214   -1.050014
     20          1           0       -0.819190    3.077288   -0.742596
     21          1           0        0.704864    2.330767   -1.164470
     22          8           0       -0.612817    1.255066    0.000000
     23          6           0        0.000000    0.000000    0.000000
     24          1           0       -0.324011   -0.590922   -0.849183
     25          1           0       -0.365427   -0.489283    0.893831
     26          6           0        1.527580    0.000000    0.000000
     27          1           0        1.906899    0.337331   -0.955733
     28          1           0        1.857871   -1.025812    0.124042
     29         16           0        2.369528    1.047966    1.225439
     30          6           0        1.683185    0.468198    2.811384
     31          1           0        1.393157   -0.570233    2.716499
     32          1           0        2.501106    0.501397    3.519374
     33          6           0        0.511611    1.315733    3.306275
     34          1           0       -0.293119    1.308475    2.585767
     35          1           0        0.816701    2.348078    3.417909
     36         16           0       -0.208912    0.713710    4.867241
     37          6           0        0.967460    1.327580    6.114982
     38          1           0        1.979203    1.134396    5.783625
     39          1           0        0.803578    0.719948    6.995114
     40          6           0        0.767075    2.801041    6.464149
     41          1           0        0.853525    3.430211    5.588457
     42          1           0       -0.229672    2.947769    6.858834
     43         16           0        1.896844    3.402007    7.758721
     44          6           0        3.449814    3.671800    6.846963
     45          1           0        4.204999    3.761500    7.618686
     46          1           0        3.693213    2.783476    6.276447
     47          6           0        3.463279    4.911174    5.956881
     48          1           0        2.720575    4.850938    5.169038
     49          1           0        3.264298    5.804840    6.536581
     50          1           0        4.435442    5.018472    5.483964
 ---------------------------------------------------------------------
 Stoichiometry    C14H30O3S3
 Framework group  C1[X(C14H30O3S3)]
 Standard basis: 6-31G(d) (6D, 7F)
   372 basis functions,   752 primitive gaussians,   372 cartesian basis functions
    93 alpha electrons       93 beta electrons
 Requested convergence on RMS density matrix=1.00D-08 within  64 cycles.
 Requested convergence on MAX density matrix=1.00D-06.
 Requested convergence on             energy=1.00D-06.
 SCF Done:  E(RHF) =  -1964.68810978     A.U. after   13 cycles
            NFock= 13  Conv=0.59D-08     -V/T= 2.0006
 Mulliken charges:
     1  C   -0.493893
     2  H    0.161682
     3  H    0.158671
     4  H    0.178192
     5  C    0.004737
     6  H    0.172553
     7  H    0.138190
     8  O   -0.627828
     9  C   -0.011058
    10  H    0.184786
    11  H    0.141194
    12  C    0.000823
    13  H    0.145659
    14  H    0.167018
    15  O   -0.641990
    16  C   -0.014715
    17  H    0.148694
    18  H    0.181132
    19  C   -0.003204
    20  H    0.175522
    21  H    0.167298
    22  O   -0.631750
    23  C    0.023928
    24  H    0.176232
    25  H    0.165642
    26  C   -0.518549
    27  H    0.217301
    28  H    0.191441
    29  S    0.115242
    30  C   -0.477904
    31  H    0.203860
    32  H    0.196906
    33  C   -0.482926
    34  H    0.243461
    35  H    0.197478
    36  S    0.108411
    37  C   -0.472863
    38  H    0.192045
    39  H    0.216014
    40  C   -0.474191
    41  H    0.197464
    42  H    0.216352
    43  S    0.111956
    44  C   -0.475412
    45  H    0.200639
    46  H    0.186435
    47  C   -0.473551
    48  H    0.163814
    49  H    0.180815
    50  H    0.168247
 Sum of Mulliken charges =  -0.00000
 Dipole moment (field-independent basis, Debye):
    X=             -0.4696    Y=             -1.4407    Z=             -5.0144  Tot=              5.2383
 Quadrupole moment (field-independent basis, Debye-Ang):
   XX=           -145.0727   YY=           -150.2250   ZZ=           -154.7448
   XY=              0.3581   XZ=             15.0716   YZ=             -1.6287
 Traceless Quadrupole moment (field-independent basis, Debye-Ang):
   XX=              4.9415   YY=             -0.2108   ZZ=             -4.7306
   XY=              0.3581   XZ=             15.0716   YZ=             -1.6287
 Octapole moment (field-independent basis, Debye-Ang**2):
  XXX=           -239.8798  YYY=           -748.7202  ZZZ=           -843.0553  XYY=            -69.5767
  XXY=           -222.8672  XXZ=           -164.3154  XZZ=           -100.5499  YZZ=           -326.9380
  YYZ=           -184.0806  XYZ=             29.0680
 Hexadecapole moment (field-independent basis, Debye-Ang**3):
 XXXX=          -2842.1939 YYYY=          -4275.7695 ZZZZ=         -23381.8279 XXXY=           -690.1806
 XXXZ=          -2639.2499 YYYX=           -723.1196 YYYZ=          -2082.4939 ZZZX=          -2721.1538
 ZZZY=          -2728.8050 XXYY=          -1083.7357 XXZZ=          -3697.5075 YYZZ=          -4680.1079
 XXYZ=           -555.0203 YYXZ=           -869.7637 ZZXY=           -242.5121
 Merz-Kollman atomic radii used.
 Atom Element Radius
    1     6    1.50
    2     1    1.20
    3     1    1.20
    4     1    1.20
    5     6    1.50
    6     1    1.20
    7     1    1.20
    8     8    1.40
    9     6    1.50
   10     1    1.20
   11     1    1.20
   12     6    1.50
   13     1    1.20
   14     1    1.20
   15     8    1.40
   16     6    1.50
   17     1    1.20
   18     1    1.20
   19     6    1.50
   20     1    1.20
   21     1    1.20
   22     8    1.40
   23     6    1.50
   24     1    1.20
   25     1    1.20
   26     6    1.50
   27     1    1.20
   28     1    1.20
   29    16    1.75
   30     6    1.50
   31     1    1.20
   32     1    1.20
   33     6    1.50
   34     1    1.20
   35     1    1.20
   36    16    1.75
   37     6    1.50
   38     1    1.20
   39     1    1.20
   40     6    1.50
   41     1    1.20
   42     1    1.20
   43    16    1.75
   44     6    1.50
   45     1    1.20
   46     1    1.20
   47     6    1.50
   48     1    1.20
   49     1    1.20
   50     1    1.20
 Generate VDW surfaces: Layer= 4 Dens= 1 Start= 1.400 Inc= 0.200
            Electrostatic Properties Using The SCF Density.


       Atomic Center    1 is at  -2.359111  2.084796 -7.635213
       Atomic Center    2 is at  -1.693510  1.358755 -8.090931
       Atomic Center    3 is at  -3.332415  1.989031 -8.107466
       Atomic Center    4 is at  -1.970808  3.075302 -7.843655
       Atomic Center    5 is at  -2.474341  1.873255 -6.132816
       Atomic Center    6 is at  -3.151318  2.603863 -5.707816
       Atomic Center    7 is at  -2.884908  0.889299 -5.916889
       Atomic Center    8 is at  -1.243351  2.050226 -5.481771
       Atomic Center    9 is at  -0.413493  0.925518 -5.390041
       Atomic Center   10 is at   0.609033  1.281754 -5.404448
       Atomic Center   11 is at  -0.550827  0.272053 -6.249155
       Atomic Center   12 is at  -0.632686  0.121363 -4.117560
       Atomic Center   13 is at  -1.687495 -0.119702 -3.997731
       Atomic Center   14 is at  -0.088529 -0.812795 -4.205784
       Atomic Center   15 is at  -0.141236  0.746560 -2.967862
       Atomic Center   16 is at  -0.946081  1.741970 -2.387316
       Atomic Center   17 is at  -1.958976  1.371366 -2.243331
       Atomic Center   18 is at  -0.992382  2.611728 -3.031672
       Atomic Center   19 is at  -0.357671  2.147214 -1.050014
       Atomic Center   20 is at  -0.819190  3.077288 -0.742596
       Atomic Center   21 is at   0.704864  2.330767 -1.164470
       Atomic Center   22 is at  -0.612817  1.255066  0.000000
       Atomic Center   23 is at   0.000000  0.000000  0.000000
       Atomic Center   24 is at  -0.324011 -0.590922 -0.849183
       Atomic Center   25 is at  -0.365427 -0.489283  0.893831
       Atomic Center   26 is at   1.527580  0.000000  0.000000
       Atomic Center   27 is at   1.906899  0.337331 -0.955733
       Atomic Center   28 is at   1.857871 -1.025812  0.124042
       Atomic Center   29 is at   2.369528  1.047966  1.225439
       Atomic Center   30 is at   1.683185  0.468198  2.811384
       Atomic Center   31 is at   1.393157 -0.570233  2.716499
       Atomic Center   32 is at   2.501106  0.501397  3.519374
       Atomic Center   33 is at   0.511611  1.315733  3.306275
       Atomic Center   34 is at  -0.293119  1.308475  2.585767
       Atomic Center   35 is at   0.816701  2.348078  3.417909
       Atomic Center   36 is at  -0.208912  0.713710  4.867241
       Atomic Center   37 is at   0.967460  1.327580  6.114982
       Atomic Center   38 is at   1.979203  1.134396  5.783625
       Atomic Center   39 is at   0.803578  0.719948  6.995114
       Atomic Center   40 is at   0.767075  2.801041  6.464149
       Atomic Center   41 is at   0.853525  3.430211  5.588457
       Atomic Center   42 is at  -0.229672  2.947769  6.858834
       Atomic Center   43 is at   1.896844  3.402007  7.758721
       Atomic Center   44 is at   3.449814  3.671800  6.846963
       Atomic Center   45 is at   4.204999  3.761500  7.618686
       Atomic Center   46 is at   3.693213  2.783476  6.276447
       Atomic Center   47 is at   3.463279  4.911174  5.956881
       Atomic Center   48 is at   2.720575  4.850938  5.169038
       Atomic Center   49 is at   3.264298  5.804840  6.536581
       Atomic Center   50 is at   4.435442  5.018472  5.483964
      ESP Fit Center   51 is at  -3.103781  0.121262 -7.635213
      ESP Fit Center   52 is at  -2.884111  2.994123 -9.453866
      ESP Fit Center   53 is at  -2.359111  2.084796 -9.735213
      ESP Fit Center   54 is at  -0.095735  1.358755 -7.571782
      ESP Fit Center   55 is at  -2.492397 -0.024959 -7.571782
      ESP Fit Center   56 is at  -0.095735  1.358755 -8.610080
      ESP Fit Center   57 is at  -0.469543  2.385785 -8.610080
      ESP Fit Center   58 is at  -2.492397 -0.024959 -8.610080
      ESP Fit Center   59 is at  -1.416059 -0.214746 -8.610080
      ESP Fit Center   60 is at  -0.469543  0.331725 -8.610080
      ESP Fit Center   61 is at  -0.706031  1.358755 -9.450080
      ESP Fit Center   62 is at  -2.492397  0.778329 -9.450080
      ESP Fit Center   63 is at  -1.388362  0.419606 -9.450080
      ESP Fit Center   64 is at  -1.693510  1.358755 -9.770931
      ESP Fit Center   65 is at  -4.131302  3.372745 -7.588317
      ESP Fit Center   66 is at  -4.833832  2.535502 -7.588317
      ESP Fit Center   67 is at  -4.833832  1.442560 -7.588317
      ESP Fit Center   68 is at  -4.131302  0.605317 -7.588317
      ESP Fit Center   69 is at  -4.131302  3.372745 -8.626615
      ESP Fit Center   70 is at  -4.833832  2.535502 -8.626615
      ESP Fit Center   71 is at  -4.833832  1.442560 -8.626615
      ESP Fit Center   72 is at  -4.131302  0.605317 -8.626615
      ESP Fit Center   73 is at  -3.027267  2.928180 -9.466615
      ESP Fit Center   74 is at  -4.131302  2.569457 -9.466615
      ESP Fit Center   75 is at  -4.131302  1.408605 -9.466615
      ESP Fit Center   76 is at  -3.027267  1.049882 -9.466615
      ESP Fit Center   77 is at  -3.332415  1.989031 -9.787466
      ESP Fit Center   78 is at  -1.665660  4.014451 -6.484506
      ESP Fit Center   79 is at  -0.373033  3.075302 -7.324506
      ESP Fit Center   80 is at  -0.746841  4.102332 -7.324506
      ESP Fit Center   81 is at  -1.693357  4.648803 -7.324506
      ESP Fit Center   82 is at  -2.769695  4.459016 -7.324506
      ESP Fit Center   83 is at  -0.373033  3.075302 -8.362804
      ESP Fit Center   84 is at  -0.746841  4.102332 -8.362804
      ESP Fit Center   85 is at  -1.693357  4.648803 -8.362804
      ESP Fit Center   86 is at  -2.769695  4.459016 -8.362804
      ESP Fit Center   87 is at  -0.983329  3.075302 -9.202804
      ESP Fit Center   88 is at  -1.665660  4.014451 -9.202804
      ESP Fit Center   89 is at  -2.769695  3.655728 -9.202804
      ESP Fit Center   90 is at  -1.970808  3.075302 -9.523655
      ESP Fit Center   91 is at  -2.221214  3.957944 -6.132816
      ESP Fit Center   92 is at  -4.513319  1.370692 -6.132816
      ESP Fit Center   93 is at  -3.151318  2.603863 -4.027816
      ESP Fit Center   94 is at  -2.846170  3.543012 -4.348667
      ESP Fit Center   95 is at  -3.950205  3.184289 -4.348667
      ESP Fit Center   96 is at  -3.950205  2.023437 -4.348667
      ESP Fit Center   97 is at  -2.873867  4.177364 -5.188667
      ESP Fit Center   98 is at  -3.950205  3.987577 -5.188667
      ESP Fit Center   99 is at  -4.652735  3.150334 -5.188667
      ESP Fit Center  100 is at  -4.652735  2.057392 -5.188667
      ESP Fit Center  101 is at  -2.873867  4.177364 -6.226965
      ESP Fit Center  102 is at  -3.950205  3.987577 -6.226965
      ESP Fit Center  103 is at  -4.652735  3.150334 -6.226965
      ESP Fit Center  104 is at  -4.652735  2.057392 -6.226965
      ESP Fit Center  105 is at  -3.683795  0.308873 -4.557740
      ESP Fit Center  106 is at  -4.386325  0.342828 -5.397740
      ESP Fit Center  107 is at  -3.683795 -0.494415 -5.397740
      ESP Fit Center  108 is at  -2.607457 -0.684202 -5.397740
      ESP Fit Center  109 is at  -4.386325  0.342828 -6.436038
      ESP Fit Center  110 is at  -3.683795 -0.494415 -6.436038
      ESP Fit Center  111 is at  -2.607457 -0.684202 -6.436038
      ESP Fit Center  112 is at  -3.683795  0.308873 -7.276038
      ESP Fit Center  113 is at  -2.579760 -0.049850 -7.276038
      ESP Fit Center  114 is at   0.129882  3.047938 -4.501771
      ESP Fit Center  115 is at  -0.718823  3.664559 -4.501771
      ESP Fit Center  116 is at  -1.767879  3.664559 -4.501771
      ESP Fit Center  117 is at   0.454059  3.030226 -5.481771
      ESP Fit Center  118 is at  -0.263351  3.747636 -5.481771
      ESP Fit Center  119 is at  -1.243351  4.010226 -5.481771
      ESP Fit Center  120 is at   0.129882  3.047938 -6.461771
      ESP Fit Center  121 is at  -0.718823  3.664559 -6.461771
      ESP Fit Center  122 is at  -0.263351  2.050226 -7.179181
      ESP Fit Center  123 is at   0.342003  2.579823 -4.340041
      ESP Fit Center  124 is at   1.116456 -0.057720 -6.440041
      ESP Fit Center  125 is at   0.111507  1.834845 -7.208694
      ESP Fit Center  126 is at   1.596512  1.281754 -4.045299
      ESP Fit Center  127 is at   0.914181  2.220903 -4.045299
      ESP Fit Center  128 is at   2.206808  1.281754 -4.885299
      ESP Fit Center  129 is at   1.833000  2.308784 -4.885299
      ESP Fit Center  130 is at   0.886484  2.855255 -4.885299
      ESP Fit Center  131 is at   1.833000  0.254724 -4.885299
      ESP Fit Center  132 is at   2.206808  1.281754 -5.923597
      ESP Fit Center  133 is at   1.833000  2.308784 -5.923597
      ESP Fit Center  134 is at   0.886484  2.855255 -5.923597
      ESP Fit Center  135 is at   1.833000  0.254724 -5.923597
      ESP Fit Center  136 is at   1.596512  1.281754 -6.763597
      ESP Fit Center  137 is at   0.914181  2.220903 -6.763597
      ESP Fit Center  138 is at  -1.349714 -1.111661 -5.730006
      ESP Fit Center  139 is at   1.046948  0.272053 -6.768304
      ESP Fit Center  140 is at  -1.349714 -1.111661 -6.768304
      ESP Fit Center  141 is at  -0.273376 -1.301448 -6.768304
      ESP Fit Center  142 is at   0.673140 -0.754977 -6.768304
      ESP Fit Center  143 is at   0.436652  0.272053 -7.608304
      ESP Fit Center  144 is at  -1.349714 -0.308373 -7.608304
      ESP Fit Center  145 is at  -0.245679 -0.667096 -7.608304
      ESP Fit Center  146 is at   1.467314  0.121363 -4.117560
      ESP Fit Center  147 is at  -2.486382 -0.700128 -2.638582
      ESP Fit Center  148 is at  -3.188912  0.426769 -3.478582
      ESP Fit Center  149 is at  -3.188912 -0.666173 -3.478582
      ESP Fit Center  150 is at  -2.486382 -1.503416 -3.478582
      ESP Fit Center  151 is at  -3.188912 -0.666173 -4.516880
      ESP Fit Center  152 is at  -2.486382 -1.503416 -4.516880
      ESP Fit Center  153 is at  -2.486382 -0.700128 -5.356880
      ESP Fit Center  154 is at   0.216619 -1.751944 -2.846635
      ESP Fit Center  155 is at   1.509246 -0.812795 -3.686635
      ESP Fit Center  156 is at  -0.887416 -2.196509 -3.686635
      ESP Fit Center  157 is at   0.188922 -2.386296 -3.686635
      ESP Fit Center  158 is at   1.135438 -1.839825 -3.686635
      ESP Fit Center  159 is at   1.509246 -0.812795 -4.724933
      ESP Fit Center  160 is at  -0.887416 -2.196509 -4.724933
      ESP Fit Center  161 is at   0.188922 -2.386296 -4.724933
      ESP Fit Center  162 is at   1.135438 -1.839825 -4.724933
      ESP Fit Center  163 is at   0.898950 -0.812795 -5.564933
      ESP Fit Center  164 is at  -0.887416 -1.393221 -5.564933
      ESP Fit Center  165 is at   0.216619 -1.751944 -5.564933
      ESP Fit Center  166 is at  -1.514469 -0.251152 -1.987862
      ESP Fit Center  167 is at   1.818764  0.746560 -2.967862
      ESP Fit Center  168 is at   1.556174  1.726560 -2.967862
      ESP Fit Center  169 is at   1.556174 -0.233440 -2.967862
      ESP Fit Center  170 is at   1.556174  0.746560 -3.947862
      ESP Fit Center  171 is at  -2.517954  3.134528 -2.387316
      ESP Fit Center  172 is at  -2.757863  1.951792 -0.884182
      ESP Fit Center  173 is at  -2.757863  0.790940 -0.884182
      ESP Fit Center  174 is at  -2.757863  2.755080 -1.724182
      ESP Fit Center  175 is at  -3.460393  1.917837 -1.724182
      ESP Fit Center  176 is at  -3.460393  0.824895 -1.724182
      ESP Fit Center  177 is at  -2.757863 -0.012348 -1.724182
      ESP Fit Center  178 is at  -2.757863  2.755080 -2.762480
      ESP Fit Center  179 is at  -3.460393  1.917837 -2.762480
      ESP Fit Center  180 is at  -3.460393  0.824895 -2.762480
      ESP Fit Center  181 is at  -2.757863  1.951792 -3.602480
      ESP Fit Center  182 is at   0.231585  3.638758 -2.512523
      ESP Fit Center  183 is at  -0.714931  4.185229 -2.512523
      ESP Fit Center  184 is at  -1.791269  3.995442 -2.512523
      ESP Fit Center  185 is at  -2.493799  3.158199 -2.512523
      ESP Fit Center  186 is at   0.605393  2.611728 -3.550821
      ESP Fit Center  187 is at   0.231585  3.638758 -3.550821
      ESP Fit Center  188 is at  -0.714931  4.185229 -3.550821
      ESP Fit Center  189 is at  -1.791269  3.995442 -3.550821
      ESP Fit Center  190 is at  -2.493799  3.158199 -3.550821
      ESP Fit Center  191 is at   0.167329  3.056541  0.768639
      ESP Fit Center  192 is at   0.397825  3.801519 -2.100014
      ESP Fit Center  193 is at  -0.819190  3.077288  0.937404
      ESP Fit Center  194 is at  -0.514042  4.016437  0.616553
      ESP Fit Center  195 is at  -1.618077  3.657714  0.616553
      ESP Fit Center  196 is at   0.404777  4.104318 -0.223447
      ESP Fit Center  197 is at  -0.541739  4.650789 -0.223447
      ESP Fit Center  198 is at  -1.618077  4.461002 -0.223447
      ESP Fit Center  199 is at  -2.320607  3.623759 -0.223447
      ESP Fit Center  200 is at  -2.320607  2.530817 -0.223447
      ESP Fit Center  201 is at   0.404777  4.104318 -1.261745
      ESP Fit Center  202 is at  -0.541739  4.650789 -1.261745
      ESP Fit Center  203 is at  -1.618077  4.461002 -1.261745
      ESP Fit Center  204 is at  -2.320607  3.623759 -1.261745
      ESP Fit Center  205 is at  -0.514042  4.016437 -2.101745
      ESP Fit Center  206 is at   1.010012  3.269916  0.194679
      ESP Fit Center  207 is at   1.928831  3.357797 -0.645321
      ESP Fit Center  208 is at   0.982315  3.904268 -0.645321
      ESP Fit Center  209 is at   2.302639  2.330767 -1.683619
      ESP Fit Center  210 is at   1.928831  3.357797 -1.683619
      ESP Fit Center  211 is at   0.982315  3.904268 -1.683619
      ESP Fit Center  212 is at   1.692343  2.330767 -2.523619
      ESP Fit Center  213 is at   1.010012  3.269916 -2.523619
      ESP Fit Center  214 is at  -0.088289  2.869399  0.980000
      ESP Fit Center  215 is at  -1.137345  2.869399  0.980000
      ESP Fit Center  216 is at  -1.986050  2.252778  0.980000
      ESP Fit Center  217 is at  -2.310227  1.255066  0.980000
      ESP Fit Center  218 is at  -1.986050  0.257354  0.980000
      ESP Fit Center  219 is at  -2.310227  2.235066  0.000000
      ESP Fit Center  220 is at  -2.572817  1.255066  0.000000
      ESP Fit Center  221 is at  -2.310227  0.275066  0.000000
      ESP Fit Center  222 is at  -1.986050  0.257354 -0.980000
      ESP Fit Center  223 is at  -2.038978 -0.502563  0.000000
      ESP Fit Center  224 is at  -1.571873 -1.392558  0.000000
      ESP Fit Center  225 is at   0.253127 -2.084689  0.000000
      ESP Fit Center  226 is at  -1.825428 -1.137393 -0.330034
      ESP Fit Center  227 is at  -1.122898 -1.974636 -0.330034
      ESP Fit Center  228 is at  -0.046560 -2.164423 -0.330034
      ESP Fit Center  229 is at  -1.825428 -1.137393 -1.368332
      ESP Fit Center  230 is at  -1.122898 -1.974636 -1.368332
      ESP Fit Center  231 is at  -0.046560 -2.164423 -1.368332
      ESP Fit Center  232 is at   0.899956 -1.617952 -1.368332
      ESP Fit Center  233 is at  -1.122898 -1.171348 -2.208332
      ESP Fit Center  234 is at  -0.018863 -1.530071 -2.208332
      ESP Fit Center  235 is at  -0.365427 -0.489283  2.573831
      ESP Fit Center  236 is at  -1.164314 -1.069709  2.252980
      ESP Fit Center  237 is at  -0.060279 -1.428432  2.252980
      ESP Fit Center  238 is at  -1.866844  0.057188  1.412980
      ESP Fit Center  239 is at  -1.866844 -1.035754  1.412980
      ESP Fit Center  240 is at  -1.164314 -1.872997  1.412980
      ESP Fit Center  241 is at  -0.087976 -2.062784  1.412980
      ESP Fit Center  242 is at   0.858540 -1.516313  1.412980
      ESP Fit Center  243 is at  -1.866844 -1.035754  0.374682
      ESP Fit Center  244 is at  -1.164314 -1.872997  0.374682
      ESP Fit Center  245 is at   3.504674  0.337331 -1.474882
      ESP Fit Center  246 is at   3.130866  1.364361 -1.474882
      ESP Fit Center  247 is at   3.130866 -0.689699 -1.474882
      ESP Fit Center  248 is at   2.894378  0.337331 -2.314882
      ESP Fit Center  249 is at   2.212047  1.276480 -2.314882
      ESP Fit Center  250 is at   2.212047 -0.601818 -2.314882
      ESP Fit Center  251 is at   1.906899  0.337331 -2.635733
      ESP Fit Center  252 is at   2.163019 -1.964961  1.483191
      ESP Fit Center  253 is at   1.058984 -2.409526  0.643191
      ESP Fit Center  254 is at   2.135322 -2.599313  0.643191
      ESP Fit Center  255 is at   3.081838 -2.052842  0.643191
      ESP Fit Center  256 is at   3.455646 -1.025812 -0.395107
      ESP Fit Center  257 is at   1.058984 -2.409526 -0.395107
      ESP Fit Center  258 is at   2.135322 -2.599313 -0.395107
      ESP Fit Center  259 is at   3.081838 -2.052842 -0.395107
      ESP Fit Center  260 is at   2.163019 -1.964961 -1.235107
      ESP Fit Center  261 is at   4.285015  1.047966  2.752989
      ESP Fit Center  262 is at   3.980938  2.083557  2.752989
      ESP Fit Center  263 is at   3.165250  2.790354  2.752989
      ESP Fit Center  264 is at   3.980938  0.012375  2.752989
      ESP Fit Center  265 is at   4.758101  1.047966  1.770615
      ESP Fit Center  266 is at   4.521558  2.084329  1.770615
      ESP Fit Center  267 is at   3.858779  2.915428  1.770615
      ESP Fit Center  268 is at   2.901036  3.376653  1.770615
      ESP Fit Center  269 is at   1.838020  3.376653  1.770615
      ESP Fit Center  270 is at   0.880277  2.915428  1.770615
      ESP Fit Center  271 is at   2.901036 -1.280721  1.770615
      ESP Fit Center  272 is at   3.858779 -0.819496  1.770615
      ESP Fit Center  273 is at   4.521558  0.011603  1.770615
      ESP Fit Center  274 is at   4.758101  1.047966  0.680263
      ESP Fit Center  275 is at   4.521558  2.084329  0.680263
      ESP Fit Center  276 is at   3.858779  2.915428  0.680263
      ESP Fit Center  277 is at   2.901036  3.376653  0.680263
      ESP Fit Center  278 is at   1.838020  3.376653  0.680263
      ESP Fit Center  279 is at   0.880277  2.915428  0.680263
      ESP Fit Center  280 is at   3.858779 -0.819496  0.680263
      ESP Fit Center  281 is at   4.521558  0.011603  0.680263
      ESP Fit Center  282 is at   4.285015  1.047966 -0.302111
      ESP Fit Center  283 is at   3.980938  2.083557 -0.302111
      ESP Fit Center  284 is at   3.165250  2.790354 -0.302111
      ESP Fit Center  285 is at   2.096926  2.943956 -0.302111
      ESP Fit Center  286 is at   3.980938  0.012375 -0.302111
      ESP Fit Center  287 is at   3.432543  1.047966 -0.981935
      ESP Fit Center  288 is at   2.901036  1.968564 -0.981935
      ESP Fit Center  289 is at   1.698305 -1.509382  4.075648
      ESP Fit Center  290 is at  -0.108260 -1.116704  3.235648
      ESP Fit Center  291 is at   0.594270 -1.953947  3.235648
      ESP Fit Center  292 is at   1.670608 -2.143734  3.235648
      ESP Fit Center  293 is at   2.617124 -1.597263  3.235648
      ESP Fit Center  294 is at   0.594270 -1.953947  2.197350
      ESP Fit Center  295 is at   1.670608 -2.143734  2.197350
      ESP Fit Center  296 is at   2.617124 -1.597263  2.197350
      ESP Fit Center  297 is at   3.488585  0.501397  4.878523
      ESP Fit Center  298 is at   2.806254 -0.437752  4.878523
      ESP Fit Center  299 is at   4.098881  0.501397  4.038523
      ESP Fit Center  300 is at   3.725073  1.528427  4.038523
      ESP Fit Center  301 is at   2.778557  2.074898  4.038523
      ESP Fit Center  302 is at   2.778557 -1.072104  4.038523
      ESP Fit Center  303 is at   3.725073 -0.525633  4.038523
      ESP Fit Center  304 is at   4.098881  0.501397  3.000225
      ESP Fit Center  305 is at   3.725073 -0.525633  3.000225
      ESP Fit Center  306 is at  -1.060262  2.708291  3.306275
      ESP Fit Center  307 is at  -1.092006  2.692189  3.104916
      ESP Fit Center  308 is at  -1.794536  1.854946  3.104916
      ESP Fit Center  309 is at  -1.092006  2.692189  2.066618
      ESP Fit Center  310 is at  -1.794536  1.854946  2.066618
      ESP Fit Center  311 is at  -1.794536  0.762004  2.066618
      ESP Fit Center  312 is at   2.414476  2.348078  3.937058
      ESP Fit Center  313 is at   2.040668  3.375108  3.937058
      ESP Fit Center  314 is at   1.094152  3.921579  3.937058
      ESP Fit Center  315 is at   0.017814  3.731792  3.937058
      ESP Fit Center  316 is at   2.040668  3.375108  2.898760
      ESP Fit Center  317 is at   1.094152  3.921579  2.898760
      ESP Fit Center  318 is at   0.017814  3.731792  2.898760
      ESP Fit Center  319 is at   1.121849  3.287227  2.058760
      ESP Fit Center  320 is at  -1.271927  0.713710  7.074615
      ESP Fit Center  321 is at  -0.740420 -0.206888  7.074615
      ESP Fit Center  322 is at  -2.046808  1.253365  6.394791
      ESP Fit Center  323 is at  -2.046808  0.174055  6.394791
      ESP Fit Center  324 is at  -1.463289 -0.733919  6.394791
      ESP Fit Center  325 is at  -0.481514 -1.182280  6.394791
      ESP Fit Center  326 is at   0.586810 -1.028678  6.394791
      ESP Fit Center  327 is at  -1.698163  2.581172  5.412417
      ESP Fit Center  328 is at  -2.360942  1.750073  5.412417
      ESP Fit Center  329 is at  -2.597485  0.713710  5.412417
      ESP Fit Center  330 is at  -2.360942 -0.322653  5.412417
      ESP Fit Center  331 is at  -1.698163 -1.153752  5.412417
      ESP Fit Center  332 is at  -0.740420 -1.614977  5.412417
      ESP Fit Center  333 is at   0.322596 -1.614977  5.412417
      ESP Fit Center  334 is at   1.280339 -1.153752  5.412417
      ESP Fit Center  335 is at  -0.740420  3.042397  4.322065
      ESP Fit Center  336 is at  -1.698163  2.581172  4.322065
      ESP Fit Center  337 is at  -2.360942  1.750073  4.322065
      ESP Fit Center  338 is at  -2.597485  0.713710  4.322065
      ESP Fit Center  339 is at  -2.360942 -0.322653  4.322065
      ESP Fit Center  340 is at  -1.698163 -1.153752  4.322065
      ESP Fit Center  341 is at  -0.740420 -1.614977  4.322065
      ESP Fit Center  342 is at   0.322596 -1.614977  4.322065
      ESP Fit Center  343 is at   1.280339 -1.153752  4.322065
      ESP Fit Center  344 is at  -2.046808  1.253365  3.339691
      ESP Fit Center  345 is at  -2.046808  0.174055  3.339691
      ESP Fit Center  346 is at  -1.463289 -0.733919  3.339691
      ESP Fit Center  347 is at  -0.481514 -1.182280  3.339691
      ESP Fit Center  348 is at   2.966682  1.134396  7.142774
      ESP Fit Center  349 is at   2.256654 -0.439105  6.302774
      ESP Fit Center  350 is at   3.203170  0.107366  6.302774
      ESP Fit Center  351 is at   3.576978  1.134396  5.264476
      ESP Fit Center  352 is at   2.256654 -0.439105  5.264476
      ESP Fit Center  353 is at   3.203170  0.107366  5.264476
      ESP Fit Center  354 is at   2.284351  2.073545  4.424476
      ESP Fit Center  355 is at   0.803578  0.719948  8.675114
      ESP Fit Center  356 is at   1.791057  0.719948  8.354263
      ESP Fit Center  357 is at   0.004691  1.300374  8.354263
      ESP Fit Center  358 is at   0.004691  0.139522  8.354263
      ESP Fit Center  359 is at   1.108726 -0.219201  8.354263
      ESP Fit Center  360 is at  -0.697839  1.266419  7.514263
      ESP Fit Center  361 is at  -0.697839  0.173477  7.514263
      ESP Fit Center  362 is at   0.004691 -0.663766  7.514263
      ESP Fit Center  363 is at   1.081029 -0.853553  7.514263
      ESP Fit Center  364 is at   2.027545 -0.307082  7.514263
      ESP Fit Center  365 is at   1.081029 -0.853553  6.475965
      ESP Fit Center  366 is at   0.022405  4.764575  6.464149
      ESP Fit Center  367 is at   0.054638  4.813925  6.107606
      ESP Fit Center  368 is at   0.054638  4.813925  5.069308
      ESP Fit Center  369 is at  -0.647892  3.976682  5.069308
      ESP Fit Center  370 is at   1.841004  3.430211  4.229308
      ESP Fit Center  371 is at   1.158673  4.369360  4.229308
      ESP Fit Center  372 is at   0.054638  4.010637  4.229308
      ESP Fit Center  373 is at  -1.028559  3.528195  8.217983
      ESP Fit Center  374 is at  -1.028559  2.367343  8.217983
      ESP Fit Center  375 is at  -1.028559  4.331483  7.377983
      ESP Fit Center  376 is at  -1.731089  3.494240  7.377983
      ESP Fit Center  377 is at  -1.731089  2.401298  7.377983
      ESP Fit Center  378 is at  -1.028559  1.564055  7.377983
      ESP Fit Center  379 is at  -1.028559  4.331483  6.339685
      ESP Fit Center  380 is at  -1.731089  3.494240  6.339685
      ESP Fit Center  381 is at  -1.731089  2.401298  6.339685
      ESP Fit Center  382 is at  -1.028559  3.528195  5.499685
      ESP Fit Center  383 is at   1.896844  3.402007 10.208721
      ESP Fit Center  384 is at   2.959859  3.402007  9.966095
      ESP Fit Center  385 is at   2.428352  4.322605  9.966095
      ESP Fit Center  386 is at   1.365336  4.322605  9.966095
      ESP Fit Center  387 is at   0.833829  3.402007  9.966095
      ESP Fit Center  388 is at   1.365336  2.481409  9.966095
      ESP Fit Center  389 is at   2.428352  2.481409  9.966095
      ESP Fit Center  390 is at   3.812331  3.402007  9.286271
      ESP Fit Center  391 is at   3.508254  4.437598  9.286271
      ESP Fit Center  392 is at   2.692566  5.144395  9.286271
      ESP Fit Center  393 is at   1.624242  5.297997  9.286271
      ESP Fit Center  394 is at   0.642467  4.849636  9.286271
      ESP Fit Center  395 is at   0.058948  3.941662  9.286271
      ESP Fit Center  396 is at   0.058948  2.862352  9.286271
      ESP Fit Center  397 is at   0.642467  1.954378  9.286271
      ESP Fit Center  398 is at   1.624242  1.506017  9.286271
      ESP Fit Center  399 is at   2.692566  1.659619  9.286271
      ESP Fit Center  400 is at   3.508254  2.366416  9.286271
      ESP Fit Center  401 is at   3.386095  5.269469  8.303897
      ESP Fit Center  402 is at   2.428352  5.730694  8.303897
      ESP Fit Center  403 is at   1.365336  5.730694  8.303897
      ESP Fit Center  404 is at   0.407593  5.269469  8.303897
      ESP Fit Center  405 is at  -0.255186  4.438370  8.303897
      ESP Fit Center  406 is at   2.428352  1.073320  8.303897
      ESP Fit Center  407 is at   3.386095  1.534545  8.303897
      ESP Fit Center  408 is at   1.365336  5.730694  7.213545
      ESP Fit Center  409 is at   0.407593  5.269469  7.213545
      ESP Fit Center  410 is at   4.205310  2.017495  7.896963
      ESP Fit Center  411 is at   5.309272  2.695881  6.846963
      ESP Fit Center  412 is at   4.204999  3.761500  9.298686
      ESP Fit Center  413 is at   5.192478  3.761500  8.977835
      ESP Fit Center  414 is at   4.510147  4.700649  8.977835
      ESP Fit Center  415 is at   4.510147  2.822351  8.977835
      ESP Fit Center  416 is at   5.802774  3.761500  8.137835
      ESP Fit Center  417 is at   5.428966  4.788530  8.137835
      ESP Fit Center  418 is at   4.482450  5.335001  8.137835
      ESP Fit Center  419 is at   4.482450  2.187999  8.137835
      ESP Fit Center  420 is at   5.428966  2.734470  8.137835
      ESP Fit Center  421 is at   5.802774  3.761500  7.099537
      ESP Fit Center  422 is at   5.428966  4.788530  7.099537
      ESP Fit Center  423 is at   5.428966  2.734470  7.099537
      ESP Fit Center  424 is at   3.970664  1.209975  6.795596
      ESP Fit Center  425 is at   4.917180  1.756446  6.795596
      ESP Fit Center  426 is at   5.290988  2.783476  5.757298
      ESP Fit Center  427 is at   3.970664  1.209975  5.757298
      ESP Fit Center  428 is at   4.917180  1.756446  5.757298
      ESP Fit Center  429 is at   4.680692  2.783476  4.917298
      ESP Fit Center  430 is at   3.998361  1.844327  4.917298
      ESP Fit Center  431 is at   3.693213  2.783476  4.596447
      ESP Fit Center  432 is at   5.281932  4.911174  7.006881
      ESP Fit Center  433 is at   4.993228  5.894412  7.006881
      ESP Fit Center  434 is at   4.656215  6.639440  5.956881
      ESP Fit Center  435 is at   3.204458  6.711316  4.906881
      ESP Fit Center  436 is at   3.988279  4.001847  4.138228
      ESP Fit Center  437 is at   1.219158  5.397409  5.688187
      ESP Fit Center  438 is at   1.921688  6.234652  4.649889
      ESP Fit Center  439 is at   1.219158  5.397409  4.649889
      ESP Fit Center  440 is at   2.998026  3.277437  4.649889
      ESP Fit Center  441 is at   3.708054  4.850938  3.809889
      ESP Fit Center  442 is at   3.025723  5.790087  3.809889
      ESP Fit Center  443 is at   1.921688  5.431364  3.809889
      ESP Fit Center  444 is at   1.921688  4.270512  3.809889
      ESP Fit Center  445 is at   3.025723  3.911789  3.809889
      ESP Fit Center  446 is at   2.720575  4.850938  3.489038
      ESP Fit Center  447 is at   3.264298  5.804840  8.216581
      ESP Fit Center  448 is at   4.251777  5.804840  7.895730
      ESP Fit Center  449 is at   3.569446  6.743989  7.895730
      ESP Fit Center  450 is at   2.465411  6.385266  7.895730
      ESP Fit Center  451 is at   4.488265  6.831870  7.055730
      ESP Fit Center  452 is at   3.541749  7.378341  7.055730
      ESP Fit Center  453 is at   2.465411  7.188554  7.055730
      ESP Fit Center  454 is at   1.762881  6.351311  7.055730
      ESP Fit Center  455 is at   4.488265  6.831870  6.017432
      ESP Fit Center  456 is at   3.541749  7.378341  6.017432
      ESP Fit Center  457 is at   2.465411  7.188554  6.017432
      ESP Fit Center  458 is at   1.762881  6.351311  6.017432
      ESP Fit Center  459 is at   5.422921  5.018472  6.843113
      ESP Fit Center  460 is at   6.033217  5.018472  6.003113
      ESP Fit Center  461 is at   5.659409  6.045502  6.003113
      ESP Fit Center  462 is at   5.659409  3.991442  6.003113
      ESP Fit Center  463 is at   6.033217  5.018472  4.964815
      ESP Fit Center  464 is at   5.659409  6.045502  4.964815
      ESP Fit Center  465 is at   4.712893  6.591973  4.964815
      ESP Fit Center  466 is at   4.712893  3.444971  4.964815
      ESP Fit Center  467 is at   5.659409  3.991442  4.964815
      ESP Fit Center  468 is at   5.422921  5.018472  4.124815
      ESP Fit Center  469 is at   4.740590  5.957621  4.124815
      ESP Fit Center  470 is at   4.740590  4.079323  4.124815
      ESP Fit Center  471 is at   4.435442  5.018472  3.803964
      ESP Fit Center  472 is at  -3.817969  3.914146 -7.101163
      ESP Fit Center  473 is at  -3.817969  3.914146 -8.169263
      ESP Fit Center  474 is at  -2.879771 -0.196367 -8.169263
      ESP Fit Center  475 is at  -1.838451  2.986606 -9.797538
      ESP Fit Center  476 is at  -2.879771  2.986606 -9.797538
      ESP Fit Center  477 is at  -2.879771  1.182986 -9.797538
      ESP Fit Center  478 is at  -2.359111  2.084796-10.035213
      ESP Fit Center  479 is at   0.226490  1.358755 -8.090931
      ESP Fit Center  480 is at  -2.653510 -0.304014 -8.090931
      ESP Fit Center  481 is at  -1.693510 -0.561245 -8.090931
      ESP Fit Center  482 is at  -0.733510 -0.304014 -8.090931
      ESP Fit Center  483 is at  -0.030741  1.358755 -9.050931
      ESP Fit Center  484 is at  -0.348302  2.336106 -9.050931
      ESP Fit Center  485 is at  -2.207334 -0.222632 -9.050931
      ESP Fit Center  486 is at  -1.179686 -0.222632 -9.050931
      ESP Fit Center  487 is at  -0.348302  0.381404 -9.050931
      ESP Fit Center  488 is at  -0.733510  1.358755 -9.753700
      ESP Fit Center  489 is at  -1.213510  2.190139 -9.753700
      ESP Fit Center  490 is at  -2.173510  0.527371 -9.753700
      ESP Fit Center  491 is at  -1.213510  0.527371 -9.753700
      ESP Fit Center  492 is at  -1.693510  1.358755-10.010931
      ESP Fit Center  493 is at  -4.677623  2.966382 -7.147466
      ESP Fit Center  494 is at  -4.995184  1.989031 -7.147466
      ESP Fit Center  495 is at  -4.677623  1.011680 -7.147466
      ESP Fit Center  496 is at  -4.292415  3.651800 -8.107466
      ESP Fit Center  497 is at  -4.995184  2.949031 -8.107466
      ESP Fit Center  498 is at  -5.252415  1.989031 -8.107466
      ESP Fit Center  499 is at  -4.995184  1.029031 -8.107466
      ESP Fit Center  500 is at  -4.292415  0.326262 -8.107466
      ESP Fit Center  501 is at  -3.846239  3.570418 -9.067466
      ESP Fit Center  502 is at  -4.677623  2.966382 -9.067466
      ESP Fit Center  503 is at  -4.995184  1.989031 -9.067466
      ESP Fit Center  504 is at  -4.677623  1.011680 -9.067466
      ESP Fit Center  505 is at  -3.846239  0.407644 -9.067466
      ESP Fit Center  506 is at  -3.812415  2.820415 -9.770235
      ESP Fit Center  507 is at  -4.292415  1.989031 -9.770235
      ESP Fit Center  508 is at  -3.812415  1.157647 -9.770235
      ESP Fit Center  509 is at  -3.332415  1.989031-10.027466
      ESP Fit Center  510 is at  -0.625600  4.052653 -6.883655
      ESP Fit Center  511 is at  -1.456984  4.656689 -6.883655
      ESP Fit Center  512 is at  -2.484632  4.656689 -6.883655
      ESP Fit Center  513 is at  -0.050808  3.075302 -7.843655
      ESP Fit Center  514 is at  -0.308039  4.035302 -7.843655
      ESP Fit Center  515 is at  -1.010808  4.738071 -7.843655
      ESP Fit Center  516 is at  -1.970808  4.995302 -7.843655
      ESP Fit Center  517 is at  -2.930808  4.738071 -7.843655
      ESP Fit Center  518 is at  -0.308039  3.075302 -8.803655
      ESP Fit Center  519 is at  -0.625600  4.052653 -8.803655
      ESP Fit Center  520 is at  -1.456984  4.656689 -8.803655
      ESP Fit Center  521 is at  -2.484632  4.656689 -8.803655
      ESP Fit Center  522 is at  -3.316016  4.052653 -8.803655
      ESP Fit Center  523 is at  -1.010808  3.075302 -9.506424
      ESP Fit Center  524 is at  -1.490808  3.906686 -9.506424
      ESP Fit Center  525 is at  -2.450808  3.906686 -9.506424
      ESP Fit Center  526 is at  -4.274729  1.344613 -4.636440
      ESP Fit Center  527 is at  -4.814168  1.873255 -6.666866
      ESP Fit Center  528 is at  -3.151318  2.603863 -3.787816
      ESP Fit Center  529 is at  -2.671318  3.435247 -4.045047
      ESP Fit Center  530 is at  -3.631318  3.435247 -4.045047
      ESP Fit Center  531 is at  -4.111318  2.603863 -4.045047
      ESP Fit Center  532 is at  -2.637494  4.185250 -4.747816
      ESP Fit Center  533 is at  -3.665142  4.185250 -4.747816
      ESP Fit Center  534 is at  -4.496526  3.581214 -4.747816
      ESP Fit Center  535 is at  -4.814087  2.603863 -4.747816
      ESP Fit Center  536 is at  -4.496526  1.626512 -4.747816
      ESP Fit Center  537 is at  -2.191318  4.266632 -5.707816
      ESP Fit Center  538 is at  -3.151318  4.523863 -5.707816
      ESP Fit Center  539 is at  -4.111318  4.266632 -5.707816
      ESP Fit Center  540 is at  -4.814087  3.563863 -5.707816
      ESP Fit Center  541 is at  -5.071318  2.603863 -5.707816
      ESP Fit Center  542 is at  -3.665142  4.185250 -6.667816
      ESP Fit Center  543 is at  -4.496526  3.581214 -6.667816
      ESP Fit Center  544 is at  -4.814087  2.603863 -6.667816
      ESP Fit Center  545 is at  -3.844908  0.889299 -4.254120
      ESP Fit Center  546 is at  -4.547677  0.889299 -4.956889
      ESP Fit Center  547 is at  -4.230116 -0.088052 -4.956889
      ESP Fit Center  548 is at  -3.398732 -0.692088 -4.956889
      ESP Fit Center  549 is at  -4.804908  0.889299 -5.916889
      ESP Fit Center  550 is at  -4.547677 -0.070701 -5.916889
      ESP Fit Center  551 is at  -3.844908 -0.773470 -5.916889
      ESP Fit Center  552 is at  -2.884908 -1.030701 -5.916889
      ESP Fit Center  553 is at  -4.547677  0.889299 -6.876889
      ESP Fit Center  554 is at  -4.230116 -0.088052 -6.876889
      ESP Fit Center  555 is at  -3.398732 -0.692088 -6.876889
      ESP Fit Center  556 is at  -2.371084 -0.692088 -6.876889
      ESP Fit Center  557 is at  -0.002789  3.847490 -4.983324
      ESP Fit Center  558 is at  -0.980118  4.218142 -4.983324
      ESP Fit Center  559 is at  -2.017751  4.092150 -4.983324
      ESP Fit Center  560 is at  -0.002789  3.847490 -5.980218
      ESP Fit Center  561 is at  -0.980118  4.218142 -5.980218
      ESP Fit Center  562 is at   0.173483  3.079616 -6.878388
      ESP Fit Center  563 is at   1.045365 -0.903832 -5.924091
      ESP Fit Center  564 is at   0.107167  1.827328 -7.552366
      ESP Fit Center  565 is at   2.271802  1.281754 -4.444448
      ESP Fit Center  566 is at   1.954241  2.259105 -4.444448
      ESP Fit Center  567 is at   1.122857  2.863141 -4.444448
      ESP Fit Center  568 is at   1.954241  0.304403 -4.444448
      ESP Fit Center  569 is at   2.529033  1.281754 -5.404448
      ESP Fit Center  570 is at   2.271802  2.241754 -5.404448
      ESP Fit Center  571 is at   1.569033  2.944523 -5.404448
      ESP Fit Center  572 is at   2.271802  0.321754 -5.404448
      ESP Fit Center  573 is at   2.271802  1.281754 -6.364448
      ESP Fit Center  574 is at   1.954241  2.259105 -6.364448
      ESP Fit Center  575 is at   1.122857  2.863141 -6.364448
      ESP Fit Center  576 is at   1.954241  0.304403 -6.364448
      ESP Fit Center  577 is at   1.569033  1.281754 -7.067217
      ESP Fit Center  578 is at   1.089033  2.113138 -7.067217
      ESP Fit Center  579 is at  -1.510827 -1.390716 -6.249155
      ESP Fit Center  580 is at  -0.550827 -1.647947 -6.249155
      ESP Fit Center  581 is at   0.409173 -1.390716 -6.249155
      ESP Fit Center  582 is at   1.111942  0.272053 -7.209155
      ESP Fit Center  583 is at  -1.896035 -0.705298 -7.209155
      ESP Fit Center  584 is at  -1.064651 -1.309334 -7.209155
      ESP Fit Center  585 is at  -0.037003 -1.309334 -7.209155
      ESP Fit Center  586 is at   0.794381 -0.705298 -7.209155
      ESP Fit Center  587 is at   0.409173  0.272053 -7.911924
      ESP Fit Center  588 is at  -1.030827 -0.559331 -7.911924
      ESP Fit Center  589 is at  -0.070827 -0.559331 -7.911924
      ESP Fit Center  590 is at  -0.899725 -1.735934 -2.621184
      ESP Fit Center  591 is at  -1.861464 -1.296722 -5.613936
      ESP Fit Center  592 is at  -2.167495 -0.951086 -2.334962
      ESP Fit Center  593 is at  -3.350264 -0.119702 -3.037731
      ESP Fit Center  594 is at  -3.032703 -1.097053 -3.037731
      ESP Fit Center  595 is at  -2.201319 -1.701089 -3.037731
      ESP Fit Center  596 is at  -3.350264  0.840298 -3.997731
      ESP Fit Center  597 is at  -3.607495 -0.119702 -3.997731
      ESP Fit Center  598 is at  -3.350264 -1.079702 -3.997731
      ESP Fit Center  599 is at  -2.647495 -1.782471 -3.997731
      ESP Fit Center  600 is at  -1.687495 -2.039702 -3.997731
      ESP Fit Center  601 is at  -3.032703 -1.097053 -4.957731
      ESP Fit Center  602 is at  -2.201319 -1.701089 -4.957731
      ESP Fit Center  603 is at  -2.167495 -0.951086 -5.660500
      ESP Fit Center  604 is at   0.391471 -1.644179 -2.543015
      ESP Fit Center  605 is at   1.574240 -0.812795 -3.245784
      ESP Fit Center  606 is at  -0.602353 -2.394182 -3.245784
      ESP Fit Center  607 is at   0.425295 -2.394182 -3.245784
      ESP Fit Center  608 is at   1.256679 -1.790146 -3.245784
      ESP Fit Center  609 is at   1.831471 -0.812795 -4.205784
      ESP Fit Center  610 is at  -1.048529 -2.475564 -4.205784
      ESP Fit Center  611 is at  -0.088529 -2.732795 -4.205784
      ESP Fit Center  612 is at   0.871471 -2.475564 -4.205784
      ESP Fit Center  613 is at   1.574240 -1.772795 -4.205784
      ESP Fit Center  614 is at   1.574240 -0.812795 -5.165784
      ESP Fit Center  615 is at  -0.602353 -2.394182 -5.165784
      ESP Fit Center  616 is at   0.425295 -2.394182 -5.165784
      ESP Fit Center  617 is at   1.256679 -1.790146 -5.165784
      ESP Fit Center  618 is at  -0.568529 -1.644179 -5.868553
      ESP Fit Center  619 is at   0.391471 -1.644179 -5.868553
      ESP Fit Center  620 is at   1.099326 -1.050704 -2.469415
      ESP Fit Center  621 is at   2.042603  0.746560 -3.466309
      ESP Fit Center  622 is at   1.792457  1.761440 -3.466309
      ESP Fit Center  623 is at   1.099326  2.543824 -3.466309
      ESP Fit Center  624 is at   1.792457 -0.268320 -3.466309
      ESP Fit Center  625 is at  -2.404939  3.571320 -1.853266
      ESP Fit Center  626 is at  -2.918976  1.371366 -0.580562
      ESP Fit Center  627 is at  -3.304184  2.348717 -1.283331
      ESP Fit Center  628 is at  -3.621745  1.371366 -1.283331
      ESP Fit Center  629 is at  -3.304184  0.394015 -1.283331
      ESP Fit Center  630 is at  -2.472800 -0.210021 -1.283331
      ESP Fit Center  631 is at  -3.621745  2.331366 -2.243331
      ESP Fit Center  632 is at  -3.878976  1.371366 -2.243331
      ESP Fit Center  633 is at  -3.621745  0.411366 -2.243331
      ESP Fit Center  634 is at  -2.918976 -0.291403 -2.243331
      ESP Fit Center  635 is at  -3.304184  2.348717 -3.203331
      ESP Fit Center  636 is at  -3.621745  1.371366 -3.203331
      ESP Fit Center  637 is at   0.670387  3.571728 -3.031672
      ESP Fit Center  638 is at  -0.032382  4.274497 -3.031672
      ESP Fit Center  639 is at  -0.992382  4.531728 -3.031672
      ESP Fit Center  640 is at  -1.952382  4.274497 -3.031672
      ESP Fit Center  641 is at  -2.655151  3.571728 -3.031672
      ESP Fit Center  642 is at   0.670387  2.611728 -3.991672
      ESP Fit Center  643 is at   0.352826  3.589079 -3.991672
      ESP Fit Center  644 is at  -0.478558  4.193115 -3.991672
      ESP Fit Center  645 is at  -1.506206  4.193115 -3.991672
      ESP Fit Center  646 is at  -2.337590  3.589079 -3.991672
      ESP Fit Center  647 is at   0.162989  3.049024  1.112311
      ESP Fit Center  648 is at  -2.697498  2.147214 -0.515964
      ESP Fit Center  649 is at   0.421812  3.854043 -2.546390
      ESP Fit Center  650 is at  -0.339190  3.908672  0.920173
      ESP Fit Center  651 is at  -1.299190  3.908672  0.920173
      ESP Fit Center  652 is at  -1.779190  3.077288  0.920173
      ESP Fit Center  653 is at   0.526018  4.054639  0.217404
      ESP Fit Center  654 is at  -0.305366  4.658675  0.217404
      ESP Fit Center  655 is at  -1.333014  4.658675  0.217404
      ESP Fit Center  656 is at  -2.164398  4.054639  0.217404
      ESP Fit Center  657 is at  -2.481959  3.077288  0.217404
      ESP Fit Center  658 is at   0.140810  4.740057 -0.742596
      ESP Fit Center  659 is at  -0.819190  4.997288 -0.742596
      ESP Fit Center  660 is at  -1.779190  4.740057 -0.742596
      ESP Fit Center  661 is at  -2.481959  4.037288 -0.742596
      ESP Fit Center  662 is at  -2.739190  3.077288 -0.742596
      ESP Fit Center  663 is at  -0.305366  4.658675 -1.702596
      ESP Fit Center  664 is at  -1.333014  4.658675 -1.702596
      ESP Fit Center  665 is at  -2.164398  4.054639 -1.702596
      ESP Fit Center  666 is at   1.218688  3.912154 -0.204470
      ESP Fit Center  667 is at   2.367633  3.290767 -1.164470
      ESP Fit Center  668 is at   1.664864  3.993536 -1.164470
      ESP Fit Center  669 is at   2.367633  2.330767 -2.124470
      ESP Fit Center  670 is at   2.050072  3.308118 -2.124470
      ESP Fit Center  671 is at   1.218688  3.912154 -2.124470
      ESP Fit Center  672 is at   1.664864  2.330767 -2.827239
      ESP Fit Center  673 is at   1.184864  3.162151 -2.827239
      ESP Fit Center  674 is at  -0.071635  2.920654  1.396617
      ESP Fit Center  675 is at  -1.153999  2.920654  1.396617
      ESP Fit Center  676 is at  -2.029651  2.284456  1.396617
      ESP Fit Center  677 is at  -2.364120  1.255066  1.396617
      ESP Fit Center  678 is at  -2.247444  2.703219  0.498447
      ESP Fit Center  679 is at  -2.733197  1.777693  0.498447
      ESP Fit Center  680 is at  -2.733197  0.732439  0.498447
      ESP Fit Center  681 is at  -2.733197  1.777693 -0.498447
      ESP Fit Center  682 is at  -2.733197  0.732439 -0.498447
      ESP Fit Center  683 is at  -2.244011 -0.590922 -0.849183
      ESP Fit Center  684 is at  -1.986780 -1.550922 -0.849183
      ESP Fit Center  685 is at  -1.284011 -2.253691 -0.849183
      ESP Fit Center  686 is at  -0.324011 -2.510922 -0.849183
      ESP Fit Center  687 is at   0.635989 -2.253691 -0.849183
      ESP Fit Center  688 is at  -1.986780 -0.590922 -1.809183
      ESP Fit Center  689 is at  -1.669219 -1.568273 -1.809183
      ESP Fit Center  690 is at  -0.837835 -2.172309 -1.809183
      ESP Fit Center  691 is at   0.189813 -2.172309 -1.809183
      ESP Fit Center  692 is at   1.021197 -1.568273 -1.809183
      ESP Fit Center  693 is at  -1.325427 -0.489283  2.556600
      ESP Fit Center  694 is at  -0.845427 -1.320667  2.556600
      ESP Fit Center  695 is at  -2.028196 -0.489283  1.853831
      ESP Fit Center  696 is at  -1.710635 -1.466634  1.853831
      ESP Fit Center  697 is at  -0.879251 -2.070670  1.853831
      ESP Fit Center  698 is at   0.148397 -2.070670  1.853831
      ESP Fit Center  699 is at  -2.285427 -0.489283  0.893831
      ESP Fit Center  700 is at  -2.028196 -1.449283  0.893831
      ESP Fit Center  701 is at  -1.325427 -2.152052  0.893831
      ESP Fit Center  702 is at  -0.365427 -2.409283  0.893831
      ESP Fit Center  703 is at   3.569668  0.337331 -1.915733
      ESP Fit Center  704 is at   3.252107  1.314682 -1.915733
      ESP Fit Center  705 is at   2.420723 -1.244056 -1.915733
      ESP Fit Center  706 is at   3.252107 -0.640020 -1.915733
      ESP Fit Center  707 is at   2.866899  0.337331 -2.618502
      ESP Fit Center  708 is at   2.386899  1.168715 -2.618502
      ESP Fit Center  709 is at   2.386899 -0.494053 -2.618502
      ESP Fit Center  710 is at   1.344047 -2.607199  1.084042
      ESP Fit Center  711 is at   2.371695 -2.607199  1.084042
      ESP Fit Center  712 is at   3.203079 -2.003163  1.084042
      ESP Fit Center  713 is at   0.897871 -2.688581  0.124042
      ESP Fit Center  714 is at   1.857871 -2.945812  0.124042
      ESP Fit Center  715 is at   2.817871 -2.688581  0.124042
      ESP Fit Center  716 is at   3.520640 -1.985812  0.124042
      ESP Fit Center  717 is at   1.344047 -2.607199 -0.835958
      ESP Fit Center  718 is at   2.371695 -2.607199 -0.835958
      ESP Fit Center  719 is at   3.203079 -2.003163 -0.835958
      ESP Fit Center  720 is at   1.377871 -1.857196 -1.538727
      ESP Fit Center  721 is at   2.337871 -1.857196 -1.538727
      ESP Fit Center  722 is at   4.349427  1.047966  3.205338
      ESP Fit Center  723 is at   4.084171  2.037915  3.205338
      ESP Fit Center  724 is at   3.359477  2.762609  3.205338
      ESP Fit Center  725 is at   4.956391  1.047966  2.296953
      ESP Fit Center  726 is at   4.732745  2.100138  2.296953
      ESP Fit Center  727 is at   4.100477  2.970380  2.296953
      ESP Fit Center  728 is at   3.168913  3.508219  2.296953
      ESP Fit Center  729 is at   2.099127  3.620658  2.296953
      ESP Fit Center  730 is at   3.168913 -1.412287  2.296953
      ESP Fit Center  731 is at   4.100477 -0.874448  2.296953
      ESP Fit Center  732 is at   4.732745 -0.004206  2.296953
      ESP Fit Center  733 is at   5.169528  1.047966  1.225439
      ESP Fit Center  734 is at   4.980450  2.059443  1.225439
      ESP Fit Center  735 is at   4.438753  2.934314  1.225439
      ESP Fit Center  736 is at   3.617595  3.554423  1.225439
      ESP Fit Center  737 is at   2.627879  3.836022  1.225439
      ESP Fit Center  738 is at   1.603272  3.741078  1.225439
      ESP Fit Center  739 is at   0.682151  3.282414  1.225439
      ESP Fit Center  740 is at   3.617595 -1.458491  1.225439
      ESP Fit Center  741 is at   4.438753 -0.838382  1.225439
      ESP Fit Center  742 is at   4.980450  0.036489  1.225439
      ESP Fit Center  743 is at   4.956391  1.047966  0.153925
      ESP Fit Center  744 is at   4.732745  2.100138  0.153925
      ESP Fit Center  745 is at   4.100477  2.970380  0.153925
      ESP Fit Center  746 is at   3.168913  3.508219  0.153925
      ESP Fit Center  747 is at   2.099127  3.620658  0.153925
      ESP Fit Center  748 is at   4.100477 -0.874448  0.153925
      ESP Fit Center  749 is at   4.732745 -0.004206  0.153925
      ESP Fit Center  750 is at   4.349427  1.047966 -0.754460
      ESP Fit Center  751 is at   4.084171  2.037915 -0.754460
      ESP Fit Center  752 is at   3.359477  2.762609 -0.754460
      ESP Fit Center  753 is at   4.084171  0.058017 -0.754460
      ESP Fit Center  754 is at   2.905285  1.975924 -1.361424
      ESP Fit Center  755 is at   3.142043 -1.361152  3.345434
      ESP Fit Center  756 is at   1.873157 -1.401617  4.379268
      ESP Fit Center  757 is at   0.879333 -2.151620  3.676499
      ESP Fit Center  758 is at   1.906981 -2.151620  3.676499
      ESP Fit Center  759 is at   2.738365 -1.547584  3.676499
      ESP Fit Center  760 is at  -0.269612 -1.530233  2.716499
      ESP Fit Center  761 is at   0.433157 -2.233002  2.716499
      ESP Fit Center  762 is at   1.393157 -2.490233  2.716499
      ESP Fit Center  763 is at   2.353157 -2.233002  2.716499
      ESP Fit Center  764 is at   3.055926 -1.530233  2.716499
      ESP Fit Center  765 is at   0.879333 -2.151620  1.756499
      ESP Fit Center  766 is at   1.906981 -2.151620  1.756499
      ESP Fit Center  767 is at   4.163875  0.501397  4.479374
      ESP Fit Center  768 is at   3.846314  1.478748  4.479374
      ESP Fit Center  769 is at   3.014930 -1.079990  4.479374
      ESP Fit Center  770 is at   3.846314 -0.475954  4.479374
      ESP Fit Center  771 is at   4.421106  0.501397  3.519374
      ESP Fit Center  772 is at   4.163875  1.461397  3.519374
      ESP Fit Center  773 is at   3.461106 -1.161372  3.519374
      ESP Fit Center  774 is at   4.163875 -0.458603  3.519374
      ESP Fit Center  775 is at  -0.947247  3.145083  2.772225
      ESP Fit Center  776 is at  -1.253119  2.971244  2.585767
      ESP Fit Center  777 is at  -1.955888  2.268475  2.585767
      ESP Fit Center  778 is at  -2.213119  1.308475  2.585767
      ESP Fit Center  779 is at  -1.955888  0.348475  2.585767
      ESP Fit Center  780 is at  -0.806943  2.889862  1.625767
      ESP Fit Center  781 is at   2.479470  2.348078  4.377909
      ESP Fit Center  782 is at   2.479470  3.308078  3.417909
      ESP Fit Center  783 is at   1.776701  4.010847  3.417909
      ESP Fit Center  784 is at   0.816701  4.268078  3.417909
      ESP Fit Center  785 is at  -0.143299  4.010847  3.417909
      ESP Fit Center  786 is at  -0.846068  3.308078  3.417909
      ESP Fit Center  787 is at   1.330525  3.929465  2.457909
      ESP Fit Center  788 is at   0.302877  3.929465  2.457909
      ESP Fit Center  789 is at  -0.528507  3.325429  2.457909
      ESP Fit Center  790 is at   0.336701  3.179462  1.755140
      ESP Fit Center  791 is at  -1.280426  0.713710  7.454104
      ESP Fit Center  792 is at  -1.923555  1.703659  6.847140
      ESP Fit Center  793 is at  -2.188811  0.713710  6.847140
      ESP Fit Center  794 is at  -1.923555 -0.276239  6.847140
      ESP Fit Center  795 is at  -1.198861 -1.000933  6.847140
      ESP Fit Center  796 is at  -0.208912 -1.266189  6.847140
      ESP Fit Center  797 is at  -2.301728  2.234230  5.938755
      ESP Fit Center  798 is at  -2.739246  1.251549  5.938755
      ESP Fit Center  799 is at  -2.739246  0.175871  5.938755
      ESP Fit Center  800 is at  -2.301728 -0.806810  5.938755
      ESP Fit Center  801 is at  -1.502343 -1.526579  5.938755
      ESP Fit Center  802 is at  -0.479313 -1.858982  5.938755
      ESP Fit Center  803 is at   0.590473 -1.746543  5.938755
      ESP Fit Center  804 is at   1.522037 -1.208704  5.938755
      ESP Fit Center  805 is at  -0.975168  3.406822  4.867241
      ESP Fit Center  806 is at  -1.896289  2.948158  4.867241
      ESP Fit Center  807 is at  -2.589520  2.187720  4.867241
      ESP Fit Center  808 is at  -2.961237  1.228209  4.867241
      ESP Fit Center  809 is at  -2.961237  0.199211  4.867241
      ESP Fit Center  810 is at  -2.589520 -0.760300  4.867241
      ESP Fit Center  811 is at  -1.896289 -1.520738  4.867241
      ESP Fit Center  812 is at  -0.975168 -1.979402  4.867241
      ESP Fit Center  813 is at   0.049439 -2.074346  4.867241
      ESP Fit Center  814 is at   1.039155 -1.792747  4.867241
      ESP Fit Center  815 is at   1.860313 -1.172638  4.867241
      ESP Fit Center  816 is at  -1.502343  2.953999  3.795727
      ESP Fit Center  817 is at  -2.301728  2.234230  3.795727
      ESP Fit Center  818 is at  -2.739246  1.251549  3.795727
      ESP Fit Center  819 is at  -2.739246  0.175871  3.795727
      ESP Fit Center  820 is at  -2.301728 -0.806810  3.795727
      ESP Fit Center  821 is at  -1.502343 -1.526579  3.795727
      ESP Fit Center  822 is at  -0.479313 -1.858982  3.795727
      ESP Fit Center  823 is at  -2.188811  0.713710  2.887342
      ESP Fit Center  824 is at  -1.923555 -0.276239  2.887342
      ESP Fit Center  825 is at  -1.198861 -1.000933  2.887342
      ESP Fit Center  826 is at   2.493027 -0.446991  6.743625
      ESP Fit Center  827 is at   3.324411  0.157045  6.743625
      ESP Fit Center  828 is at   2.939203 -0.528373  5.783625
      ESP Fit Center  829 is at   3.641972  0.174396  5.783625
      ESP Fit Center  830 is at   0.803578  0.719948  8.915114
      ESP Fit Center  831 is at   1.763578  0.719948  8.657883
      ESP Fit Center  832 is at  -0.156422  0.719948  8.657883
      ESP Fit Center  833 is at   0.323578 -0.111436  8.657883
      ESP Fit Center  834 is at   1.283578 -0.111436  8.657883
      ESP Fit Center  835 is at  -0.859191  0.719948  7.955114
      ESP Fit Center  836 is at  -0.541630 -0.257403  7.955114
      ESP Fit Center  837 is at   0.289754 -0.861439  7.955114
      ESP Fit Center  838 is at   1.317402 -0.861439  7.955114
      ESP Fit Center  839 is at   2.148786 -0.257403  7.955114
      ESP Fit Center  840 is at   0.803578 -1.200052  6.995114
      ESP Fit Center  841 is at   1.763578 -0.942821  6.995114
      ESP Fit Center  842 is at  -0.691783  4.630391  5.930099
      ESP Fit Center  843 is at   0.853525  5.350211  5.588457
      ESP Fit Center  844 is at  -0.106475  5.092980  5.588457
      ESP Fit Center  845 is at  -0.809244  4.390211  5.588457
      ESP Fit Center  846 is at   0.339701  5.011598  4.628457
      ESP Fit Center  847 is at  -0.491683  4.407562  4.628457
      ESP Fit Center  848 is at   1.333525  4.261595  3.925688
      ESP Fit Center  849 is at   0.373525  4.261595  3.925688
      ESP Fit Center  850 is at  -1.189672  2.947769  8.521603
      ESP Fit Center  851 is at  -0.709672  2.116385  8.521603
      ESP Fit Center  852 is at  -0.743496  4.529156  7.818834
      ESP Fit Center  853 is at  -1.574880  3.925120  7.818834
      ESP Fit Center  854 is at  -1.892441  2.947769  7.818834
      ESP Fit Center  855 is at  -1.574880  1.970418  7.818834
      ESP Fit Center  856 is at  -1.189672  4.610538  6.858834
      ESP Fit Center  857 is at  -1.892441  3.907769  6.858834
      ESP Fit Center  858 is at  -2.149672  2.947769  6.858834
      ESP Fit Center  859 is at  -1.892441  1.987769  6.858834
      ESP Fit Center  860 is at  -1.574880  3.925120  5.898834
      ESP Fit Center  861 is at  -1.892441  2.947769  5.898834
      ESP Fit Center  862 is at   1.896844  3.402007 10.558721
      ESP Fit Center  863 is at   2.968358  3.402007 10.345584
      ESP Fit Center  864 is at   2.432601  4.329965 10.345584
      ESP Fit Center  865 is at   1.361087  4.329965 10.345584
      ESP Fit Center  866 is at   0.825330  3.402007 10.345584
      ESP Fit Center  867 is at   1.361087  2.474049 10.345584
      ESP Fit Center  868 is at   2.432601  2.474049 10.345584
      ESP Fit Center  869 is at   3.876743  3.402007  9.738620
      ESP Fit Center  870 is at   3.611487  4.391956  9.738620
      ESP Fit Center  871 is at   2.886793  5.116650  9.738620
      ESP Fit Center  872 is at   1.896844  5.381906  9.738620
      ESP Fit Center  873 is at   0.906895  5.116650  9.738620
      ESP Fit Center  874 is at   0.182201  4.391956  9.738620
      ESP Fit Center  875 is at  -0.083055  3.402007  9.738620
      ESP Fit Center  876 is at   0.182201  2.412058  9.738620
      ESP Fit Center  877 is at   0.906895  1.687364  9.738620
      ESP Fit Center  878 is at   1.896844  1.422108  9.738620
      ESP Fit Center  879 is at   2.886793  1.687364  9.738620
      ESP Fit Center  880 is at   3.611487  2.412058  9.738620
      ESP Fit Center  881 is at   3.627793  5.324421  8.830235
      ESP Fit Center  882 is at   2.696229  5.862260  8.830235
      ESP Fit Center  883 is at   1.626443  5.974699  8.830235
      ESP Fit Center  884 is at   0.603413  5.642296  8.830235
      ESP Fit Center  885 is at  -0.195972  4.922527  8.830235
      ESP Fit Center  886 is at  -0.633490  3.939846  8.830235
      ESP Fit Center  887 is at  -0.633490  2.864168  8.830235
      ESP Fit Center  888 is at  -0.195972  1.881487  8.830235
      ESP Fit Center  889 is at   1.626443  0.829315  8.830235
      ESP Fit Center  890 is at   2.696229  0.941754  8.830235
      ESP Fit Center  891 is at   3.627793  1.479593  8.830235
      ESP Fit Center  892 is at   1.130588  6.095119  7.758721
      ESP Fit Center  893 is at   0.209467  5.636455  7.758721
      ESP Fit Center  894 is at  -0.483764  4.876017  7.758721
      ESP Fit Center  895 is at   3.144911  0.895550  7.758721
      ESP Fit Center  896 is at   0.603413  5.642296  6.687207
      ESP Fit Center  897 is at   4.229297  1.964971  8.343339
      ESP Fit Center  898 is at   5.789641  3.671800  6.312913
      ESP Fit Center  899 is at   4.204999  3.761500  9.538686
      ESP Fit Center  900 is at   5.164999  3.761500  9.281455
      ESP Fit Center  901 is at   4.684999  4.592884  9.281455
      ESP Fit Center  902 is at   4.684999  2.930116  9.281455
      ESP Fit Center  903 is at   5.867768  3.761500  8.578686
      ESP Fit Center  904 is at   5.550207  4.738851  8.578686
      ESP Fit Center  905 is at   4.718823  5.342887  8.578686
      ESP Fit Center  906 is at   4.718823  2.180113  8.578686
      ESP Fit Center  907 is at   5.550207  2.784149  8.578686
      ESP Fit Center  908 is at   6.124999  3.761500  7.618686
      ESP Fit Center  909 is at   5.867768  4.721500  7.618686
      ESP Fit Center  910 is at   5.164999  5.424269  7.618686
      ESP Fit Center  911 is at   5.164999  2.098731  7.618686
      ESP Fit Center  912 is at   5.867768  2.801500  7.618686
      ESP Fit Center  913 is at   5.867768  3.761500  6.658686
      ESP Fit Center  914 is at   4.207037  1.202089  7.236447
      ESP Fit Center  915 is at   5.038421  1.806125  7.236447
      ESP Fit Center  916 is at   5.613213  2.783476  6.276447
      ESP Fit Center  917 is at   4.653213  1.120707  6.276447
      ESP Fit Center  918 is at   5.355982  1.823476  6.276447
      ESP Fit Center  919 is at   5.355982  2.783476  5.316447
      ESP Fit Center  920 is at   4.207037  1.202089  5.316447
      ESP Fit Center  921 is at   5.038421  1.806125  5.316447
      ESP Fit Center  922 is at   4.653213  2.783476  4.613678
      ESP Fit Center  923 is at   2.733213  2.783476  4.613678
      ESP Fit Center  924 is at   4.173213  1.952092  4.613678
      ESP Fit Center  925 is at   3.693213  2.783476  4.356447
      ESP Fit Center  926 is at   5.041803  5.925630  7.453257
      ESP Fit Center  927 is at   2.004421  6.740524  5.422831
      ESP Fit Center  928 is at   3.196240  6.768471  4.460505
      ESP Fit Center  929 is at   4.242762  3.204345  4.460505
      ESP Fit Center  930 is at   3.983939  5.812984  3.794556
      ESP Fit Center  931 is at   3.983939  4.009364  3.794556
      ESP Fit Center  932 is at   1.760575  6.513707  5.169038
      ESP Fit Center  933 is at   1.057806  5.810938  5.169038
      ESP Fit Center  934 is at   2.206751  6.432325  4.209038
      ESP Fit Center  935 is at   1.375367  5.828289  4.209038
      ESP Fit Center  936 is at   1.057806  4.850938  4.209038
      ESP Fit Center  937 is at   3.234399  3.269551  4.209038
      ESP Fit Center  938 is at   3.680575  4.850938  3.506269
      ESP Fit Center  939 is at   3.200575  5.682322  3.506269
      ESP Fit Center  940 is at   2.240575  5.682322  3.506269
      ESP Fit Center  941 is at   1.760575  4.850938  3.506269
      ESP Fit Center  942 is at   2.240575  4.019554  3.506269
      ESP Fit Center  943 is at   3.200575  4.019554  3.506269
      ESP Fit Center  944 is at   2.720575  4.850938  3.249038
      ESP Fit Center  945 is at   3.264298  5.804840  8.456581
      ESP Fit Center  946 is at   4.224298  5.804840  8.199350
      ESP Fit Center  947 is at   3.744298  6.636224  8.199350
      ESP Fit Center  948 is at   2.784298  6.636224  8.199350
      ESP Fit Center  949 is at   4.609506  6.782191  7.496581
      ESP Fit Center  950 is at   3.778122  7.386227  7.496581
      ESP Fit Center  951 is at   2.750474  7.386227  7.496581
      ESP Fit Center  952 is at   1.919090  6.782191  7.496581
      ESP Fit Center  953 is at   4.927067  6.764840  6.536581
      ESP Fit Center  954 is at   4.224298  7.467609  6.536581
      ESP Fit Center  955 is at   3.264298  7.724840  6.536581
      ESP Fit Center  956 is at   2.304298  7.467609  6.536581
      ESP Fit Center  957 is at   1.601529  6.764840  6.536581
      ESP Fit Center  958 is at   3.778122  7.386227  5.576581
      ESP Fit Center  959 is at   2.750474  7.386227  5.576581
      ESP Fit Center  960 is at   1.919090  6.782191  5.576581
      ESP Fit Center  961 is at   6.098211  5.018472  6.443964
      ESP Fit Center  962 is at   5.780650  5.995823  6.443964
      ESP Fit Center  963 is at   6.355442  5.018472  5.483964
      ESP Fit Center  964 is at   6.098211  5.978472  5.483964
      ESP Fit Center  965 is at   5.395442  6.681241  5.483964
      ESP Fit Center  966 is at   6.098211  4.058472  5.483964
      ESP Fit Center  967 is at   6.098211  5.018472  4.523964
      ESP Fit Center  968 is at   5.780650  5.995823  4.523964
      ESP Fit Center  969 is at   4.949266  6.599859  4.523964
      ESP Fit Center  970 is at   4.949266  3.437085  4.523964
      ESP Fit Center  971 is at   5.780650  4.041121  4.523964
      ESP Fit Center  972 is at   5.395442  5.018472  3.821195
      ESP Fit Center  973 is at   4.915442  5.849856  3.821195
      ESP Fit Center  974 is at   4.915442  4.187088  3.821195
      ESP Fit Center  975 is at   4.435442  5.018472  3.563964
      ESP Fit Center  976 is at  -4.268299  3.993984 -7.635213
      ESP Fit Center  977 is at  -3.392356 -0.409679 -7.635213
      ESP Fit Center  978 is at  -3.914391  4.035055 -8.668458
      ESP Fit Center  979 is at  -2.914184 -0.347137 -8.668458
      ESP Fit Center  980 is at  -1.325866  2.084796-10.129688
      ESP Fit Center  981 is at  -1.842488  2.979613-10.129688
      ESP Fit Center  982 is at  -2.875734  2.979613-10.129688
      ESP Fit Center  983 is at  -2.875734  1.189979-10.129688
      ESP Fit Center  984 is at  -2.359111  2.084796-10.335213
      ESP Fit Center  985 is at   0.466490  1.358755 -8.090931
      ESP Fit Center  986 is at  -2.459457 -0.660880 -8.090931
      ESP Fit Center  987 is at  -1.433151 -0.785496 -8.090931
      ESP Fit Center  988 is at   0.177105  1.358755 -9.170931
      ESP Fit Center  989 is at  -0.119849  2.370086 -9.170931
      ESP Fit Center  990 is at  -1.959726 -0.492820 -9.170931
      ESP Fit Center  991 is at  -0.916428 -0.342816 -9.170931
      ESP Fit Center  992 is at  -0.119849  0.347424 -9.170931
      ESP Fit Center  993 is at  -0.613510  1.358755 -9.961546
      ESP Fit Center  994 is at  -2.233510  0.423448 -9.961546
      ESP Fit Center  995 is at  -1.153510  0.423448 -9.961546
      ESP Fit Center  996 is at  -1.693510  1.358755-10.250931
      ESP Fit Center  997 is at  -5.127257  2.516044 -7.027466
      ESP Fit Center  998 is at  -5.127257  1.462018 -7.027466
      ESP Fit Center  999 is at  -4.949198  3.421376 -8.107466
      ESP Fit Center 1000 is at  -5.429649  2.505953 -8.107466
      ESP Fit Center 1001 is at  -5.429649  1.472109 -8.107466
      ESP Fit Center 1002 is at  -4.949198  0.556686 -8.107466
      ESP Fit Center 1003 is at  -4.098362 -0.030604 -8.107466
      ESP Fit Center 1004 is at  -4.557407  3.402747 -9.187466
      ESP Fit Center 1005 is at  -5.127257  2.516044 -9.187466
      ESP Fit Center 1006 is at  -5.127257  1.462018 -9.187466
      ESP Fit Center 1007 is at  -4.557407  0.575315 -9.187466
      ESP Fit Center 1008 is at  -3.598631  0.137456 -9.187466
      ESP Fit Center 1009 is at  -3.872415  2.924338 -9.978081
      ESP Fit Center 1010 is at  -4.412415  1.989031 -9.978081
      ESP Fit Center 1011 is at  -3.872415  1.053724 -9.978081
      ESP Fit Center 1012 is at  -3.332415  1.989031-10.267466
      ESP Fit Center 1013 is at  -0.397147  4.086633 -6.763655
      ESP Fit Center 1014 is at  -1.193726  4.776873 -6.763655
      ESP Fit Center 1015 is at  -2.237024  4.926877 -6.763655
      ESP Fit Center 1016 is at   0.189192  3.075302 -7.843655
      ESP Fit Center 1017 is at  -0.058223  4.079104 -7.843655
      ESP Fit Center 1018 is at  -0.743788  4.852947 -7.843655
      ESP Fit Center 1019 is at  -1.710449  5.219553 -7.843655
      ESP Fit Center 1020 is at  -2.736755  5.094937 -7.843655
      ESP Fit Center 1021 is at  -3.587591  4.507647 -7.843655
      ESP Fit Center 1022 is at  -0.100193  3.075302 -8.923655
      ESP Fit Center 1023 is at  -0.397147  4.086633 -8.923655
      ESP Fit Center 1024 is at  -1.193726  4.776873 -8.923655
      ESP Fit Center 1025 is at  -2.237024  4.926877 -8.923655
      ESP Fit Center 1026 is at  -3.195800  4.489018 -8.923655
      ESP Fit Center 1027 is at  -0.890808  3.075302 -9.714270
      ESP Fit Center 1028 is at  -1.430808  4.010609 -9.714270
      ESP Fit Center 1029 is at  -2.510808  4.010609 -9.714270
      ESP Fit Center 1030 is at  -4.306194  1.335374 -4.223628
      ESP Fit Center 1031 is at  -5.174341  1.873255 -6.132816
      ESP Fit Center 1032 is at  -3.691318  3.539170 -3.837201
      ESP Fit Center 1033 is at  -4.231318  2.603863 -3.837201
      ESP Fit Center 1034 is at  -2.374236  4.305434 -4.627816
      ESP Fit Center 1035 is at  -3.417534  4.455438 -4.627816
      ESP Fit Center 1036 is at  -4.376310  4.017579 -4.627816
      ESP Fit Center 1037 is at  -4.946160  3.130876 -4.627816
      ESP Fit Center 1038 is at  -4.946160  2.076850 -4.627816
      ESP Fit Center 1039 is at  -2.890959  4.748114 -5.707816
      ESP Fit Center 1040 is at  -3.917265  4.623498 -5.707816
      ESP Fit Center 1041 is at  -4.768101  4.036208 -5.707816
      ESP Fit Center 1042 is at  -5.248552  3.120785 -5.707816
      ESP Fit Center 1043 is at  -5.248552  2.086941 -5.707816
      ESP Fit Center 1044 is at  -3.417534  4.455438 -6.787816
      ESP Fit Center 1045 is at  -4.376310  4.017579 -6.787816
      ESP Fit Center 1046 is at  -4.946160  3.130876 -6.787816
      ESP Fit Center 1047 is at  -3.964908  0.889299 -4.046274
      ESP Fit Center 1048 is at  -4.679750  0.362286 -4.836889
[...]
 1241 Fit      -0.017123
 1242 Fit      -0.005134
 1243 Fit      -0.014189
 1244 Fit      -0.018440
 1245 Fit      -0.015206
 1246 Fit      -0.014686
 1247 Fit      -0.013987
 1248 Fit      -0.013846
 1249 Fit      -0.013085
 1250 Fit      -0.008292
 1251 Fit      -0.013641
 1252 Fit      -0.007666
 1253 Fit      -0.008218
 1254 Fit      -0.007601
 1255 Fit      -0.004704
 1256 Fit      -0.001581
 1257 Fit      -0.002384
 1258 Fit       0.001070
 1259 Fit       0.003746
 1260 Fit       0.005759
 1261 Fit       0.006499
 1262 Fit       0.004767
 1263 Fit       0.013895
 1264 Fit       0.010788
 1265 Fit       0.004061
 1266 Fit       0.007189
 1267 Fit       0.001110
 1268 Fit       0.001329
 1269 Fit       0.000453
 1270 Fit      -0.010007
 1271 Fit      -0.012599
 1272 Fit      -0.013801
 1273 Fit      -0.010965
 1274 Fit       0.008325
 1275 Fit       0.008026
 1276 Fit       0.003270
 1277 Fit      -0.003674
 1278 Fit      -0.005285
 1279 Fit      -0.003823
 1280 Fit      -0.007107
 1281 Fit      -0.001281
 1282 Fit      -0.005901
 1283 Fit      -0.010218
 1284 Fit      -0.010056
 1285 Fit      -0.008730
 1286 Fit      -0.005889
 1287 Fit      -0.016477
 1288 Fit      -0.017454
 1289 Fit      -0.016481
 1290 Fit      -0.015692
 1291 Fit      -0.015329
 1292 Fit      -0.014083
 1293 Fit      -0.010408
 1294 Fit      -0.018845
 1295 Fit      -0.021379
 1296 Fit      -0.020735
 1297 Fit      -0.019128
 1298 Fit      -0.018250
 1299 Fit      -0.018402
 1300 Fit      -0.018461
 1301 Fit      -0.016688
 1302 Fit      -0.011882
 1303 Fit      -0.003544
 1304 Fit      -0.013535
 1305 Fit      -0.019122
 1306 Fit      -0.020578
 1307 Fit      -0.019323
 1308 Fit      -0.017378
 1309 Fit      -0.016295
 1310 Fit      -0.016253
 1311 Fit      -0.015963
 1312 Fit      -0.013494
 1313 Fit      -0.014623
 1314 Fit      -0.016140
 1315 Fit      -0.014673
 1316 Fit      -0.012125
 1317 Fit      -0.010051
 1318 Fit      -0.008300
 1319 Fit      -0.004608
 1320 Fit      -0.004154
 1321 Fit       0.000355
 1322 Fit      -0.003272
 1323 Fit       0.001634
 1324 Fit       0.004174
 1325 Fit       0.006183
 1326 Fit       0.010777
 1327 Fit      -0.008084
 1328 Fit      -0.001189
 1329 Fit      -0.000793
 1330 Fit      -0.003530
 1331 Fit       0.001905
 1332 Fit      -0.000485
 1333 Fit      -0.000801
 1334 Fit      -0.000588
 1335 Fit      -0.000760
 1336 Fit      -0.003296
 1337 Fit      -0.004211
 1338 Fit      -0.000835
 1339 Fit      -0.006901
 1340 Fit      -0.001018
 1341 Fit      -0.001644
 1342 Fit       0.006049
 1343 Fit       0.002076
 1344 Fit      -0.003730
 1345 Fit      -0.001539
 1346 Fit      -0.000633
 1347 Fit      -0.003567
 1348 Fit      -0.001173
 1349 Fit      -0.001421
 1350 Fit      -0.000338
 1351 Fit      -0.004896
 1352 Fit      -0.002584
 1353 Fit      -0.003702
 1354 Fit      -0.007812
 1355 Fit      -0.003721
 1356 Fit      -0.009196
 1357 Fit      -0.018585
 1358 Fit      -0.014802
 1359 Fit      -0.015884
 1360 Fit      -0.019023
 1361 Fit      -0.018341
 1362 Fit      -0.019279
 1363 Fit      -0.018965
 1364 Fit      -0.007415
 1365 Fit      -0.007048
 1366 Fit      -0.012153
 1367 Fit      -0.018096
 1368 Fit      -0.020315
 1369 Fit      -0.017891
 1370 Fit      -0.014443
 1371 Fit      -0.013997
 1372 Fit      -0.016780
 1373 Fit      -0.019766
 1374 Fit      -0.018847
 1375 Fit      -0.013287
 1376 Fit      -0.002410
 1377 Fit      -0.010485
 1378 Fit      -0.017940
 1379 Fit      -0.021341
 1380 Fit      -0.019224
 1381 Fit      -0.013443
 1382 Fit      -0.007903
 1383 Fit      -0.006059
 1384 Fit      -0.007482
 1385 Fit      -0.010985
 1386 Fit      -0.015902
 1387 Fit      -0.017219
 1388 Fit      -0.013007
 1389 Fit      -0.004917
 1390 Fit      -0.018477
 1391 Fit      -0.019989
 1392 Fit      -0.015553
 1393 Fit      -0.007281
 1394 Fit      -0.010138
 1395 Fit      -0.005332
 1396 Fit      -0.015495
 1397 Fit      -0.011028
 1398 Fit      -0.007904
 1399 Fit       0.001772
 1400 Fit       0.006311
 1401 Fit       0.003681
 1402 Fit       0.002772
 1403 Fit      -0.000713
 1404 Fit       0.006162
 1405 Fit       0.006194
 1406 Fit       0.004587
 1407 Fit       0.000933
 1408 Fit      -0.000004
 1409 Fit       0.004334
 1410 Fit       0.007005
 1411 Fit       0.007207
 1412 Fit       0.004054
 1413 Fit       0.005809
 1414 Fit       0.002437
 1415 Fit       0.008105
 1416 Fit       0.006858
 1417 Fit       0.008007
 1418 Fit       0.013405
 1419 Fit       0.008945
 1420 Fit       0.008454
 1421 Fit       0.013521
 1422 Fit       0.012096
 1423 Fit       0.004210
 1424 Fit       0.003812
 1425 Fit      -0.005557
 1426 Fit      -0.000068
 1427 Fit      -0.000605
 1428 Fit      -0.000826
 1429 Fit       0.000436
 1430 Fit      -0.000128
 1431 Fit       0.013355
 1432 Fit       0.007078
 1433 Fit       0.000167
 1434 Fit       0.001625
 1435 Fit      -0.000677
 1436 Fit       0.000446
 1437 Fit       0.002088
 1438 Fit       0.006080
 1439 Fit       0.000451
 1440 Fit       0.002210
 1441 Fit       0.005696
 1442 Fit       0.002688
 1443 Fit       0.001350
 1444 Fit       0.003234
 1445 Fit      -0.000447
 1446 Fit      -0.006437
 1447 Fit       0.002033
 1448 Fit       0.001132
 1449 Fit      -0.000747
 1450 Fit      -0.005675
 1451 Fit       0.001170
 1452 Fit       0.000810
 1453 Fit      -0.000757
 1454 Fit      -0.004159
 1455 Fit      -0.009855
 1456 Fit       0.000232
 1457 Fit      -0.000256
 1458 Fit      -0.001584
 1459 Fit       0.006369
 1460 Fit       0.003951
 1461 Fit       0.005890
 1462 Fit       0.004469
 1463 Fit       0.002488
 1464 Fit       0.006862
 1465 Fit       0.004940
 1466 Fit       0.003858
 1467 Fit       0.001989
 1468 Fit       0.006448
 1469 Fit       0.005298
 1470 Fit       0.002806
 1471 Fit       0.001651
 1472 Fit       0.002367
 1473 Fit       0.000517
 1474 Fit       0.007629
 1475 Fit       0.010285
 1476 Fit       0.003208
 1477 Fit       0.006161
 1478 Fit       0.012570
 1479 Fit       0.013341
 1480 Fit       0.005166
 1481 Fit       0.010100
 1482 Fit       0.003643
 1483 Fit       0.005423
 1484 Fit       0.004997
 1485 Fit       0.004182
 1486 Fit       0.004831
 1487 Fit       0.006611
 1488 Fit       0.005173
 1489 Fit       0.018145
 1490 Fit       0.007290
 1491 Fit       0.013257
 1492 Fit       0.014605
 1493 Fit       0.014389
 1494 Fit       0.011638
 1495 Fit       0.007044
 1496 Fit       0.010506
 1497 Fit       0.011072
 1498 Fit       0.009847
 1499 Fit       0.006671
 1500 Fit       0.007846
 1501 Fit       0.008392
 1502 Fit       0.006267
 1503 Fit       0.010455
 1504 Fit       0.011647
 1505 Fit       0.012606
 1506 Fit       0.013661
 1507 Fit       0.007382
 1508 Fit       0.009078
 1509 Fit       0.010270
 1510 Fit       0.010914
 1511 Fit       0.011161
 1512 Fit       0.006971
 1513 Fit       0.008571
 1514 Fit       0.009428
 1515 Fit       0.009486
 1516 Fit       0.009076
 1517 Fit       0.006250
 1518 Fit       0.007747
 1519 Fit       0.007838
 1520 Fit       0.006297
 1521 Fit      -0.007177
 1522 Fit       0.000179
 1523 Fit      -0.005865
 1524 Fit      -0.002297
 1525 Fit       0.000929
 1526 Fit       0.003384
 1527 Fit       0.005562
 1528 Fit       0.000382
 1529 Fit       0.001817
 1530 Fit       0.003307
 1531 Fit       0.004357
 1532 Fit       0.005120
 1533 Fit       0.002862
 1534 Fit       0.003008
 1535 Fit       0.003881
 1536 Fit       0.004507
 1537 Fit       0.004818
 1538 Fit       0.004037
 1539 Fit       0.004398
 1540 Fit       0.010759
 1541 Fit       0.011409
 1542 Fit      -0.002953
 1543 Fit       0.012452
 1544 Fit       0.012798
 1545 Fit       0.013573
 1546 Fit       0.005612
 1547 Fit       0.007875
 1548 Fit      -0.002835
 1549 Fit       0.003824
 1550 Fit       0.006968
 1551 Fit       0.008622
 1552 Fit       0.009850
 1553 Fit      -0.000205
 1554 Fit       0.004959
 1555 Fit       0.007689
 1556 Fit       0.009322
 1557 Fit       0.010506
 1558 Fit       0.002111
 1559 Fit       0.005985
 1560 Fit       0.008406
 1561 Fit       0.010207
 1562 Fit       0.011868
 1563 Fit       0.012737
 1564 Fit       0.015406
 1565 Fit       0.012703
 1566 Fit       0.013389
 1567 Fit       0.015022
 1568 Fit       0.017710
 1569 Fit       0.013904
 1570 Fit       0.014795
 1571 Fit       0.016655
 1572 Fit       0.020082
 1573 Fit       0.014572
 1574 Fit       0.016015
 1575 Fit      -0.010793
 1576 Fit      -0.011219
 1577 Fit      -0.008260
 1578 Fit      -0.011758
 1579 Fit      -0.013899
 1580 Fit      -0.011534
 1581 Fit      -0.011224
 1582 Fit      -0.010522
 1583 Fit       0.013537
 1584 Fit       0.010914
 1585 Fit       0.008221
 1586 Fit       0.003716
 1587 Fit      -0.004053
 1588 Fit      -0.004692
 1589 Fit      -0.006068
 1590 Fit       0.002907
 1591 Fit       0.000851
 1592 Fit      -0.002180
 1593 Fit      -0.008461
 1594 Fit       0.005265
 1595 Fit       0.005614
 1596 Fit       0.003111
 1597 Fit      -0.000704
 1598 Fit      -0.008388
 1599 Fit       0.008105
 1600 Fit       0.006566
 1601 Fit       0.003331
 1602 Fit      -0.002021
 1603 Fit       0.009537
 1604 Fit       0.006921
 1605 Fit       0.019030
 1606 Fit       0.017813
 1607 Fit       0.016837
 1608 Fit       0.015361
 1609 Fit       0.017514
 1610 Fit       0.016300
 1611 Fit       0.014858
 1612 Fit       0.012931
 1613 Fit       0.012186
 1614 Fit       0.014540
 1615 Fit       0.009660
 1616 Fit       0.009764
 1617 Fit       0.011957
 1618 Fit       0.017995
 1619 Fit       0.009751
 1620 Fit       0.009426
 1621 Fit       0.012778
 1622 Fit       0.012473
 1623 Fit       0.012009
 1624 Fit       0.011804
 1625 Fit       0.015829
 1626 Fit       0.014909
 1627 Fit       0.014800
 1628 Fit       0.018908
 1629 Fit       0.009874
 1630 Fit       0.008760
 1631 Fit       0.005113
 1632 Fit       0.002368
 1633 Fit       0.011683
 1634 Fit       0.011098
 1635 Fit       0.009714
 1636 Fit       0.007016
 1637 Fit       0.008410
 1638 Fit       0.013769
 1639 Fit       0.012976
 1640 Fit       0.011885
 1641 Fit       0.010256
 1642 Fit       0.016090
 1643 Fit       0.014845
 1644 Fit       0.013896
 1645 Fit      -0.006087
 1646 Fit       0.006307
 1647 Fit       0.005242
 1648 Fit       0.005571
 1649 Fit      -0.001862
 1650 Fit      -0.002600
 1651 Fit      -0.003336
 1652 Fit       0.004145
 1653 Fit       0.004295
 1654 Fit       0.004737
 1655 Fit       0.005227
 1656 Fit       0.006910
 1657 Fit       0.008235
 1658 Fit       0.009869
 1659 Fit       0.003699
 1660 Fit       0.004549
 1661 Fit       0.005137
 1662 Fit      -0.003746
 1663 Fit      -0.002837
 1664 Fit      -0.001999
 1665 Fit      -0.000777
 1666 Fit       0.001026
 1667 Fit      -0.003027
 1668 Fit      -0.002301
 1669 Fit       0.000286
 1670 Fit       0.002030
 1671 Fit      -0.009708
 1672 Fit      -0.007820
 1673 Fit      -0.004157
 1674 Fit      -0.001585
 1675 Fit      -0.002246
 1676 Fit      -0.006365
 1677 Fit      -0.002856
 1678 Fit       0.000465
 1679 Fit       0.001968
 1680 Fit       0.002003
 1681 Fit       0.000539
 1682 Fit      -0.003079
 1683 Fit       0.002659
 1684 Fit       0.004037
 1685 Fit       0.004681
 1686 Fit       0.004706
 1687 Fit       0.005162
 1688 Fit      -0.008046
 1689 Fit      -0.003845
 1690 Fit      -0.002575
 1691 Fit      -0.000110
 1692 Fit      -0.003081
 1693 Fit      -0.001968
 1694 Fit      -0.000358
 1695 Fit      -0.014443
 1696 Fit      -0.016963
 1697 Fit      -0.015669
 1698 Fit      -0.011130
 1699 Fit      -0.011540
 1700 Fit      -0.008320
 1701 Fit      -0.006935
 1702 Fit      -0.000072
 1703 Fit       0.007550
 1704 Fit       0.010756
 1705 Fit      -0.003210
 1706 Fit       0.002173
 1707 Fit       0.010565
 1708 Fit       0.005361
 1709 Fit       0.008033
 1710 Fit       0.005383
 1711 Fit       0.007177
 1712 Fit       0.008529
 1713 Fit       0.009534
 1714 Fit       0.009393
 1715 Fit       0.008340
 1716 Fit      -0.003875
 1717 Fit      -0.000387
 1718 Fit       0.003507
 1719 Fit      -0.007121
 1720 Fit      -0.001238
 1721 Fit       0.002542
 1722 Fit       0.005815
 1723 Fit       0.009729
 1724 Fit      -0.000245
 1725 Fit       0.005666
 1726 Fit       0.004288
 1727 Fit      -0.000065
 1728 Fit      -0.001136
 1729 Fit       0.003023
 1730 Fit       0.001435
 1731 Fit      -0.001594
 1732 Fit      -0.000745
 1733 Fit       0.009781
 1734 Fit       0.006454
 1735 Fit       0.009580
 1736 Fit       0.007585
 1737 Fit       0.004319
 1738 Fit      -0.001856
 1739 Fit       0.009496
 1740 Fit       0.007623
 1741 Fit       0.004846
 1742 Fit       0.000406
 1743 Fit       0.008555
 1744 Fit       0.006314
 1745 Fit       0.003207
 1746 Fit      -0.002844
 1747 Fit      -0.001075
 1748 Fit       0.000702
 1749 Fit      -0.003244
 1750 Fit      -0.010537
 1751 Fit      -0.009050
 1752 Fit      -0.007453
 1753 Fit      -0.006578
 1754 Fit      -0.006018
 1755 Fit      -0.005102
 1756 Fit       0.001981
 1757 Fit      -0.004407
 1758 Fit      -0.008777
 1759 Fit      -0.010740
 1760 Fit      -0.014222
 1761 Fit      -0.013197
 1762 Fit      -0.011981
 1763 Fit      -0.011298
 1764 Fit      -0.011278
 1765 Fit      -0.011523
 1766 Fit      -0.011722
 1767 Fit      -0.012406
 1768 Fit      -0.000045
 1769 Fit      -0.007224
 1770 Fit      -0.011898
 1771 Fit      -0.014074
 1772 Fit      -0.013956
 1773 Fit      -0.013408
 1774 Fit      -0.012615
 1775 Fit      -0.012271
 1776 Fit      -0.012281
 1777 Fit      -0.011915
 1778 Fit      -0.003610
 1779 Fit      -0.009918
 1780 Fit      -0.013136
 1781 Fit      -0.010444
 1782 Fit      -0.010544
 1783 Fit      -0.010182
 1784 Fit      -0.009648
 1785 Fit      -0.004675
 1786 Fit      -0.008797
 1787 Fit      -0.005021
 1788 Fit      -0.005789
 1789 Fit      -0.005221
 1790 Fit      -0.000453
 1791 Fit      -0.000090
 1792 Fit      -0.001230
 1793 Fit      -0.002516
 1794 Fit       0.001263
 1795 Fit       0.002808
 1796 Fit       0.002349
 1797 Fit       0.007960
 1798 Fit       0.007390
 1799 Fit       0.004395
 1800 Fit       0.011217
 1801 Fit       0.003623
 1802 Fit       0.007064
 1803 Fit       0.004413
 1804 Fit       0.007559
 1805 Fit       0.002245
 1806 Fit       0.002853
 1807 Fit      -0.007847
 1808 Fit      -0.011833
 1809 Fit      -0.013156
 1810 Fit      -0.016033
 1811 Fit      -0.015844
 1812 Fit      -0.010560
 1813 Fit       0.001277
 1814 Fit       0.002181
 1815 Fit       0.000321
 1816 Fit      -0.003629
 1817 Fit      -0.007585
 1818 Fit      -0.001620
 1819 Fit      -0.007557
 1820 Fit      -0.007751
 1821 Fit      -0.006591
 1822 Fit      -0.004048
 1823 Fit      -0.011353
 1824 Fit      -0.012925
 1825 Fit      -0.012616
 1826 Fit      -0.011963
 1827 Fit      -0.011235
 1828 Fit      -0.009736
 1829 Fit      -0.006668
 1830 Fit      -0.011094
 1831 Fit      -0.015258
 1832 Fit      -0.016413
 1833 Fit      -0.015899
 1834 Fit      -0.015029
 1835 Fit      -0.014523
 1836 Fit      -0.014277
 1837 Fit      -0.013541
 1838 Fit      -0.011432
 1839 Fit      -0.007445
 1840 Fit      -0.001354
 1841 Fit      -0.010495
 1842 Fit      -0.015012
 1843 Fit      -0.017124
 1844 Fit      -0.017239
 1845 Fit      -0.016264
 1846 Fit      -0.015154
 1847 Fit      -0.014490
 1848 Fit      -0.014247
 1849 Fit      -0.013845
 1850 Fit      -0.012467
 1851 Fit      -0.009567
 1852 Fit      -0.005158
 1853 Fit      -0.008443
 1854 Fit      -0.013521
 1855 Fit      -0.015688
 1856 Fit      -0.015560
 1857 Fit      -0.014143
 1858 Fit      -0.012541
 1859 Fit      -0.011366
 1860 Fit      -0.010393
 1861 Fit      -0.008647
 1862 Fit      -0.013969
 1863 Fit      -0.012421
 1864 Fit      -0.009406
 1865 Fit      -0.006130
 1866 Fit      -0.002709
 1867 Fit      -0.001521
 1868 Fit       0.000694
 1869 Fit       0.003855
 1870 Fit       0.007090
 1871 Fit      -0.003363
 1872 Fit      -0.002720
 1873 Fit      -0.005275
 1874 Fit      -0.000305
 1875 Fit      -0.001630
 1876 Fit      -0.001722
 1877 Fit      -0.001593
 1878 Fit      -0.002142
 1879 Fit      -0.005223
 1880 Fit      -0.004258
 1881 Fit      -0.002548
 1882 Fit      -0.001259
 1883 Fit      -0.003497
 1884 Fit      -0.004624
 1885 Fit       0.000947
 1886 Fit      -0.000801
 1887 Fit       0.005118
 1888 Fit       0.001448
 1889 Fit      -0.005390
 1890 Fit      -0.002643
 1891 Fit      -0.002274
 1892 Fit      -0.001297
 1893 Fit      -0.004313
 1894 Fit      -0.003156
 1895 Fit      -0.004325
 1896 Fit      -0.006455
 1897 Fit      -0.003826
 1898 Fit      -0.005278
 1899 Fit      -0.009929
 1900 Fit      -0.015360
 1901 Fit      -0.012734
 1902 Fit      -0.013526
 1903 Fit      -0.015697
 1904 Fit      -0.015435
 1905 Fit      -0.015821
 1906 Fit      -0.015350
 1907 Fit      -0.007750
 1908 Fit      -0.007545
 1909 Fit      -0.010850
 1910 Fit      -0.014772
 1911 Fit      -0.016419
 1912 Fit      -0.015172
 1913 Fit      -0.013161
 1914 Fit      -0.012793
 1915 Fit      -0.014276
 1916 Fit      -0.015825
 1917 Fit      -0.015005
 1918 Fit      -0.011406
 1919 Fit      -0.003988
 1920 Fit      -0.009463
 1921 Fit      -0.014501
 1922 Fit      -0.016945
 1923 Fit      -0.015876
 1924 Fit      -0.012449
 1925 Fit      -0.009101
 1926 Fit      -0.007847
 1927 Fit      -0.008642
 1928 Fit      -0.010818
 1929 Fit      -0.013517
 1930 Fit      -0.014000
 1931 Fit      -0.011024
 1932 Fit      -0.005659
 1933 Fit      -0.008509
 1934 Fit      -0.014121
 1935 Fit      -0.016513
 1936 Fit      -0.015099
 1937 Fit      -0.010885
 1938 Fit      -0.005749
 1939 Fit      -0.001883
 1940 Fit      -0.010026
 1941 Fit      -0.009233
 1942 Fit      -0.005292
 1943 Fit      -0.012962
 1944 Fit      -0.014125
 1945 Fit      -0.011682
 1946 Fit      -0.002076
 1947 Fit      -0.009855
 1948 Fit      -0.008504
 1949 Fit       0.003785
 1950 Fit       0.006584
 1951 Fit       0.005803
 1952 Fit       0.001566
 1953 Fit       0.000699
 1954 Fit      -0.002319
 1955 Fit       0.004188
 1956 Fit       0.004205
 1957 Fit       0.002650
 1958 Fit      -0.001649
 1959 Fit       0.002516
 1960 Fit       0.005426
 1961 Fit       0.005566
 1962 Fit       0.004748
 1963 Fit       0.002525
 1964 Fit       0.004414
 1965 Fit       0.006209
 1966 Fit       0.006510
 1967 Fit       0.005455
 1968 Fit       0.005288
 1969 Fit       0.004863
 1970 Fit       0.005036
 1971 Fit       0.007763
 1972 Fit       0.006357
 1973 Fit       0.006667
 1974 Fit       0.012291
 1975 Fit       0.007486
 1976 Fit       0.006554
 1977 Fit       0.003581
 1978 Fit       0.003770
 1979 Fit       0.001837
 1980 Fit       0.000536
 1981 Fit      -0.002063
 1982 Fit      -0.002465
 1983 Fit       0.000058
 1984 Fit      -0.000511
 1985 Fit      -0.000527
 1986 Fit       0.000146
 1987 Fit      -0.000194
 1988 Fit       0.004086
 1989 Fit      -0.000355
 1990 Fit      -0.000308
 1991 Fit      -0.000181
 1992 Fit       0.002015
 1993 Fit       0.000296
 1994 Fit       0.001517
 1995 Fit       0.004322
 1996 Fit      -0.000242
 1997 Fit       0.000930
 1998 Fit       0.002886
 1999 Fit      -0.000057
 2000 Fit      -0.000513
 2001 Fit      -0.001713
 2002 Fit      -0.007563
 2003 Fit       0.001517
 2004 Fit       0.000068
 2005 Fit      -0.002186
 2006 Fit      -0.007276
 2007 Fit       0.001010
 2008 Fit       0.000337
 2009 Fit      -0.001131
 2010 Fit      -0.004141
 2011 Fit      -0.009833
 2012 Fit       0.000678
 2013 Fit       0.000246
 2014 Fit      -0.000647
 2015 Fit      -0.002381
 2016 Fit       0.006018
 2017 Fit       0.005107
 2018 Fit       0.003766
 2019 Fit       0.002198
 2020 Fit       0.006266
 2021 Fit       0.004509
 2022 Fit       0.003596
 2023 Fit       0.002269
 2024 Fit       0.006324
 2025 Fit       0.005127
 2026 Fit       0.003302
 2027 Fit       0.002622
 2028 Fit       0.001349
 2029 Fit       0.004090
 2030 Fit       0.003409
 2031 Fit       0.001380
 2032 Fit       0.000771
 2033 Fit       0.000752
 2034 Fit      -0.000323
 Job cpu time:       0 days  0 hours  5 minutes 15.7 seconds.
 Normal termination of Gaussian 16 at Sat Jul  8 20:47:53 2023.
