 Copyright (c) 1988-2019, Gaussian, Inc.  All Rights Reserved.
  
 This is part of the Gaussian(R) 16 program.  It is based on
 the Gaussian(R) 09 system (copyright 2009, Gaussian, Inc.),
 the Gaussian(R) 03 system (copyright 2003, Gaussian, Inc.),
 the Gaussian(R) 98 system (copyright 1998, Gaussian, Inc.),
 the Gaussian(R) 94 system (copyright 1995, Gaussian, Inc.),
 the Gaussian 92(TM) system (copyright 1992, Gaussian, Inc.),
 the Gaussian 90(TM) system (copyright 1990, Gaussian, Inc.),
 the Gaussian 88(TM) system (copyright 1988, Gaussian, Inc.),
 the Gaussian 86(TM) system (copyright 1986, Carnegie Mellon
 University), and the Gaussian 82(TM) system (copyright 1983,
 Carnegie Mellon University). Gaussian is a federally registered
 trademark of Gaussian, Inc.
 Cite this work as:
 Gaussian 16, Revision C.01,
 M. J. Frisch, G. W. Trucks, H. B. Schlegel, G. E. Scuseria, 
 M. A. Robb, J. R. Cheeseman, G. Scalmani, V. Barone, 
 G. A. Petersson, H. Nakatsuji, X. Li, M. Caricato, A. V. Marenich, 
 J. Bloino, B. G. Janesko, R. Gomperts, B. Mennucci, H. P. Hratchian, 
 J. V. Ortiz, A. F. Izmaylov, J. L. Sonnenberg, D. Williams-Young, 
 F. Ding, F. Lipparini, F. Egidi, J. Goings, B. Peng, A. Petrone, 
 T. Henderson, D. Ranasinghe, V. G. Zakrzewski, J. Gao, N. Rega, 
 G. Zheng, W. Liang, M. Hada, M. Ehara, K. Toyota, R. Fukuda, 
 J. Hasegawa, M. Ishida, T. Nakajima, Y. Honda, O. Kitao, H. Nakai, 
 T. Vreven, K. Throssell, J. A. Montgomery, Jr., J. E. Peralta, 
 F. Ogliaro, M. J. Bearpark, J. J. Heyd, E. N. Brothers, K. N. Kudin, 
 V. N. Staroverov, T. A. Keith, R. Kobayashi, J. Normand, 
 K. Raghavachari, A. P. Rendell, J. C. Burant, S. S. Iyengar, 
 J. Tomasi, M. Cossi, J. M. Millam, M. Klene, C. Adamo, R. Cammi, 
 J. W. Ochterski, R. L. Martin, K. Morokuma, O. Farkas, 
 J. B. Foresman, and D. J. Fox, Gaussian, Inc., Wallingford CT, 2019.
 
 ******************************************
 Gaussian 16:  EM64L-G16RevC.01  3-Jul-2019
                 8-Jul-2023 
 ******************************************
 ----------------------------------------------------------------------
 #P HF/6-31G(d) SCF(Conver=8,XQC,MaxConventionalCycles=64,MaxCycle=128)
  NoSymm Test Pop=mk IOp(6/33=2) GFInput GFPrint
 ----------------------------------------------------------------------
 1/38=1,172=1/1;
 2/12=2,15=1,17=6,18=5,40=1/2;
 3/5=1,6=6,7=1,11=9,24=110,25=1,30=1/1,2,3;
 4//1;
 5/5=2,6=8,7=128,8=3,13=1,38=5,85=64/2,8;
 6/7=2,8=2,9=2,10=2,15=8,20=1,28=1,33=2/1,2;
 99/5=1,9=1/99;
 -------------------------------------------------
 MEP step - Input generated by PyRED DVE-DMDS-OPLS
 -------------------------------------------------
 Symbolic Z-matrix:
 Charge =  0 Multiplicity = 1
 C                    -2.31071   7.06316   0.47934 
 H                    -2.30999   6.52565  -0.46202 
 H                    -3.19324   7.69432   0.51751 
 H                    -1.43076   7.69539   0.51048 
 C                    -2.30199   6.08995   1.64184 
 H                    -2.31127   6.62868   2.58896 
 H                    -3.19495   5.46873   1.61418 
 O                    -1.14566   5.30901   1.54964 
 C                    -0.9359    4.39145   2.57822 
 H                    -1.19545   4.828     3.54223 
 H                     0.12363   4.17076   2.58466 
 C                    -1.69836   3.09089   2.40473 
 H                    -1.55058   2.47619   3.29285 
 H                    -2.76721   3.27498   2.31082 
 O                    -1.22145   2.43103   1.27258 
 C                    -1.87216   1.23345   0.97744 
 H                    -2.9266    1.42126   0.77187 
 H                    -1.81362   0.54496   1.81881 
 C                    -1.24248   0.59198  -0.24373 
 H                    -1.16764   1.33055  -1.03784 
 H                    -1.89269  -0.20588  -0.58416 
 O                     0.        0.        0. 
 C                     1.11985   0.84731   0. 
 H                     1.10392   1.51055   0.85344 
 H                     1.11067   1.45905  -0.90131 
 C                     2.37955   0.        0. 
 H                     3.23302   0.65071  -0.15594 
 H                     2.35997  -0.70114  -0.82438 
 S                     2.77625  -0.86534   1.54764 
 C                     1.52187  -2.17653   1.6845 
 H                     1.80477  -2.7134    2.58194 
 H                     0.55481  -1.72607   1.85051 
 C                     1.40131  -3.1486    0.51393 
 H                     1.05701  -2.62449  -0.366 
 H                     0.64729  -3.88439   0.77316 
 S                     2.95714  -4.03198   0.1688 
 C                     2.3419   -5.42361  -0.82362 
 H                     1.51064  -5.89159  -0.30936 
 H                     3.152    -6.14173  -0.84486 
 C                     1.95101  -5.04296  -2.24972 
 H                     1.16555  -4.29931  -2.24057 
 H                     2.80718  -4.626    -2.76486 
 S                     1.37998  -6.52793  -3.1376 
 C                     1.19796  -5.89194  -4.8316 
 H                     2.12849  -5.42085  -5.12727 
 H                     1.08234  -6.77684  -5.44614 
 C                     0.01851  -4.94803  -5.04671 
 H                     0.11835  -4.04057  -4.46154 
 H                    -0.04024  -4.65977  -6.09258 
 H                    -0.91479  -5.42547  -4.77146 
 
 ITRead=  0  0  0  0  0  0  0  0  0  0  0  0  0  0  0  0  0  0  0  0
 ITRead=  0  0  0  0  0  0  0  0  0  0  0  0  0  0  0  0  0  0  0  0
 ITRead=  0  0  0  0  0  0  0  0  0  0
 MicOpt= -1 -1 -1 -1 -1 -1 -1 -1 -1 -1 -1 -1 -1 -1 -1 -1 -1 -1 -1 -1
 MicOpt= -1 -1 -1 -1 -1 -1 -1 -1 -1 -1 -1 -1 -1 -1 -1 -1 -1 -1 -1 -1
 MicOpt= -1 -1 -1 -1 -1 -1 -1 -1 -1 -1
 NAtoms=     50 NQM=       50 NQMF=       0 NMMI=      0 NMMIF=      0
                NMic=       0 NMicF=      0.
                          Input orientation:                          
 ---------------------------------------------------------------------
 Center     Atomic      Atomic             Coordinates (Angstroms)
 Number     Number       Type             X           Y           Z
 ---------------------------------------------------------------------
      1          6           0       -2.310707    7.063157    0.479341
      2          1           0       -2.309991    6.525648   -0.462018
      3          1           0       -3.193239    7.694319    0.517506
      4          1           0       -1.430755    7.695391    0.510475
      5          6           0       -2.301987    6.089949    1.641837
      6          1           0       -2.311273    6.628675    2.588957
      7          1           0       -3.194947    5.468726    1.614181
      8          8           0       -1.145662    5.309010    1.549641
      9          6           0       -0.935904    4.391446    2.578218
     10          1           0       -1.195449    4.828004    3.542227
     11          1           0        0.123626    4.170761    2.584657
     12          6           0       -1.698361    3.090888    2.404727
     13          1           0       -1.550577    2.476191    3.292845
     14          1           0       -2.767206    3.274976    2.310818
     15          8           0       -1.221452    2.431034    1.272584
     16          6           0       -1.872155    1.233447    0.977442
     17          1           0       -2.926603    1.421262    0.771870
     18          1           0       -1.813616    0.544959    1.818809
     19          6           0       -1.242479    0.591982   -0.243733
     20          1           0       -1.167643    1.330552   -1.037845
     21          1           0       -1.892694   -0.205878   -0.584162
     22          8           0        0.000000    0.000000    0.000000
     23          6           0        1.119851    0.847312    0.000000
     24          1           0        1.103916    1.510548    0.853439
     25          1           0        1.110667    1.459050   -0.901312
     26          6           0        2.379549    0.000000    0.000000
     27          1           0        3.233016    0.650714   -0.155935
     28          1           0        2.359969   -0.701144   -0.824382
     29         16           0        2.776246   -0.865335    1.547643
     30          6           0        1.521873   -2.176530    1.684504
     31          1           0        1.804774   -2.713397    2.581944
     32          1           0        0.554806   -1.726067    1.850514
     33          6           0        1.401308   -3.148605    0.513925
     34          1           0        1.057013   -2.624485   -0.366002
     35          1           0        0.647293   -3.884392    0.773157
     36         16           0        2.957142   -4.031984    0.168804
     37          6           0        2.341901   -5.423608   -0.823624
     38          1           0        1.510635   -5.891589   -0.309359
     39          1           0        3.151996   -6.141728   -0.844858
     40          6           0        1.951006   -5.042958   -2.249721
     41          1           0        1.165546   -4.299309   -2.240570
     42          1           0        2.807177   -4.626001   -2.764857
     43         16           0        1.379977   -6.527932   -3.137595
     44          6           0        1.197960   -5.891940   -4.831599
     45          1           0        2.128488   -5.420852   -5.127270
     46          1           0        1.082341   -6.776836   -5.446141
     47          6           0        0.018513   -4.948028   -5.046713
     48          1           0        0.118347   -4.040574   -4.461535
     49          1           0       -0.040236   -4.659772   -6.092579
     50          1           0       -0.914793   -5.425470   -4.771464
 ---------------------------------------------------------------------
 Stoichiometry    C14H30O3S3
 Framework group  C1[X(C14H30O3S3)]
 Standard basis: 6-31G(d) (6D, 7F)
   372 basis functions,   752 primitive gaussians,   372 cartesian basis functions
    93 alpha electrons       93 beta electrons
 Requested convergence on RMS density matrix=1.00D-08 within  64 cycles.
 Requested convergence on MAX density matrix=1.00D-06.
 Requested convergence on             energy=1.00D-06.
 SCF Done:  E(RHF) =  -1964.69279473     A.U. after   13 cycles
            NFock= 13  Conv=0.60D-08     -V/T= 2.0006
 Mulliken charges:
     1  C   -0.487441
     2  H    0.175500
     3  H    0.155110
     4  H    0.175263
     5  C    0.018395
     6  H    0.137026
     7  H    0.135024
     8  O   -0.613761
     9  C    0.002804
    10  H    0.140287
    11  H    0.187160
    12  C    0.003743
    13  H    0.143237
    14  H    0.141568
    15  O   -0.619624
    16  C    0.009779
    17  H    0.138028
    18  H    0.150730
    19  C   -0.001552
    20  H    0.161923
    21  H    0.169403
    22  O   -0.640228
    23  C    0.028578
    24  H    0.187580
    25  H    0.146795
    26  C   -0.501102
    27  H    0.200571
    28  H    0.205129
    29  S    0.116977
    30  C   -0.472968
    31  H    0.204257
    32  H    0.218403
    33  C   -0.468538
    34  H    0.207144
    35  H    0.188940
    36  S    0.144833
    37  C   -0.503524
    38  H    0.201607
    39  H    0.216272
    40  C   -0.454626
    41  H    0.192175
    42  H    0.200713
    43  S    0.109995
    44  C   -0.475216
    45  H    0.190217
    46  H    0.199067
    47  C   -0.475539
    48  H    0.164429
    49  H    0.166932
    50  H    0.178523
 Sum of Mulliken charges =  -0.00000
 Dipole moment (field-independent basis, Debye):
    X=             -4.9130    Y=              2.5224    Z=             -0.7283  Tot=              5.5705
 Quadrupole moment (field-independent basis, Debye-Ang):
   XX=           -153.8976   YY=           -161.2806   ZZ=           -134.5031
   XY=              1.9636   XZ=            -11.5466   YZ=              8.8397
 Traceless Quadrupole moment (field-independent basis, Debye-Ang):
   XX=             -4.0038   YY=            -11.3868   ZZ=             15.3906
   XY=              1.9636   XZ=            -11.5466   YZ=              8.8397
 Octapole moment (field-independent basis, Debye-Ang**2):
  XXX=           -329.6107  YYY=            554.8912  ZZZ=             40.4345  XYY=           -162.9821
  XXY=            196.6116  XXZ=             13.9360  XZZ=            -99.0499  YZZ=            112.8865
  YYZ=             70.9744  XYZ=            -10.4555
 Hexadecapole moment (field-independent basis, Debye-Ang**3):
 XXXX=          -3618.5289 YYYY=         -17132.6103 ZZZZ=          -4062.6758 XXXY=           2753.8992
 XXXZ=            387.3369 YYYX=           2657.2020 YYYZ=          -2972.3591 ZZZX=            387.9920
 ZZZY=          -2499.7900 XXYY=          -3253.5540 XXZZ=          -1336.8190 YYZZ=          -3132.5269
 XXYZ=           -898.6203 YYXZ=             94.5928 ZZXY=            828.1140
 Merz-Kollman atomic radii used.
 Atom Element Radius
    1     6    1.50
    2     1    1.20
    3     1    1.20
    4     1    1.20
    5     6    1.50
    6     1    1.20
    7     1    1.20
    8     8    1.40
    9     6    1.50
   10     1    1.20
   11     1    1.20
   12     6    1.50
   13     1    1.20
   14     1    1.20
   15     8    1.40
   16     6    1.50
   17     1    1.20
   18     1    1.20
   19     6    1.50
   20     1    1.20
   21     1    1.20
   22     8    1.40
   23     6    1.50
   24     1    1.20
   25     1    1.20
   26     6    1.50
   27     1    1.20
   28     1    1.20
   29    16    1.75
   30     6    1.50
   31     1    1.20
   32     1    1.20
   33     6    1.50
   34     1    1.20
   35     1    1.20
   36    16    1.75
   37     6    1.50
   38     1    1.20
   39     1    1.20
   40     6    1.50
   41     1    1.20
   42     1    1.20
   43    16    1.75
   44     6    1.50
   45     1    1.20
   46     1    1.20
   47     6    1.50
   48     1    1.20
   49     1    1.20
   50     1    1.20
 Generate VDW surfaces: Layer= 4 Dens= 1 Start= 1.400 Inc= 0.200
            Electrostatic Properties Using The SCF Density.


       Atomic Center    1 is at  -2.310707  7.063157  0.479341
       Atomic Center    2 is at  -2.309991  6.525648 -0.462018
       Atomic Center    3 is at  -3.193239  7.694319  0.517506
       Atomic Center    4 is at  -1.430755  7.695391  0.510475
       Atomic Center    5 is at  -2.301987  6.089949  1.641837
       Atomic Center    6 is at  -2.311273  6.628675  2.588957
       Atomic Center    7 is at  -3.194947  5.468726  1.614181
       Atomic Center    8 is at  -1.145662  5.309010  1.549641
       Atomic Center    9 is at  -0.935904  4.391446  2.578218
       Atomic Center   10 is at  -1.195449  4.828004  3.542227
       Atomic Center   11 is at   0.123626  4.170761  2.584657
       Atomic Center   12 is at  -1.698361  3.090888  2.404727
       Atomic Center   13 is at  -1.550577  2.476191  3.292845
       Atomic Center   14 is at  -2.767206  3.274976  2.310818
       Atomic Center   15 is at  -1.221452  2.431034  1.272584
       Atomic Center   16 is at  -1.872155  1.233447  0.977442
       Atomic Center   17 is at  -2.926603  1.421262  0.771870
       Atomic Center   18 is at  -1.813616  0.544959  1.818809
       Atomic Center   19 is at  -1.242479  0.591982 -0.243733
       Atomic Center   20 is at  -1.167643  1.330552 -1.037845
       Atomic Center   21 is at  -1.892694 -0.205878 -0.584162
       Atomic Center   22 is at   0.000000  0.000000  0.000000
       Atomic Center   23 is at   1.119851  0.847312  0.000000
       Atomic Center   24 is at   1.103916  1.510548  0.853439
       Atomic Center   25 is at   1.110667  1.459050 -0.901312
       Atomic Center   26 is at   2.379549  0.000000  0.000000
       Atomic Center   27 is at   3.233016  0.650714 -0.155935
       Atomic Center   28 is at   2.359969 -0.701144 -0.824382
       Atomic Center   29 is at   2.776246 -0.865335  1.547643
       Atomic Center   30 is at   1.521873 -2.176530  1.684504
       Atomic Center   31 is at   1.804774 -2.713397  2.581944
       Atomic Center   32 is at   0.554806 -1.726067  1.850514
       Atomic Center   33 is at   1.401308 -3.148605  0.513925
       Atomic Center   34 is at   1.057013 -2.624485 -0.366002
       Atomic Center   35 is at   0.647293 -3.884392  0.773157
       Atomic Center   36 is at   2.957142 -4.031984  0.168804
       Atomic Center   37 is at   2.341901 -5.423608 -0.823624
       Atomic Center   38 is at   1.510635 -5.891589 -0.309359
       Atomic Center   39 is at   3.151996 -6.141728 -0.844858
       Atomic Center   40 is at   1.951006 -5.042958 -2.249721
       Atomic Center   41 is at   1.165546 -4.299309 -2.240570
       Atomic Center   42 is at   2.807177 -4.626001 -2.764857
       Atomic Center   43 is at   1.379977 -6.527932 -3.137595
       Atomic Center   44 is at   1.197960 -5.891940 -4.831599
       Atomic Center   45 is at   2.128488 -5.420852 -5.127270
       Atomic Center   46 is at   1.082341 -6.776836 -5.446141
       Atomic Center   47 is at   0.018513 -4.948028 -5.046713
       Atomic Center   48 is at   0.118347 -4.040574 -4.461535
       Atomic Center   49 is at  -0.040236 -4.659772 -6.092579
       Atomic Center   50 is at  -0.914793 -5.425470 -4.771464
      ESP Fit Center   51 is at  -2.569528  8.863299 -0.570659
      ESP Fit Center   52 is at  -4.055692  6.550783 -0.570659
      ESP Fit Center   53 is at  -1.785707  7.972484 -1.339312
      ESP Fit Center   54 is at  -2.835707  7.972484 -1.339312
      ESP Fit Center   55 is at  -0.712216  6.525648 -0.981167
      ESP Fit Center   56 is at  -3.811408  5.979177 -0.981167
      ESP Fit Center   57 is at  -3.108878  5.141934 -0.981167
      ESP Fit Center   58 is at  -2.032540  4.952147 -0.981167
      ESP Fit Center   59 is at  -1.086024  5.498618 -0.981167
      ESP Fit Center   60 is at  -1.322512  6.525648 -1.821167
      ESP Fit Center   61 is at  -2.004843  7.464797 -1.821167
      ESP Fit Center   62 is at  -3.108878  7.106074 -1.821167
      ESP Fit Center   63 is at  -3.108878  5.945222 -1.821167
      ESP Fit Center   64 is at  -2.004843  5.586499 -1.821167
      ESP Fit Center   65 is at  -2.309991  6.525648 -2.142018
      ESP Fit Center   66 is at  -2.888091  8.633468  1.876655
      ESP Fit Center   67 is at  -3.992126  8.274745  1.876655
      ESP Fit Center   68 is at  -2.915788  9.267820  1.036655
      ESP Fit Center   69 is at  -3.992126  9.078033  1.036655
      ESP Fit Center   70 is at  -4.694656  8.240790  1.036655
      ESP Fit Center   71 is at  -4.694656  7.147848  1.036655
      ESP Fit Center   72 is at  -2.915788  9.267820 -0.001643
      ESP Fit Center   73 is at  -3.992126  9.078033 -0.001643
      ESP Fit Center   74 is at  -4.694656  8.240790 -0.001643
      ESP Fit Center   75 is at  -4.694656  7.147848 -0.001643
      ESP Fit Center   76 is at  -2.888091  8.633468 -0.841643
      ESP Fit Center   77 is at  -3.992126  8.274745 -0.841643
      ESP Fit Center   78 is at  -3.992126  7.113893 -0.841643
      ESP Fit Center   79 is at  -0.443276  7.695391  1.869624
      ESP Fit Center   80 is at  -1.125607  8.634540  1.869624
      ESP Fit Center   81 is at   0.167020  7.695391  1.029624
      ESP Fit Center   82 is at  -0.206788  8.722421  1.029624
      ESP Fit Center   83 is at  -1.153304  9.268892  1.029624
      ESP Fit Center   84 is at   0.167020  7.695391 -0.008674
      ESP Fit Center   85 is at  -0.206788  8.722421 -0.008674
      ESP Fit Center   86 is at  -1.153304  9.268892 -0.008674
      ESP Fit Center   87 is at  -0.206788  6.668361 -0.008674
      ESP Fit Center   88 is at  -0.443276  7.695391 -0.848674
      ESP Fit Center   89 is at  -1.125607  8.634540 -0.848674
      ESP Fit Center   90 is at  -4.046972  6.602323  2.691837
      ESP Fit Center   91 is at  -2.560808  4.289807  0.591837
      ESP Fit Center   92 is at  -2.311273  6.628675  4.268957
      ESP Fit Center   93 is at  -1.323794  6.628675  3.948106
      ESP Fit Center   94 is at  -2.006125  7.567824  3.948106
      ESP Fit Center   95 is at  -3.110160  7.209101  3.948106
      ESP Fit Center   96 is at  -3.110160  6.048249  3.948106
      ESP Fit Center   97 is at  -0.713498  6.628675  3.108106
      ESP Fit Center   98 is at  -1.087306  7.655705  3.108106
      ESP Fit Center   99 is at  -2.033822  8.202176  3.108106
      ESP Fit Center  100 is at  -3.110160  8.012389  3.108106
      ESP Fit Center  101 is at  -3.812690  7.175146  3.108106
      ESP Fit Center  102 is at  -3.812690  6.082204  3.108106
      ESP Fit Center  103 is at  -3.993834  6.049152  2.973330
      ESP Fit Center  104 is at  -3.993834  4.888300  2.973330
      ESP Fit Center  105 is at  -4.696364  6.015197  2.133330
      ESP Fit Center  106 is at  -4.696364  4.922255  2.133330
      ESP Fit Center  107 is at  -4.696364  6.015197  1.095032
      ESP Fit Center  108 is at  -4.696364  4.922255  1.095032
      ESP Fit Center  109 is at  -3.993834  4.085012  1.095032
      ESP Fit Center  110 is at  -3.993834  4.888300  0.255032
      ESP Fit Center  111 is at  -2.889799  4.529577  0.255032
      ESP Fit Center  112 is at   0.227571  6.306722  2.529641
      ESP Fit Center  113 is at   0.814338  5.309010  1.549641
      ESP Fit Center  114 is at   0.551748  6.289010  1.549641
      ESP Fit Center  115 is at  -0.165662  7.006420  1.549641
      ESP Fit Center  116 is at   0.551748  5.309010  0.569641
      ESP Fit Center  117 is at   0.227571  6.306722  0.569641
      ESP Fit Center  118 is at   0.227571  4.311298  0.569641
      ESP Fit Center  119 is at  -0.165662  5.309010 -0.147769
      ESP Fit Center  120 is at  -1.635662  4.460305 -0.147769
      ESP Fit Center  121 is at  -0.655662  4.460305 -0.147769
      ESP Fit Center  122 is at  -1.145662  5.309010 -0.410359
      ESP Fit Center  123 is at  -0.410904  3.482119  4.396871
      ESP Fit Center  124 is at  -1.195449  4.828004  5.222227
      ESP Fit Center  125 is at  -0.207970  4.828004  4.901376
      ESP Fit Center  126 is at  -0.890301  5.767153  4.901376
      ESP Fit Center  127 is at  -1.994336  5.408430  4.901376
      ESP Fit Center  128 is at  -1.994336  4.247578  4.901376
      ESP Fit Center  129 is at  -0.890301  3.888855  4.901376
      ESP Fit Center  130 is at   0.028518  5.855034  4.061376
      ESP Fit Center  131 is at  -0.917998  6.401505  4.061376
      ESP Fit Center  132 is at  -2.696866  5.374475  4.061376
      ESP Fit Center  133 is at  -2.696866  4.281533  4.061376
      ESP Fit Center  134 is at   1.111105  4.170761  3.943806
      ESP Fit Center  135 is at   0.428774  3.231612  3.943806
      ESP Fit Center  136 is at   1.721401  4.170761  3.103806
      ESP Fit Center  137 is at   1.347593  5.197791  3.103806
      ESP Fit Center  138 is at   0.401077  2.597260  3.103806
      ESP Fit Center  139 is at   1.347593  3.143731  3.103806
      ESP Fit Center  140 is at   1.721401  4.170761  2.065508
      ESP Fit Center  141 is at   1.347593  5.197791  2.065508
      ESP Fit Center  142 is at   1.347593  3.143731  2.065508
      ESP Fit Center  143 is at   1.111105  4.170761  1.225508
      ESP Fit Center  144 is at  -1.550577  2.476191  4.972845
      ESP Fit Center  145 is at  -0.563098  2.476191  4.651994
      ESP Fit Center  146 is at  -1.245429  3.415340  4.651994
      ESP Fit Center  147 is at  -2.349464  3.056617  4.651994
      ESP Fit Center  148 is at  -2.349464  1.895765  4.651994
      ESP Fit Center  149 is at  -1.245429  1.537042  4.651994
      ESP Fit Center  150 is at   0.047198  2.476191  3.811994
      ESP Fit Center  151 is at  -3.051994  1.929720  3.811994
      ESP Fit Center  152 is at  -2.349464  1.092477  3.811994
      ESP Fit Center  153 is at  -1.273126  0.902690  3.811994
      ESP Fit Center  154 is at  -0.326610  1.449161  3.811994
      ESP Fit Center  155 is at  -0.326610  1.449161  2.773696
      ESP Fit Center  156 is at  -3.566093  3.855402  3.669967
      ESP Fit Center  157 is at  -3.566093  2.694550  3.669967
      ESP Fit Center  158 is at  -4.268623  3.821447  2.829967
      ESP Fit Center  159 is at  -4.268623  2.728505  2.829967
      ESP Fit Center  160 is at  -3.566093  1.891262  2.829967
      ESP Fit Center  161 is at  -4.268623  3.821447  1.791669
      ESP Fit Center  162 is at  -4.268623  2.728505  1.791669
      ESP Fit Center  163 is at  -3.566093  3.855402  0.951669
      ESP Fit Center  164 is at   0.475958  2.431034  2.252584
      ESP Fit Center  165 is at   0.151781  1.433322  2.252584
      ESP Fit Center  166 is at   0.151781  3.428746  0.292584
      ESP Fit Center  167 is at  -2.594685  3.428746  0.292584
      ESP Fit Center  168 is at  -0.731452  3.279739 -0.424826
      ESP Fit Center  169 is at  -1.711452  3.279739 -0.424826
      ESP Fit Center  170 is at  -2.616825 -0.730087  0.977442
      ESP Fit Center  171 is at  -3.725490  0.840836  2.131019
      ESP Fit Center  172 is at  -4.428020  1.967733  1.291019
      ESP Fit Center  173 is at  -4.428020  0.874791  1.291019
      ESP Fit Center  174 is at  -3.725490  0.037548  1.291019
      ESP Fit Center  175 is at  -3.725490  2.804976  0.252721
      ESP Fit Center  176 is at  -4.428020  1.967733  0.252721
      ESP Fit Center  177 is at  -4.428020  0.874791  0.252721
      ESP Fit Center  178 is at  -3.725490  0.037548  0.252721
      ESP Fit Center  179 is at  -3.725490  2.001688 -0.587279
      ESP Fit Center  180 is at  -3.725490  0.840836 -0.587279
      ESP Fit Center  181 is at  -1.813616  0.544959  3.498809
      ESP Fit Center  182 is at  -0.826137  0.544959  3.177958
      ESP Fit Center  183 is at  -2.612503  1.125385  3.177958
      ESP Fit Center  184 is at  -2.612503 -0.035467  3.177958
      ESP Fit Center  185 is at  -1.508468 -0.394190  3.177958
      ESP Fit Center  186 is at  -0.215841  0.544959  2.337958
      ESP Fit Center  187 is at  -3.315033 -0.001512  2.337958
      ESP Fit Center  188 is at  -2.612503 -0.838755  2.337958
      ESP Fit Center  189 is at  -1.536165 -1.028542  2.337958
      ESP Fit Center  190 is at  -0.589649 -0.482071  2.337958
      ESP Fit Center  191 is at  -2.612503 -0.838755  1.299660
      ESP Fit Center  192 is at  -1.536165 -1.028542  1.299660
      ESP Fit Center  193 is at  -1.501300 -1.208160  0.806267
      ESP Fit Center  194 is at  -2.987464  1.104356 -1.293733
      ESP Fit Center  195 is at  -2.292479  0.591982 -2.062386
      ESP Fit Center  196 is at  -0.717479 -0.317345 -2.062386
      ESP Fit Center  197 is at  -1.966530  2.714266 -0.518696
      ESP Fit Center  198 is at  -0.890192  2.904053 -1.556994
      ESP Fit Center  199 is at  -1.966530  2.714266 -1.556994
      ESP Fit Center  200 is at  -2.669060  1.877023 -1.556994
      ESP Fit Center  201 is at  -0.180164  1.330552 -2.396994
      ESP Fit Center  202 is at  -0.862495  2.269701 -2.396994
      ESP Fit Center  203 is at  -1.966530  1.910978 -2.396994
      ESP Fit Center  204 is at  -1.966530  0.750126 -2.396994
      ESP Fit Center  205 is at  -0.862495  0.391403 -2.396994
      ESP Fit Center  206 is at  -1.167643  1.330552 -2.717845
      ESP Fit Center  207 is at  -2.691581 -0.786304  0.774987
      ESP Fit Center  208 is at  -3.394111 -0.752349 -0.065013
      ESP Fit Center  209 is at  -2.691581 -1.589592 -0.065013
      ESP Fit Center  210 is at  -1.615243 -1.779379 -0.065013
      ESP Fit Center  211 is at  -3.394111  0.340593 -1.103311
      ESP Fit Center  212 is at  -3.394111 -0.752349 -1.103311
      ESP Fit Center  213 is at  -2.691581 -1.589592 -1.103311
      ESP Fit Center  214 is at  -1.615243 -1.779379 -1.103311
      ESP Fit Center  215 is at  -2.691581  0.374548 -1.943311
      ESP Fit Center  216 is at  -2.691581 -0.786304 -1.943311
      ESP Fit Center  217 is at  -1.587546 -1.145027 -1.943311
      ESP Fit Center  218 is at  -1.892694 -0.205878 -2.264162
      ESP Fit Center  219 is at   0.000000  0.000000  1.960000
      ESP Fit Center  220 is at  -0.980000 -1.697410  0.000000
      ESP Fit Center  221 is at  -0.524528 -1.614333 -0.980000
      ESP Fit Center  222 is at  -0.490000 -0.848705 -1.697410
      ESP Fit Center  223 is at   0.490000 -0.848705 -1.697410
      ESP Fit Center  224 is at   0.000000  0.000000 -1.960000
      ESP Fit Center  225 is at   2.312787  2.575578  0.000000
      ESP Fit Center  226 is at   0.375181  2.810846  0.000000
      ESP Fit Center  227 is at   1.103916  1.510548  2.533439
      ESP Fit Center  228 is at   2.091395  1.510548  2.212588
      ESP Fit Center  229 is at   1.409064  2.449697  2.212588
      ESP Fit Center  230 is at   0.305029  0.930122  2.212588
      ESP Fit Center  231 is at   2.327883  2.537578  1.372588
      ESP Fit Center  232 is at   1.381367  3.084049  1.372588
      ESP Fit Center  233 is at   2.327883  2.537578  0.334290
      ESP Fit Center  234 is at   1.381367  3.084049  0.334290
      ESP Fit Center  235 is at   1.388118  3.032551 -0.382163
      ESP Fit Center  236 is at   0.311780  2.842764 -0.382163
      ESP Fit Center  237 is at   2.334634  2.486080 -1.420461
      ESP Fit Center  238 is at   1.388118  3.032551 -1.420461
      ESP Fit Center  239 is at   0.311780  2.842764 -1.420461
      ESP Fit Center  240 is at   2.098146  1.459050 -2.260461
      ESP Fit Center  241 is at   1.415815  2.398199 -2.260461
      ESP Fit Center  242 is at   0.311780  2.039476 -2.260461
      ESP Fit Center  243 is at   0.311780  0.878624 -2.260461
      ESP Fit Center  244 is at   1.415815  0.519901 -2.260461
      ESP Fit Center  245 is at   1.110667  1.459050 -2.581312
      ESP Fit Center  246 is at   2.904549  0.909327 -1.818653
      ESP Fit Center  247 is at   3.538164  1.589863  1.203214
      ESP Fit Center  248 is at   4.830791  0.650714  0.363214
      ESP Fit Center  249 is at   4.456983  1.677744  0.363214
      ESP Fit Center  250 is at   3.510467  2.224215  0.363214
      ESP Fit Center  251 is at   4.830791  0.650714 -0.675084
      ESP Fit Center  252 is at   4.456983  1.677744 -0.675084
      ESP Fit Center  253 is at   3.510467  2.224215 -0.675084
      ESP Fit Center  254 is at   4.456983 -0.376316 -0.675084
      ESP Fit Center  255 is at   4.220495  0.650714 -1.515084
      ESP Fit Center  256 is at   3.538164  1.589863 -1.515084
      ESP Fit Center  257 is at   3.233016  0.650714 -1.835935
      ESP Fit Center  258 is at   3.957744 -0.701144 -1.343531
      ESP Fit Center  259 is at   0.858552 -1.247615 -1.343531
      ESP Fit Center  260 is at   3.583936 -1.728174 -1.343531
      ESP Fit Center  261 is at   3.347448 -0.701144 -2.183531
      ESP Fit Center  262 is at   2.665117  0.238005 -2.183531
      ESP Fit Center  263 is at   1.561082 -0.120718 -2.183531
      ESP Fit Center  264 is at   1.561082 -1.281570 -2.183531
      ESP Fit Center  265 is at   2.665117 -1.640293 -2.183531
      ESP Fit Center  266 is at   2.359969 -0.701144 -2.504382
      ESP Fit Center  267 is at   2.776246 -0.865335  3.997643
      ESP Fit Center  268 is at   3.839261 -0.865335  3.755017
      ESP Fit Center  269 is at   3.307754  0.055263  3.755017
      ESP Fit Center  270 is at   2.244738  0.055263  3.755017
      ESP Fit Center  271 is at   1.713231 -0.865335  3.755017
      ESP Fit Center  272 is at   3.307754 -1.785933  3.755017
      ESP Fit Center  273 is at   4.691733 -0.865335  3.075193
      ESP Fit Center  274 is at   4.387656  0.170256  3.075193
      ESP Fit Center  275 is at   3.571968  0.877053  3.075193
      ESP Fit Center  276 is at   2.503644  1.030655  3.075193
      ESP Fit Center  277 is at   1.521869  0.582294  3.075193
      ESP Fit Center  278 is at   0.938350 -0.325680  3.075193
      ESP Fit Center  279 is at   3.571968 -2.607723  3.075193
      ESP Fit Center  280 is at   4.387656 -1.900926  3.075193
      ESP Fit Center  281 is at   5.164819 -0.865335  2.092819
      ESP Fit Center  282 is at   4.928276  0.171028  2.092819
      ESP Fit Center  283 is at   4.265497  1.002127  2.092819
      ESP Fit Center  284 is at   3.307754  1.463352  2.092819
      ESP Fit Center  285 is at   2.244738  1.463352  2.092819
      ESP Fit Center  286 is at   0.624216  0.171028  2.092819
      ESP Fit Center  287 is at   4.265497 -2.732797  2.092819
      ESP Fit Center  288 is at   4.928276 -1.901698  2.092819
      ESP Fit Center  289 is at   5.164819 -0.865335  1.002467
      ESP Fit Center  290 is at   4.928276  0.171028  1.002467
      ESP Fit Center  291 is at   4.928276 -1.901698  1.002467
      ESP Fit Center  292 is at   4.691733 -0.865335  0.020093
      ESP Fit Center  293 is at   4.387656 -1.900926  0.020093
      ESP Fit Center  294 is at   0.996873 -1.267203  3.503157
      ESP Fit Center  295 is at   0.471873 -2.176530  3.503157
      ESP Fit Center  296 is at   0.330908 -3.550976  2.734504
      ESP Fit Center  297 is at   1.804774 -2.713397  4.261944
      ESP Fit Center  298 is at   2.792253 -2.713397  3.941093
      ESP Fit Center  299 is at   2.109922 -1.774248  3.941093
      ESP Fit Center  300 is at   1.005887 -2.132971  3.941093
      ESP Fit Center  301 is at   1.005887 -3.293823  3.941093
      ESP Fit Center  302 is at   2.109922 -3.652546  3.941093
      ESP Fit Center  303 is at   3.402549 -2.713397  3.101093
      ESP Fit Center  304 is at   0.303357 -3.259868  3.101093
      ESP Fit Center  305 is at   1.005887 -4.097111  3.101093
      ESP Fit Center  306 is at   2.082225 -4.286898  3.101093
      ESP Fit Center  307 is at   3.028741 -3.740427  3.101093
      ESP Fit Center  308 is at   0.554806 -1.726067  3.530514
      ESP Fit Center  309 is at   0.859954 -0.786918  3.209663
      ESP Fit Center  310 is at  -0.244081 -1.145641  3.209663
      ESP Fit Center  311 is at  -0.244081 -2.306493  3.209663
      ESP Fit Center  312 is at  -0.244081 -0.342353  2.369663
      ESP Fit Center  313 is at  -0.946611 -1.179596  2.369663
      ESP Fit Center  314 is at  -0.946611 -2.272538  2.369663
      ESP Fit Center  315 is at  -0.244081 -3.109781  2.369663
      ESP Fit Center  316 is at  -0.946611 -1.179596  1.331365
      ESP Fit Center  317 is at  -0.946611 -2.272538  1.331365
      ESP Fit Center  318 is at  -0.637670 -2.646042  0.513925
      ESP Fit Center  319 is at  -0.444404 -2.078014  0.153147
      ESP Fit Center  320 is at  -0.444404 -2.078014 -0.885151
      ESP Fit Center  321 is at  -0.444404 -3.170956 -0.885151
      ESP Fit Center  322 is at   2.044492 -2.624485 -1.725151
      ESP Fit Center  323 is at   0.258126 -2.044059 -1.725151
      ESP Fit Center  324 is at   1.057013 -2.624485 -2.046002
      ESP Fit Center  325 is at  -0.151594 -4.464818  2.132306
      ESP Fit Center  326 is at   0.952441 -4.823541  2.132306
      ESP Fit Center  327 is at  -0.854124 -3.337921  1.292306
      ESP Fit Center  328 is at  -0.854124 -4.430863  1.292306
      ESP Fit Center  329 is at  -0.151594 -5.268106  1.292306
      ESP Fit Center  330 is at   0.924744 -5.457893  1.292306
      ESP Fit Center  331 is at  -0.854124 -3.337921  0.254008
      ESP Fit Center  332 is at  -0.854124 -4.430863  0.254008
      ESP Fit Center  333 is at  -0.151594 -5.268106  0.254008
      ESP Fit Center  334 is at  -0.151594 -4.464818 -0.585992
      ESP Fit Center  335 is at   2.957142 -4.031984  2.618804
      ESP Fit Center  336 is at   4.020157 -4.031984  2.376178
      ESP Fit Center  337 is at   3.488650 -3.111386  2.376178
      ESP Fit Center  338 is at   2.425634 -4.952582  2.376178
      ESP Fit Center  339 is at   3.488650 -4.952582  2.376178
      ESP Fit Center  340 is at   4.872629 -4.031984  1.696354
      ESP Fit Center  341 is at   4.568552 -2.996393  1.696354
      ESP Fit Center  342 is at   1.702765 -5.479613  1.696354
      ESP Fit Center  343 is at   2.684540 -5.927974  1.696354
      ESP Fit Center  344 is at   3.752864 -5.774372  1.696354
      ESP Fit Center  345 is at   4.568552 -5.067575  1.696354
      ESP Fit Center  346 is at   5.345715 -4.031984  0.713980
      ESP Fit Center  347 is at   5.109172 -2.995621  0.713980
      ESP Fit Center  348 is at   4.446393 -5.899446  0.713980
      ESP Fit Center  349 is at   5.109172 -5.068347  0.713980
      ESP Fit Center  350 is at   5.345715 -4.031984 -0.376372
      ESP Fit Center  351 is at   5.109172 -2.995621 -0.376372
      ESP Fit Center  352 is at   4.446393 -2.164522 -0.376372
      ESP Fit Center  353 is at   5.109172 -5.068347 -0.376372
      ESP Fit Center  354 is at   4.872629 -4.031984 -1.358746
      ESP Fit Center  355 is at   4.568552 -2.996393 -1.358746
      ESP Fit Center  356 is at   3.752864 -2.289596 -1.358746
      ESP Fit Center  357 is at   4.568552 -5.067575 -1.358746
      ESP Fit Center  358 is at   3.488650 -3.111386 -2.038570
      ESP Fit Center  359 is at   1.510635 -5.891589  1.370641
      ESP Fit Center  360 is at   0.711748 -6.472015  1.049790
      ESP Fit Center  361 is at   1.815783 -6.830738  1.049790
      ESP Fit Center  362 is at   0.009218 -5.345118  0.209790
      ESP Fit Center  363 is at   0.009218 -6.438060  0.209790
      ESP Fit Center  364 is at   0.711748 -7.275303  0.209790
      ESP Fit Center  365 is at   1.788086 -7.465090  0.209790
      ESP Fit Center  366 is at   0.009218 -5.345118 -0.828508
      ESP Fit Center  367 is at   0.009218 -6.438060 -0.828508
      ESP Fit Center  368 is at   0.711748 -7.275303 -0.828508
      ESP Fit Center  369 is at   1.788086 -7.465090 -0.828508
      ESP Fit Center  370 is at   3.457144 -7.080877  0.514291
      ESP Fit Center  371 is at   4.749771 -6.141728 -0.325709
      ESP Fit Center  372 is at   2.353109 -7.525442 -0.325709
      ESP Fit Center  373 is at   3.429447 -7.715229 -0.325709
      ESP Fit Center  374 is at   4.375963 -7.168758 -0.325709
      ESP Fit Center  375 is at   4.749771 -6.141728 -1.364007
      ESP Fit Center  376 is at   3.429447 -7.715229 -1.364007
      ESP Fit Center  377 is at   4.375963 -7.168758 -1.364007
      ESP Fit Center  378 is at   4.139475 -6.141728 -2.204007
      ESP Fit Center  379 is at   2.204133 -2.958269 -2.249721
      ESP Fit Center  380 is at  -0.335871 -3.752838 -1.721421
      ESP Fit Center  381 is at  -0.335871 -4.845780 -1.721421
      ESP Fit Center  382 is at   1.442997 -2.725808 -2.759719
      ESP Fit Center  383 is at   0.366659 -2.915595 -2.759719
      ESP Fit Center  384 is at  -0.335871 -3.752838 -2.759719
      ESP Fit Center  385 is at   1.470694 -3.360160 -3.599719
      ESP Fit Center  386 is at   4.404952 -4.626001 -2.245708
      ESP Fit Center  387 is at   4.031144 -3.598971 -2.245708
      ESP Fit Center  388 is at   3.084628 -3.052500 -2.245708
      ESP Fit Center  389 is at   4.031144 -5.653031 -2.245708
      ESP Fit Center  390 is at   4.404952 -4.626001 -3.284006
      ESP Fit Center  391 is at   4.031144 -3.598971 -3.284006
      ESP Fit Center  392 is at   3.084628 -3.052500 -3.284006
      ESP Fit Center  393 is at   4.031144 -5.653031 -3.284006
      ESP Fit Center  394 is at   3.794656 -4.626001 -4.124006
      ESP Fit Center  395 is at   3.112325 -3.686852 -4.124006
      ESP Fit Center  396 is at   2.008290 -4.045575 -4.124006
      ESP Fit Center  397 is at   0.848469 -7.448530 -0.930221
      ESP Fit Center  398 is at  -0.457919 -5.988277 -1.610045
      ESP Fit Center  399 is at  -0.457919 -7.067587 -1.610045
      ESP Fit Center  400 is at   0.125600 -7.975561 -1.610045
      ESP Fit Center  401 is at   1.107375 -8.423922 -1.610045
      ESP Fit Center  402 is at   2.175699 -8.270320 -1.610045
      ESP Fit Center  403 is at   3.768550 -6.527932 -2.592419
      ESP Fit Center  404 is at  -0.772053 -5.491569 -2.592419
      ESP Fit Center  405 is at  -1.008596 -6.527932 -2.592419
      ESP Fit Center  406 is at  -0.772053 -7.564295 -2.592419
      ESP Fit Center  407 is at  -0.109274 -8.395394 -2.592419
      ESP Fit Center  408 is at   0.848469 -8.856619 -2.592419
      ESP Fit Center  409 is at   1.911485 -8.856619 -2.592419
      ESP Fit Center  410 is at   2.869228 -8.395394 -2.592419
      ESP Fit Center  411 is at   3.532007 -7.564295 -2.592419
      ESP Fit Center  412 is at   3.768550 -6.527932 -3.682771
      ESP Fit Center  413 is at  -0.772053 -7.564295 -3.682771
      ESP Fit Center  414 is at  -0.109274 -8.395394 -3.682771
      ESP Fit Center  415 is at   0.848469 -8.856619 -3.682771
      ESP Fit Center  416 is at   1.911485 -8.856619 -3.682771
      ESP Fit Center  417 is at   2.869228 -8.395394 -3.682771
      ESP Fit Center  418 is at   3.532007 -7.564295 -3.682771
      ESP Fit Center  419 is at   0.125600 -7.975561 -4.665145
      ESP Fit Center  420 is at   1.107375 -8.423922 -4.665145
      ESP Fit Center  421 is at   2.175699 -8.270320 -4.665145
      ESP Fit Center  422 is at   2.991387 -7.563523 -4.665145
      ESP Fit Center  423 is at   2.727909 -6.875178 -5.881599
      ESP Fit Center  424 is at   1.197960 -5.891940 -6.931599
      ESP Fit Center  425 is at   3.726263 -5.420852 -4.608121
      ESP Fit Center  426 is at   3.352455 -4.393822 -4.608121
      ESP Fit Center  427 is at   2.405939 -3.847351 -4.608121
      ESP Fit Center  428 is at   3.352455 -6.447882 -4.608121
      ESP Fit Center  429 is at   3.726263 -5.420852 -5.646419
      ESP Fit Center  430 is at   3.352455 -4.393822 -5.646419
      ESP Fit Center  431 is at   2.405939 -3.847351 -5.646419
      ESP Fit Center  432 is at   3.352455 -6.447882 -5.646419
      ESP Fit Center  433 is at   3.115967 -5.420852 -6.486419
      ESP Fit Center  434 is at   2.433636 -4.481703 -6.486419
      ESP Fit Center  435 is at   2.433636 -6.360001 -6.486419
      ESP Fit Center  436 is at   2.128488 -5.420852 -6.807270
      ESP Fit Center  437 is at  -0.419076 -7.323307 -4.926992
      ESP Fit Center  438 is at   0.283454 -8.160550 -4.926992
      ESP Fit Center  439 is at   1.359792 -8.350337 -4.926992
      ESP Fit Center  440 is at  -0.419076 -7.323307 -5.965290
      ESP Fit Center  441 is at   0.283454 -8.160550 -5.965290
      ESP Fit Center  442 is at   1.359792 -8.350337 -5.965290
      ESP Fit Center  443 is at   2.306308 -7.803866 -5.965290
      ESP Fit Center  444 is at   2.069820 -6.776836 -6.805290
      ESP Fit Center  445 is at   0.283454 -6.196410 -6.805290
      ESP Fit Center  446 is at   0.283454 -7.357262 -6.805290
      ESP Fit Center  447 is at   1.387489 -7.715985 -6.805290
      ESP Fit Center  448 is at   1.082341 -6.776836 -7.126141
      ESP Fit Center  449 is at  -1.553360 -3.555470 -5.046713
      ESP Fit Center  450 is at   1.548462 -3.964790 -6.096713
      ESP Fit Center  451 is at  -1.726472 -4.435654 -6.096713
      ESP Fit Center  452 is at  -0.680540 -3.460148 -3.102386
      ESP Fit Center  453 is at   1.342314 -3.013544 -3.942386
      ESP Fit Center  454 is at   0.395798 -2.467073 -3.942386
      ESP Fit Center  455 is at  -0.680540 -2.656860 -3.942386
      ESP Fit Center  456 is at  -1.383070 -3.494103 -3.942386
      ESP Fit Center  457 is at   1.342314 -3.013544 -4.980684
      ESP Fit Center  458 is at   0.395798 -2.467073 -4.980684
      ESP Fit Center  459 is at  -0.680540 -2.656860 -4.980684
      ESP Fit Center  460 is at   1.557539 -4.659772 -6.611728
      ESP Fit Center  461 is at   1.183731 -3.632742 -6.611728
      ESP Fit Center  462 is at   0.237215 -3.086271 -6.611728
      ESP Fit Center  463 is at  -0.839123 -3.276058 -6.611728
      ESP Fit Center  464 is at  -1.541653 -4.113301 -6.611728
      ESP Fit Center  465 is at  -1.541653 -5.206243 -6.611728
      ESP Fit Center  466 is at   0.947243 -4.659772 -7.451728
      ESP Fit Center  467 is at   0.264912 -3.720623 -7.451728
      ESP Fit Center  468 is at  -0.839123 -4.079346 -7.451728
      ESP Fit Center  469 is at  -0.839123 -5.240198 -7.451728
      ESP Fit Center  470 is at   0.264912 -5.598921 -7.451728
      ESP Fit Center  471 is at  -0.040236 -4.659772 -7.772579
      ESP Fit Center  472 is at  -0.914793 -5.425470 -3.091464
      ESP Fit Center  473 is at  -1.713680 -4.845044 -3.412315
      ESP Fit Center  474 is at  -1.713680 -6.005896 -3.412315
      ESP Fit Center  475 is at  -1.713680 -4.041756 -4.252315
      ESP Fit Center  476 is at  -2.416210 -4.878999 -4.252315
      ESP Fit Center  477 is at  -2.416210 -5.971941 -4.252315
      ESP Fit Center  478 is at  -1.713680 -6.809184 -4.252315
      ESP Fit Center  479 is at  -2.416210 -4.878999 -5.290613
      ESP Fit Center  480 is at  -2.416210 -5.971941 -5.290613
      ESP Fit Center  481 is at  -1.713680 -6.809184 -5.290613
      ESP Fit Center  482 is at  -0.637342 -6.998971 -5.290613
      ESP Fit Center  483 is at  -1.713680 -6.005896 -6.130613
      ESP Fit Center  484 is at  -2.577746  8.920454  1.975717
      ESP Fit Center  485 is at  -4.418818  6.047944 -0.054709
      ESP Fit Center  486 is at  -0.434311  7.063157 -1.017035
      ESP Fit Center  487 is at  -2.577746  8.920454 -1.017035
      ESP Fit Center  488 is at  -1.790047  7.964967 -1.682984
      ESP Fit Center  489 is at  -2.831367  7.964967 -1.682984
      ESP Fit Center  490 is at  -3.972760  5.565648 -0.462018
      ESP Fit Center  491 is at  -3.269991  4.862879 -0.462018
      ESP Fit Center  492 is at  -2.309991  4.605648 -0.462018
      ESP Fit Center  493 is at  -0.647222  6.525648 -1.422018
      ESP Fit Center  494 is at  -3.972760  6.525648 -1.422018
      ESP Fit Center  495 is at  -3.655199  5.548297 -1.422018
      ESP Fit Center  496 is at  -2.823815  4.944261 -1.422018
      ESP Fit Center  497 is at  -1.796167  4.944261 -1.422018
      ESP Fit Center  498 is at  -0.964783  5.548297 -1.422018
      ESP Fit Center  499 is at  -1.349991  6.525648 -2.124787
      ESP Fit Center  500 is at  -1.829991  7.357032 -2.124787
      ESP Fit Center  501 is at  -2.789991  7.357032 -2.124787
      ESP Fit Center  502 is at  -3.269991  6.525648 -2.124787
      ESP Fit Center  503 is at  -2.789991  5.694264 -2.124787
      ESP Fit Center  504 is at  -1.829991  5.694264 -2.124787
      ESP Fit Center  505 is at  -2.309991  6.525648 -2.382018
      ESP Fit Center  506 is at  -3.673239  8.525703  2.180275
      ESP Fit Center  507 is at  -4.153239  7.694319  2.180275
      ESP Fit Center  508 is at  -2.679415  9.275706  1.477506
      ESP Fit Center  509 is at  -3.707063  9.275706  1.477506
      ESP Fit Center  510 is at  -4.538447  8.671670  1.477506
      ESP Fit Center  511 is at  -4.856008  7.694319  1.477506
      ESP Fit Center  512 is at  -3.193239  9.614319  0.517506
      ESP Fit Center  513 is at  -4.153239  9.357088  0.517506
      ESP Fit Center  514 is at  -4.856008  8.654319  0.517506
      ESP Fit Center  515 is at  -5.113239  7.694319  0.517506
      ESP Fit Center  516 is at  -4.856008  6.734319  0.517506
      ESP Fit Center  517 is at  -2.679415  9.275706 -0.442494
      ESP Fit Center  518 is at  -3.707063  9.275706 -0.442494
      ESP Fit Center  519 is at  -4.538447  8.671670 -0.442494
      ESP Fit Center  520 is at  -4.856008  7.694319 -0.442494
      ESP Fit Center  521 is at  -4.538447  6.716968 -0.442494
      ESP Fit Center  522 is at  -3.673239  8.525703 -1.145263
      ESP Fit Center  523 is at  -4.153239  7.694319 -1.145263
      ESP Fit Center  524 is at  -0.470755  7.695391  2.173244
      ESP Fit Center  525 is at  -0.950755  8.526775  2.173244
      ESP Fit Center  526 is at   0.232014  7.695391  1.470475
      ESP Fit Center  527 is at  -0.085547  8.672742  1.470475
      ESP Fit Center  528 is at  -0.916931  9.276778  1.470475
      ESP Fit Center  529 is at  -1.944579  9.276778  1.470475
      ESP Fit Center  530 is at   0.489245  7.695391  0.510475
      ESP Fit Center  531 is at   0.232014  8.655391  0.510475
      ESP Fit Center  532 is at  -0.470755  9.358160  0.510475
      ESP Fit Center  533 is at  -1.430755  9.615391  0.510475
      ESP Fit Center  534 is at   0.232014  7.695391 -0.449525
      ESP Fit Center  535 is at  -0.085547  8.672742 -0.449525
      ESP Fit Center  536 is at  -0.916931  9.276778 -0.449525
      ESP Fit Center  537 is at  -1.944579  9.276778 -0.449525
      ESP Fit Center  538 is at  -0.085547  6.718040 -0.449525
      ESP Fit Center  539 is at  -0.470755  7.695391 -1.152294
      ESP Fit Center  540 is at  -0.950755  8.526775 -1.152294
      ESP Fit Center  541 is at  -4.410098  7.105162  2.175887
      ESP Fit Center  542 is at  -2.569026  4.232652  0.145461
      ESP Fit Center  543 is at  -2.311273  6.628675  4.508957
      ESP Fit Center  544 is at  -1.351273  6.628675  4.251726
      ESP Fit Center  545 is at  -1.831273  7.460059  4.251726
      ESP Fit Center  546 is at  -2.791273  7.460059  4.251726
      ESP Fit Center  547 is at  -3.271273  6.628675  4.251726
      ESP Fit Center  548 is at  -2.791273  5.797291  4.251726
      ESP Fit Center  549 is at  -0.966065  7.606026  3.548957
      ESP Fit Center  550 is at  -1.797449  8.210062  3.548957
      ESP Fit Center  551 is at  -2.825097  8.210062  3.548957
      ESP Fit Center  552 is at  -3.656481  7.606026  3.548957
      ESP Fit Center  553 is at  -3.974042  6.628675  3.548957
      ESP Fit Center  554 is at  -0.648504  7.588675  2.588957
      ESP Fit Center  555 is at  -1.351273  8.291444  2.588957
      ESP Fit Center  556 is at  -2.311273  8.548675  2.588957
      ESP Fit Center  557 is at  -3.271273  8.291444  2.588957
      ESP Fit Center  558 is at  -3.974042  7.588675  2.588957
      ESP Fit Center  559 is at  -4.154947  5.468726  3.276950
      ESP Fit Center  560 is at  -4.540155  6.446077  2.574181
      ESP Fit Center  561 is at  -4.857716  5.468726  2.574181
      ESP Fit Center  562 is at  -4.540155  4.491375  2.574181
      ESP Fit Center  563 is at  -4.857716  6.428726  1.614181
      ESP Fit Center  564 is at  -5.114947  5.468726  1.614181
      ESP Fit Center  565 is at  -4.857716  4.508726  1.614181
      ESP Fit Center  566 is at  -4.857716  5.468726  0.654181
      ESP Fit Center  567 is at  -4.540155  4.491375  0.654181
      ESP Fit Center  568 is at  -3.708771  3.887339  0.654181
      ESP Fit Center  569 is at  -4.154947  5.468726 -0.048588
      ESP Fit Center  570 is at  -3.674947  4.637342 -0.048588
      ESP Fit Center  571 is at   0.788031  6.323890  2.048088
      ESP Fit Center  572 is at   0.094900  7.106274  2.048088
      ESP Fit Center  573 is at   1.038177  5.309010  1.051194
      ESP Fit Center  574 is at   0.788031  6.323890  1.051194
      ESP Fit Center  575 is at   0.605641  5.309010  0.153024
      ESP Fit Center  576 is at   0.271172  6.338400  0.153024
      ESP Fit Center  577 is at   0.271172  4.279620  0.153024
      ESP Fit Center  578 is at  -0.173762  5.309010 -0.468529
      ESP Fit Center  579 is at  -1.631612  4.467320 -0.468529
      ESP Fit Center  580 is at  -0.659712  4.467320 -0.468529
      ESP Fit Center  581 is at  -0.415244  3.489636  4.740543
      ESP Fit Center  582 is at   0.642620  5.405902  4.074594
      ESP Fit Center  583 is at   0.522954  6.220796  3.112268
      ESP Fit Center  584 is at  -1.195449  4.828004  5.462227
      ESP Fit Center  585 is at  -0.235449  4.828004  5.204996
      ESP Fit Center  586 is at  -0.715449  5.659388  5.204996
      ESP Fit Center  587 is at  -1.675449  5.659388  5.204996
      ESP Fit Center  588 is at  -2.155449  4.828004  5.204996
      ESP Fit Center  589 is at  -1.675449  3.996620  5.204996
      ESP Fit Center  590 is at  -0.715449  3.996620  5.204996
      ESP Fit Center  591 is at   0.467320  4.828004  4.502227
      ESP Fit Center  592 is at   0.149759  5.805355  4.502227
      ESP Fit Center  593 is at  -0.681625  6.409391  4.502227
      ESP Fit Center  594 is at  -1.709273  6.409391  4.502227
      ESP Fit Center  595 is at  -2.540657  5.805355  4.502227
      ESP Fit Center  596 is at  -2.858218  4.828004  4.502227
      ESP Fit Center  597 is at  -0.235449  6.490773  3.542227
      ESP Fit Center  598 is at  -3.115449  4.828004  3.542227
      ESP Fit Center  599 is at   1.083626  4.170761  4.247426
      ESP Fit Center  600 is at   0.603626  3.339377  4.247426
      ESP Fit Center  601 is at   1.786395  4.170761  3.544657
      ESP Fit Center  602 is at   1.468834  5.148112  3.544657
      ESP Fit Center  603 is at   0.637450  2.589374  3.544657
      ESP Fit Center  604 is at   1.468834  3.193410  3.544657
      ESP Fit Center  605 is at   2.043626  4.170761  2.584657
      ESP Fit Center  606 is at   1.786395  5.130761  2.584657
      ESP Fit Center  607 is at   1.083626  5.833530  2.584657
      ESP Fit Center  608 is at   1.083626  2.507992  2.584657
      ESP Fit Center  609 is at   1.786395  3.210761  2.584657
      ESP Fit Center  610 is at   1.786395  4.170761  1.624657
      ESP Fit Center  611 is at   1.468834  5.148112  1.624657
      ESP Fit Center  612 is at   1.083626  4.170761  0.921888
      ESP Fit Center  613 is at   0.409750  2.075675  2.938777
      ESP Fit Center  614 is at  -1.550577  2.476191  5.212845
      ESP Fit Center  615 is at  -0.590577  2.476191  4.955614
      ESP Fit Center  616 is at  -1.070577  3.307575  4.955614
      ESP Fit Center  617 is at  -2.030577  3.307575  4.955614
      ESP Fit Center  618 is at  -2.510577  2.476191  4.955614
      ESP Fit Center  619 is at  -2.030577  1.644807  4.955614
      ESP Fit Center  620 is at  -1.070577  1.644807  4.955614
      ESP Fit Center  621 is at   0.112192  2.476191  4.252845
      ESP Fit Center  622 is at  -3.213346  2.476191  4.252845
      ESP Fit Center  623 is at  -2.895785  1.498840  4.252845
      ESP Fit Center  624 is at  -2.064401  0.894804  4.252845
      ESP Fit Center  625 is at  -1.036753  0.894804  4.252845
      ESP Fit Center  626 is at  -0.205369  1.498840  4.252845
      ESP Fit Center  627 is at  -0.590577  0.813422  3.292845
      ESP Fit Center  628 is at   0.112192  1.516191  3.292845
      ESP Fit Center  629 is at  -3.247206  4.106360  3.973587
      ESP Fit Center  630 is at  -3.727206  3.274976  3.973587
      ESP Fit Center  631 is at  -4.112414  4.252327  3.270818
      ESP Fit Center  632 is at  -4.429975  3.274976  3.270818
      ESP Fit Center  633 is at  -4.112414  2.297625  3.270818
      ESP Fit Center  634 is at  -4.687206  3.274976  2.310818
      ESP Fit Center  635 is at  -4.429975  2.314976  2.310818
      ESP Fit Center  636 is at  -4.429975  3.274976  1.350818
      ESP Fit Center  637 is at  -3.727206  3.274976  0.648049
      ESP Fit Center  638 is at   0.195382  1.401644  2.669201
      ESP Fit Center  639 is at   0.712241  3.445914  0.774137
      ESP Fit Center  640 is at   0.195382  3.460424 -0.124033
      ESP Fit Center  641 is at  -2.638286  3.460424 -0.124033
      ESP Fit Center  642 is at  -0.735502  3.272724 -0.745586
      ESP Fit Center  643 is at  -1.707402  3.272724 -0.745586
      ESP Fit Center  644 is at  -3.672543  0.704805  2.473818
      ESP Fit Center  645 is at  -3.331013 -0.595903  1.511492
      ESP Fit Center  646 is at  -3.886603  1.421262  2.434639
      ESP Fit Center  647 is at  -4.589372  1.421262  1.731870
      ESP Fit Center  648 is at  -4.271811  0.443911  1.731870
      ESP Fit Center  649 is at  -4.589372  2.381262  0.771870
      ESP Fit Center  650 is at  -4.846603  1.421262  0.771870
      ESP Fit Center  651 is at  -4.589372  0.461262  0.771870
      ESP Fit Center  652 is at  -3.886603 -0.241507  0.771870
      ESP Fit Center  653 is at  -3.440427  3.002649 -0.188130
      ESP Fit Center  654 is at  -4.271811  2.398613 -0.188130
      ESP Fit Center  655 is at  -4.589372  1.421262 -0.188130
      ESP Fit Center  656 is at  -4.271811  0.443911 -0.188130
      ESP Fit Center  657 is at  -3.406603  2.252646 -0.890899
      ESP Fit Center  658 is at  -3.886603  1.421262 -0.890899
      ESP Fit Center  659 is at  -1.813616  0.544959  3.738809
      ESP Fit Center  660 is at  -0.853616  0.544959  3.481578
      ESP Fit Center  661 is at  -2.773616  0.544959  3.481578
      ESP Fit Center  662 is at  -2.293616 -0.286425  3.481578
      ESP Fit Center  663 is at  -1.333616 -0.286425  3.481578
      ESP Fit Center  664 is at  -0.150847  0.544959  2.778809
      ESP Fit Center  665 is at  -3.476385  0.544959  2.778809
      ESP Fit Center  666 is at  -3.158824 -0.432392  2.778809
      ESP Fit Center  667 is at  -2.327440 -1.036428  2.778809
      ESP Fit Center  668 is at  -1.299792 -1.036428  2.778809
      ESP Fit Center  669 is at  -3.476385 -0.415041  1.818809
      ESP Fit Center  670 is at  -2.773616 -1.117810  1.818809
      ESP Fit Center  671 is at  -1.813616 -1.375041  1.818809
      ESP Fit Center  672 is at  -1.509518 -1.265315  1.252643
      ESP Fit Center  673 is at  -3.042867  1.120624 -1.740109
      ESP Fit Center  674 is at  -0.721819 -0.309828 -2.406058
      ESP Fit Center  675 is at  -0.207643  2.993321 -1.037845
      ESP Fit Center  676 is at  -1.167643  3.250552 -1.037845
      ESP Fit Center  677 is at  -2.127643  2.993321 -1.037845
      ESP Fit Center  678 is at  -2.830412  2.290552 -1.037845
      ESP Fit Center  679 is at  -0.653819  2.911939 -1.997845
      ESP Fit Center  680 is at  -1.681467  2.911939 -1.997845
      ESP Fit Center  681 is at  -2.512851  2.307903 -1.997845
      ESP Fit Center  682 is at  -2.830412  1.330552 -1.997845
      ESP Fit Center  683 is at  -0.207643  1.330552 -2.700614
      ESP Fit Center  684 is at  -0.687643  2.161936 -2.700614
      ESP Fit Center  685 is at  -1.647643  2.161936 -2.700614
      ESP Fit Center  686 is at  -2.127643  1.330552 -2.700614
      ESP Fit Center  687 is at  -1.647643  0.499168 -2.700614
      ESP Fit Center  688 is at  -0.687643  0.499168 -2.700614
      ESP Fit Center  689 is at  -1.167643  1.330552 -2.957845
      ESP Fit Center  690 is at  -3.237902 -1.183229  0.375838
      ESP Fit Center  691 is at  -2.406518 -1.787265  0.375838
      ESP Fit Center  692 is at  -1.378870 -1.787265  0.375838
      ESP Fit Center  693 is at  -3.812694 -0.205878 -0.584162
      ESP Fit Center  694 is at  -3.555463 -1.165878 -0.584162
      ESP Fit Center  695 is at  -2.852694 -1.868647 -0.584162
      ESP Fit Center  696 is at  -1.892694 -2.125878 -0.584162
      ESP Fit Center  697 is at  -3.555463 -0.205878 -1.544162
      ESP Fit Center  698 is at  -3.237902 -1.183229 -1.544162
      ESP Fit Center  699 is at  -2.406518 -1.787265 -1.544162
      ESP Fit Center  700 is at  -1.378870 -1.787265 -1.544162
      ESP Fit Center  701 is at  -2.852694 -0.205878 -2.246931
      ESP Fit Center  702 is at  -2.372694 -1.037262 -2.246931
      ESP Fit Center  703 is at  -1.412694 -1.037262 -2.246931
      ESP Fit Center  704 is at  -1.892694 -0.205878 -2.504162
      ESP Fit Center  705 is at  -0.774400 -2.041924  0.498447
      ESP Fit Center  706 is at  -0.774400 -2.041924 -0.498447
      ESP Fit Center  707 is at  -0.541182 -1.665588 -1.396617
      ESP Fit Center  708 is at  -0.485950 -0.841690 -2.018170
      ESP Fit Center  709 is at   0.485950 -0.841690 -2.018170
      ESP Fit Center  710 is at   0.000000  0.000000 -2.240000
      ESP Fit Center  711 is at   2.578709  2.676662 -0.534050
      ESP Fit Center  712 is at   0.599191 -0.054498 -2.162325
      ESP Fit Center  713 is at   1.103916  1.510548  2.773439
      ESP Fit Center  714 is at   1.583916  2.341932  2.516208
      ESP Fit Center  715 is at   0.623916  0.679164  2.516208
      ESP Fit Center  716 is at   2.449124  2.487899  1.813439
      ESP Fit Center  717 is at   1.617740  3.091935  1.813439
      ESP Fit Center  718 is at   2.766685  2.470548  0.853439
      ESP Fit Center  719 is at   2.063916  3.173317  0.853439
      ESP Fit Center  720 is at   1.103916  3.430548  0.853439
      ESP Fit Center  721 is at   2.773436  2.419050 -0.901312
      ESP Fit Center  722 is at   2.070667  3.121819 -0.901312
      ESP Fit Center  723 is at   1.110667  3.379050 -0.901312
      ESP Fit Center  724 is at   0.150667  3.121819 -0.901312
      ESP Fit Center  725 is at   2.455875  2.436401 -1.861312
      ESP Fit Center  726 is at   1.624491  3.040437 -1.861312
      ESP Fit Center  727 is at   0.596843  3.040437 -1.861312
      ESP Fit Center  728 is at   2.070667  1.459050 -2.564081
      ESP Fit Center  729 is at   1.590667  2.290434 -2.564081
      ESP Fit Center  730 is at   0.630667  2.290434 -2.564081
      ESP Fit Center  731 is at   0.150667  1.459050 -2.564081
      ESP Fit Center  732 is at   0.630667  0.627666 -2.564081
      ESP Fit Center  733 is at   1.590667  0.627666 -2.564081
      ESP Fit Center  734 is at   1.110667  1.459050 -2.821312
      ESP Fit Center  735 is at   2.900209  0.901810 -2.162325
      ESP Fit Center  736 is at   4.578224  1.628065  0.804065
      ESP Fit Center  737 is at   3.746840  2.232101  0.804065
      ESP Fit Center  738 is at   5.153016  0.650714 -0.155935
      ESP Fit Center  739 is at   4.895785  1.610714 -0.155935
      ESP Fit Center  740 is at   4.193016  2.313483 -0.155935
      ESP Fit Center  741 is at   3.233016  2.570714 -0.155935
      ESP Fit Center  742 is at   4.895785  0.650714 -1.115935
      ESP Fit Center  743 is at   4.578224  1.628065 -1.115935
      ESP Fit Center  744 is at   3.746840  2.232101 -1.115935
      ESP Fit Center  745 is at   4.578224 -0.326637 -1.115935
      ESP Fit Center  746 is at   4.193016  0.650714 -1.818704
      ESP Fit Center  747 is at   3.713016  1.482098 -1.818704
      ESP Fit Center  748 is at   4.022738 -0.701144 -1.784382
      ESP Fit Center  749 is at   3.705177 -1.678495 -1.784382
      ESP Fit Center  750 is at   3.319969 -0.701144 -2.487151
      ESP Fit Center  751 is at   2.839969  0.130240 -2.487151
      ESP Fit Center  752 is at   1.879969  0.130240 -2.487151
      ESP Fit Center  753 is at   1.399969 -0.701144 -2.487151
      ESP Fit Center  754 is at   1.879969 -1.532528 -2.487151
      ESP Fit Center  755 is at   2.839969 -1.532528 -2.487151
      ESP Fit Center  756 is at   2.359969 -0.701144 -2.744382
      ESP Fit Center  757 is at   2.776246 -0.865335  4.347643
      ESP Fit Center  758 is at   3.847760 -0.865335  4.134506
      ESP Fit Center  759 is at   3.312003  0.062623  4.134506
      ESP Fit Center  760 is at   2.240489  0.062623  4.134506
      ESP Fit Center  761 is at   1.704732 -0.865335  4.134506
      ESP Fit Center  762 is at   3.312003 -1.793293  4.134506
      ESP Fit Center  763 is at   4.756145 -0.865335  3.527542
      ESP Fit Center  764 is at   4.490889  0.124614  3.527542
      ESP Fit Center  765 is at   3.766195  0.849308  3.527542
      ESP Fit Center  766 is at   2.776246  1.114564  3.527542
      ESP Fit Center  767 is at   1.786297  0.849308  3.527542
      ESP Fit Center  768 is at   1.061603  0.124614  3.527542
      ESP Fit Center  769 is at   3.766195 -2.579978  3.527542
      ESP Fit Center  770 is at   4.490889 -1.855284  3.527542
      ESP Fit Center  771 is at   5.363109 -0.865335  2.619157
      ESP Fit Center  772 is at   5.139463  0.186837  2.619157
      ESP Fit Center  773 is at   4.507195  1.057079  2.619157
      ESP Fit Center  774 is at   3.575631  1.594918  2.619157
      ESP Fit Center  775 is at   2.505845  1.707357  2.619157
      ESP Fit Center  776 is at   0.683430  0.655185  2.619157
      ESP Fit Center  777 is at   4.507195 -2.787749  2.619157
      ESP Fit Center  778 is at   5.139463 -1.917507  2.619157
      ESP Fit Center  779 is at   5.576246 -0.865335  1.547643
      ESP Fit Center  780 is at   5.387168  0.146142  1.547643
      ESP Fit Center  781 is at   4.845471  1.021013  1.547643
      ESP Fit Center  782 is at   4.024313  1.641122  1.547643
      ESP Fit Center  783 is at   3.034597  1.922721  1.547643
      ESP Fit Center  784 is at   5.387168 -1.876812  1.547643
      ESP Fit Center  785 is at   5.363109 -0.865335  0.476129
      ESP Fit Center  786 is at   5.139463  0.186837  0.476129
      ESP Fit Center  787 is at   5.139463 -1.917507  0.476129
      ESP Fit Center  788 is at   4.756145 -0.865335 -0.432256
      ESP Fit Center  789 is at   1.001213 -1.274720  3.846829
      ESP Fit Center  790 is at   1.804774 -2.713397  4.501944
      ESP Fit Center  791 is at   2.764774 -2.713397  4.244713
      ESP Fit Center  792 is at   2.284774 -1.882013  4.244713
      ESP Fit Center  793 is at   1.324774 -1.882013  4.244713
      ESP Fit Center  794 is at   0.844774 -2.713397  4.244713
      ESP Fit Center  795 is at   1.324774 -3.544781  4.244713
      ESP Fit Center  796 is at   2.284774 -3.544781  4.244713
      ESP Fit Center  797 is at   3.467543 -2.713397  3.541944
      ESP Fit Center  798 is at   0.459566 -3.690748  3.541944
      ESP Fit Center  799 is at   1.290950 -4.294784  3.541944
      ESP Fit Center  800 is at   2.318598 -4.294784  3.541944
      ESP Fit Center  801 is at   3.149982 -3.690748  3.541944
      ESP Fit Center  802 is at   0.074806 -0.894683  3.513283
      ESP Fit Center  803 is at  -0.405194 -1.726067  3.513283
      ESP Fit Center  804 is at   0.040982 -0.144680  2.810514
      ESP Fit Center  805 is at  -0.790402 -0.748716  2.810514
      ESP Fit Center  806 is at  -1.107963 -1.726067  2.810514
      ESP Fit Center  807 is at  -0.790402 -2.703418  2.810514
      ESP Fit Center  808 is at  -1.365194 -1.726067  1.850514
      ESP Fit Center  809 is at  -1.107963 -2.686067  1.850514
      ESP Fit Center  810 is at  -0.862987 -2.624485 -0.366002
      ESP Fit Center  811 is at  -0.605756 -2.624485 -1.326002
      ESP Fit Center  812 is at   0.577013 -1.793101 -2.028771
      ESP Fit Center  813 is at   0.097013 -2.624485 -2.028771
      ESP Fit Center  814 is at  -0.312707 -3.884392  2.435926
      ESP Fit Center  815 is at   0.167293 -4.715776  2.435926
      ESP Fit Center  816 is at   1.127293 -4.715776  2.435926
      ESP Fit Center  817 is at  -1.015476 -3.884392  1.733157
      ESP Fit Center  818 is at  -0.697915 -4.861743  1.733157
      ESP Fit Center  819 is at   0.133469 -5.465779  1.733157
      ESP Fit Center  820 is at  -1.015476 -2.924392  0.773157
      ESP Fit Center  821 is at  -1.272707 -3.884392  0.773157
      ESP Fit Center  822 is at  -1.015476 -4.844392  0.773157
      ESP Fit Center  823 is at  -0.312707 -5.547161  0.773157
      ESP Fit Center  824 is at  -1.015476 -3.884392 -0.186843
      ESP Fit Center  825 is at  -0.697915 -4.861743 -0.186843
      ESP Fit Center  826 is at   4.028656 -4.031984  2.755667
      ESP Fit Center  827 is at   2.421385 -4.959942  2.755667
      ESP Fit Center  828 is at   3.492899 -4.959942  2.755667
      ESP Fit Center  829 is at   4.937041 -4.031984  2.148703
      ESP Fit Center  830 is at   4.671785 -3.042035  2.148703
      ESP Fit Center  831 is at   1.967193 -5.746627  2.148703
      ESP Fit Center  832 is at   2.957142 -6.011883  2.148703
      ESP Fit Center  833 is at   3.947091 -5.746627  2.148703
      ESP Fit Center  834 is at   4.671785 -5.021933  2.148703
      ESP Fit Center  835 is at   5.544005 -4.031984  1.240318
      ESP Fit Center  836 is at   5.320359 -2.979812  1.240318
      ESP Fit Center  837 is at   2.686741 -6.604676  1.240318
      ESP Fit Center  838 is at   3.756527 -6.492237  1.240318
      ESP Fit Center  839 is at   4.688091 -5.954398  1.240318
      ESP Fit Center  840 is at   5.320359 -5.084156  1.240318
      ESP Fit Center  841 is at   5.757142 -4.031984  0.168804
      ESP Fit Center  842 is at   5.568064 -3.020507  0.168804
      ESP Fit Center  843 is at   5.026367 -2.145636  0.168804
      ESP Fit Center  844 is at   5.026367 -5.918332  0.168804
      ESP Fit Center  845 is at   5.568064 -5.043461  0.168804
      ESP Fit Center  846 is at   5.544005 -4.031984 -0.902710
      ESP Fit Center  847 is at   5.320359 -2.979812 -0.902710
      ESP Fit Center  848 is at   4.688091 -2.109570 -0.902710
      ESP Fit Center  849 is at   5.320359 -5.084156 -0.902710
      ESP Fit Center  850 is at   4.937041 -4.031984 -1.811095
      ESP Fit Center  851 is at   4.671785 -3.042035 -1.811095
      ESP Fit Center  852 is at   3.947091 -2.317341 -1.811095
      ESP Fit Center  853 is at   4.671785 -5.021933 -1.811095
      ESP Fit Center  854 is at   0.550635 -5.891589  1.353410
      ESP Fit Center  855 is at   1.030635 -6.722973  1.353410
      ESP Fit Center  856 is at   1.990635 -6.722973  1.353410
      ESP Fit Center  857 is at  -0.152134 -5.891589  0.650641
      ESP Fit Center  858 is at   0.165427 -6.868940  0.650641
      ESP Fit Center  859 is at   0.996811 -7.472976  0.650641
      ESP Fit Center  860 is at   2.024459 -7.472976  0.650641
      ESP Fit Center  861 is at  -0.409365 -5.891589 -0.309359
      ESP Fit Center  862 is at  -0.152134 -6.851589 -0.309359
      ESP Fit Center  863 is at   0.550635 -7.554358 -0.309359
      ESP Fit Center  864 is at   1.510635 -7.811589 -0.309359
      ESP Fit Center  865 is at   3.631996 -6.973112  0.817911
      ESP Fit Center  866 is at   4.814765 -6.141728  0.115142
      ESP Fit Center  867 is at   2.638172 -7.723115  0.115142
      ESP Fit Center  868 is at   3.665820 -7.723115  0.115142
      ESP Fit Center  869 is at   4.497204 -7.119079  0.115142
      ESP Fit Center  870 is at   5.071996 -6.141728 -0.844858
      ESP Fit Center  871 is at   3.151996 -8.061728 -0.844858
      ESP Fit Center  872 is at   4.111996 -7.804497 -0.844858
      ESP Fit Center  873 is at   4.814765 -7.101728 -0.844858
      ESP Fit Center  874 is at   4.814765 -6.141728 -1.804858
      ESP Fit Center  875 is at   3.665820 -7.723115 -1.804858
      ESP Fit Center  876 is at   4.497204 -7.119079 -1.804858
      ESP Fit Center  877 is at   4.111996 -6.141728 -2.507627
      ESP Fit Center  878 is at   1.683967 -3.185661 -3.746097
      ESP Fit Center  879 is at  -0.497223 -4.299309 -1.280570
      ESP Fit Center  880 is at   2.125546 -2.636540 -2.240570
      ESP Fit Center  881 is at   0.205546 -2.636540 -2.240570
      ESP Fit Center  882 is at  -0.497223 -3.339309 -2.240570
      ESP Fit Center  883 is at  -0.754454 -4.299309 -2.240570
      ESP Fit Center  884 is at   1.679370 -2.717922 -3.200570
      ESP Fit Center  885 is at   4.727177 -4.626001 -2.764857
      ESP Fit Center  886 is at   4.469946 -3.666001 -2.764857
      ESP Fit Center  887 is at   3.767177 -2.963232 -2.764857
      ESP Fit Center  888 is at   2.807177 -2.706001 -2.764857
      ESP Fit Center  889 is at   4.469946 -5.586001 -2.764857
      ESP Fit Center  890 is at   4.469946 -4.626001 -3.724857
      ESP Fit Center  891 is at   4.152385 -3.648650 -3.724857
      ESP Fit Center  892 is at   3.321001 -3.044614 -3.724857
      ESP Fit Center  893 is at   2.293353 -3.044614 -3.724857
      ESP Fit Center  894 is at   4.152385 -5.603352 -3.724857
      ESP Fit Center  895 is at   3.767177 -4.626001 -4.427626
      ESP Fit Center  896 is at   3.287177 -3.794617 -4.427626
      ESP Fit Center  897 is at  -0.334666 -5.537983 -1.157696
      ESP Fit Center  898 is at  -0.599922 -6.527932 -1.157696
      ESP Fit Center  899 is at  -0.334666 -7.517881 -1.157696
      ESP Fit Center  900 is at   0.390028 -8.242575 -1.157696
      ESP Fit Center  901 is at   1.379977 -8.507831 -1.157696
      ESP Fit Center  902 is at   2.369926 -8.242575 -1.157696
      ESP Fit Center  903 is at  -0.712839 -5.007412 -2.066081
      ESP Fit Center  904 is at  -1.150357 -5.990093 -2.066081
      ESP Fit Center  905 is at  -1.150357 -7.065771 -2.066081
      ESP Fit Center  906 is at  -0.712839 -8.048452 -2.066081
      ESP Fit Center  907 is at   0.086546 -8.768221 -2.066081
      ESP Fit Center  908 is at   1.109576 -9.100624 -2.066081
      ESP Fit Center  909 is at   2.179362 -8.988185 -2.066081
      ESP Fit Center  910 is at   3.110926 -8.450346 -2.066081
      ESP Fit Center  911 is at   3.743194 -7.580104 -2.066081
      ESP Fit Center  912 is at   4.179977 -6.527932 -3.137595
      ESP Fit Center  913 is at  -1.372348 -7.042431 -3.137595
      ESP Fit Center  914 is at  -1.000631 -8.001942 -3.137595
      ESP Fit Center  915 is at  -0.307400 -8.762380 -3.137595
      ESP Fit Center  916 is at   0.613721 -9.221044 -3.137595
      ESP Fit Center  917 is at   1.638328 -9.315988 -3.137595
      ESP Fit Center  918 is at   2.628044 -9.034389 -3.137595
      ESP Fit Center  919 is at   3.449202 -8.414280 -3.137595
      ESP Fit Center  920 is at   3.990899 -7.539409 -3.137595
      ESP Fit Center  921 is at   3.966840 -6.527932 -4.209109
      ESP Fit Center  922 is at  -0.712839 -8.048452 -4.209109
      ESP Fit Center  923 is at   0.086546 -8.768221 -4.209109
      ESP Fit Center  924 is at   1.109576 -9.100624 -4.209109
      ESP Fit Center  925 is at   2.179362 -8.988185 -4.209109
      ESP Fit Center  926 is at   3.110926 -8.450346 -4.209109
      ESP Fit Center  927 is at   3.743194 -7.580104 -4.209109
      ESP Fit Center  928 is at   2.369926 -8.242575 -5.117494
      ESP Fit Center  929 is at   3.094620 -7.517881 -5.117494
      ESP Fit Center  930 is at   2.239281 -5.891940 -6.993924
      ESP Fit Center  931 is at   1.718620 -4.990130 -6.993924
      ESP Fit Center  932 is at   1.197960 -5.891940 -7.231599
      ESP Fit Center  933 is at   4.048488 -5.420852 -5.127270
      ESP Fit Center  934 is at   3.791257 -4.460852 -5.127270
      ESP Fit Center  935 is at   3.088488 -3.758083 -5.127270
      ESP Fit Center  936 is at   2.128488 -3.500852 -5.127270
      ESP Fit Center  937 is at   3.791257 -6.380852 -5.127270
      ESP Fit Center  938 is at   3.791257 -5.420852 -6.087270
      ESP Fit Center  939 is at   3.473696 -4.443501 -6.087270
      ESP Fit Center  940 is at   2.642312 -3.839465 -6.087270
      ESP Fit Center  941 is at   3.473696 -6.398203 -6.087270
      ESP Fit Center  942 is at   3.088488 -5.420852 -6.790039
      ESP Fit Center  943 is at   2.608488 -4.589468 -6.790039
      ESP Fit Center  944 is at   2.608488 -6.252236 -6.790039
      ESP Fit Center  945 is at   2.128488 -5.420852 -7.047270
      ESP Fit Center  946 is at  -0.580428 -7.736836 -5.446141
      ESP Fit Center  947 is at   0.122341 -8.439605 -5.446141
      ESP Fit Center  948 is at   1.082341 -8.696836 -5.446141
      ESP Fit Center  949 is at   2.042341 -8.439605 -5.446141
      ESP Fit Center  950 is at   2.745110 -7.736836 -5.446141
      ESP Fit Center  951 is at  -0.262867 -7.754187 -6.406141
      ESP Fit Center  952 is at   0.568517 -8.358223 -6.406141
      ESP Fit Center  953 is at   1.596165 -8.358223 -6.406141
      ESP Fit Center  954 is at   2.427549 -7.754187 -6.406141
      ESP Fit Center  955 is at   2.042341 -6.776836 -7.108910
      ESP Fit Center  956 is at   0.122341 -6.776836 -7.108910
      ESP Fit Center  957 is at   0.602341 -7.608220 -7.108910
      ESP Fit Center  958 is at   1.562341 -7.608220 -7.108910
      ESP Fit Center  959 is at   1.082341 -6.776836 -7.366141
      ESP Fit Center  960 is at  -1.022808 -4.948028 -2.884388
      ESP Fit Center  961 is at   1.477371 -3.118678 -5.580763
      ESP Fit Center  962 is at  -1.440345 -3.118678 -5.580763
      ESP Fit Center  963 is at  -2.089598 -3.932815 -5.580763
      ESP Fit Center  964 is at  -1.781875 -5.476670 -6.543089
      ESP Fit Center  965 is at  -1.210265 -6.366113 -6.543089
      ESP Fit Center  966 is at  -0.361653 -3.209190 -2.798766
      ESP Fit Center  967 is at  -0.841653 -4.040574 -2.798766
      ESP Fit Center  968 is at   0.632171 -2.459187 -3.501535
      ESP Fit Center  969 is at  -0.395477 -2.459187 -3.501535
      ESP Fit Center  970 is at  -1.226861 -3.063223 -3.501535
      ESP Fit Center  971 is at   1.781116 -3.080574 -4.461535
      ESP Fit Center  972 is at   1.078347 -2.377805 -4.461535
      ESP Fit Center  973 is at   0.118347 -2.120574 -4.461535
      ESP Fit Center  974 is at  -0.841653 -2.377805 -4.461535
      ESP Fit Center  975 is at  -1.544422 -3.080574 -4.461535
      ESP Fit Center  976 is at   1.463555 -3.063223 -5.421535
      ESP Fit Center  977 is at   0.632171 -2.459187 -5.421535
      ESP Fit Center  978 is at  -0.395477 -2.459187 -5.421535
      ESP Fit Center  979 is at  -0.040236 -2.739772 -6.092579
      ESP Fit Center  980 is at  -1.000236 -2.997003 -6.092579
      ESP Fit Center  981 is at   1.622533 -4.659772 -7.052579
      ESP Fit Center  982 is at   1.304972 -3.682421 -7.052579
      ESP Fit Center  983 is at   0.473588 -3.078385 -7.052579
      ESP Fit Center  984 is at  -0.554060 -3.078385 -7.052579
      ESP Fit Center  985 is at  -1.385444 -3.682421 -7.052579
      ESP Fit Center  986 is at  -1.703005 -4.659772 -7.052579
      ESP Fit Center  987 is at  -1.385444 -5.637123 -7.052579
      ESP Fit Center  988 is at  -0.554060 -6.241159 -7.052579
      ESP Fit Center  989 is at   0.919764 -4.659772 -7.755348
      ESP Fit Center  990 is at   0.439764 -3.828388 -7.755348
      ESP Fit Center  991 is at  -0.520236 -3.828388 -7.755348
      ESP Fit Center  992 is at  -1.000236 -4.659772 -7.755348
      ESP Fit Center  993 is at  -0.520236 -5.491156 -7.755348
      ESP Fit Center  994 is at   0.439764 -5.491156 -7.755348
      ESP Fit Center  995 is at  -0.040236 -4.659772 -8.012579
      ESP Fit Center  996 is at  -1.394793 -4.594086 -3.108695
      ESP Fit Center  997 is at  -1.874793 -5.425470 -3.108695
      ESP Fit Center  998 is at  -2.260001 -4.448119 -3.811464
      ESP Fit Center  999 is at  -2.577562 -5.425470 -3.811464
      ESP Fit Center 1000 is at  -2.260001 -6.402821 -3.811464
      ESP Fit Center 1001 is at  -1.428617 -7.006857 -3.811464
      ESP Fit Center 1002 is at  -2.577562 -4.465470 -4.771464
      ESP Fit Center 1003 is at  -2.834793 -5.425470 -4.771464
      ESP Fit Center 1004 is at  -2.577562 -6.385470 -4.771464
      ESP Fit Center 1005 is at  -1.874793 -7.088239 -4.771464
      ESP Fit Center 1006 is at  -0.914793 -7.345470 -4.771464
      ESP Fit Center 1007 is at  -2.260001 -4.448119 -5.731464
      ESP Fit Center 1008 is at  -2.577562 -5.425470 -5.731464
      ESP Fit Center 1009 is at  -2.260001 -6.402821 -5.731464
      ESP Fit Center 1010 is at  -1.428617 -7.006857 -5.731464
      ESP Fit Center 1011 is at  -1.517602  8.799816  2.388529
      ESP Fit Center 1012 is at  -2.582413  8.952913  2.388529
      ESP Fit Center 1013 is at  -2.310707  9.763157  0.479341
      ESP Fit Center 1014 is at  -4.558151  5.980845 -0.553904
      ESP Fit Center 1015 is at  -0.401519  7.063157 -1.429847
      ESP Fit Center 1016 is at  -1.517602  8.799816 -1.429847
      ESP Fit Center 1017 is at  -2.582413  8.952913 -1.429847
      ESP Fit Center 1018 is at  -4.142560  7.601038 -1.429847
      ESP Fit Center 1019 is at  -1.794084  7.957974 -2.015134
      ESP Fit Center 1020 is at  -2.827330  7.957974 -2.015134
      ESP Fit Center 1021 is at  -3.926774  5.093303 -0.462018
      ESP Fit Center 1022 is at  -3.075938  4.506013 -0.462018
      ESP Fit Center 1023 is at  -0.439376  6.525648 -1.542018
      ESP Fit Center 1024 is at  -4.104833  7.052661 -1.542018
      ESP Fit Center 1025 is at  -4.104833  5.998635 -1.542018
      ESP Fit Center 1026 is at  -3.534983  5.111932 -1.542018
      ESP Fit Center 1027 is at  -2.576207  4.674073 -1.542018
      ESP Fit Center 1028 is at  -1.532909  4.824077 -1.542018
      ESP Fit Center 1029 is at  -0.736330  5.514317 -1.542018
      ESP Fit Center 1030 is at  -1.229991  6.525648 -2.332633
      ESP Fit Center 1031 is at  -1.769991  7.460955 -2.332633
      ESP Fit Center 1032 is at  -2.849991  7.460955 -2.332633
      ESP Fit Center 1033 is at  -3.389991  6.525648 -2.332633
      ESP Fit Center 1034 is at  -2.849991  5.590341 -2.332633
      ESP Fit Center 1035 is at  -1.769991  5.590341 -2.332633
      ESP Fit Center 1036 is at  -2.309991  6.525648 -2.622018
      ESP Fit Center 1037 is at  -3.733239  8.629626  2.388121
      ESP Fit Center 1038 is at  -3.459455  9.545894  1.597506
      ESP Fit Center 1039 is at  -4.418231  9.108035  1.597506
      ESP Fit Center 1040 is at  -4.988081  8.221332  1.597506
      ESP Fit Center 1041 is at  -4.988081  7.167306  1.597506
      ESP Fit Center 1042 is at  -2.932880  9.838570  0.517506
      ESP Fit Center 1043 is at  -3.959186  9.713954  0.517506
      ESP Fit Center 1044 is at  -4.810022  9.126664  0.517506
      ESP Fit Center 1045 is at  -5.290473  8.211241  0.517506
      ESP Fit Center 1046 is at  -5.290473  7.177397  0.517506
      ESP Fit Center 1047 is at  -3.459455  9.545894 -0.562494
      ESP Fit Center 1048 is at  -4.418231  9.108035 -0.562494
[...]
 1294 Fit      -0.025433
 1295 Fit      -0.015754
 1296 Fit      -0.006288
 1297 Fit      -0.033944
 1298 Fit      -0.021792
 1299 Fit      -0.034209
 1300 Fit      -0.015643
 1301 Fit      -0.004517
 1302 Fit       0.005255
 1303 Fit       0.008408
 1304 Fit      -0.000413
 1305 Fit      -0.004900
 1306 Fit      -0.002237
 1307 Fit       0.002276
 1308 Fit       0.001997
 1309 Fit      -0.001815
 1310 Fit       0.005114
 1311 Fit       0.004156
 1312 Fit      -0.000606
 1313 Fit      -0.007583
 1314 Fit      -0.011554
 1315 Fit       0.000051
 1316 Fit       0.004996
 1317 Fit       0.008458
 1318 Fit       0.009092
 1319 Fit       0.004008
 1320 Fit       0.006500
 1321 Fit       0.002028
 1322 Fit       0.008932
 1323 Fit       0.005113
 1324 Fit       0.008879
 1325 Fit       0.006635
 1326 Fit       0.009987
 1327 Fit       0.009456
 1328 Fit       0.008458
 1329 Fit       0.006227
 1330 Fit       0.008714
 1331 Fit       0.009096
 1332 Fit       0.008823
 1333 Fit       0.007957
 1334 Fit       0.007874
 1335 Fit      -0.022916
 1336 Fit      -0.012902
 1337 Fit      -0.021434
 1338 Fit      -0.027718
 1339 Fit      -0.000757
 1340 Fit      -0.010451
 1341 Fit      -0.017866
 1342 Fit      -0.022571
 1343 Fit      -0.025533
 1344 Fit      -0.027400
 1345 Fit      -0.033189
 1346 Fit      -0.005947
 1347 Fit      -0.012196
 1348 Fit      -0.016132
 1349 Fit      -0.019766
 1350 Fit      -0.023486
 1351 Fit      -0.024532
 1352 Fit      -0.030514
 1353 Fit      -0.013312
 1354 Fit      -0.018951
 1355 Fit      -0.020969
 1356 Fit      -0.026935
 1357 Fit      -0.031146
 1358 Fit      -0.006056
 1359 Fit      -0.013918
 1360 Fit      -0.016894
 1361 Fit      -0.022742
 1362 Fit      -0.023869
 1363 Fit      -0.008936
 1364 Fit      -0.010334
 1365 Fit      -0.015831
 1366 Fit      -0.013793
 1367 Fit      -0.006850
 1368 Fit       0.007341
 1369 Fit       0.001453
 1370 Fit      -0.005263
 1371 Fit       0.005885
 1372 Fit       0.001669
 1373 Fit      -0.001218
 1374 Fit       0.007322
 1375 Fit       0.000116
 1376 Fit      -0.004427
 1377 Fit      -0.006100
 1378 Fit      -0.005961
 1379 Fit      -0.007632
 1380 Fit      -0.003887
 1381 Fit      -0.003302
 1382 Fit      -0.003989
 1383 Fit      -0.003727
 1384 Fit      -0.006661
 1385 Fit      -0.003553
 1386 Fit      -0.002354
 1387 Fit      -0.002428
 1388 Fit      -0.005029
 1389 Fit       0.009735
 1390 Fit       0.005217
 1391 Fit       0.011146
 1392 Fit       0.008333
 1393 Fit      -0.002622
 1394 Fit      -0.005937
 1395 Fit      -0.006862
 1396 Fit      -0.001812
 1397 Fit      -0.001750
 1398 Fit       0.002883
 1399 Fit       0.003295
 1400 Fit       0.004499
 1401 Fit       0.007714
 1402 Fit      -0.000569
 1403 Fit       0.010603
 1404 Fit      -0.005699
 1405 Fit      -0.010705
 1406 Fit      -0.011787
 1407 Fit      -0.011271
 1408 Fit      -0.008926
 1409 Fit      -0.005454
 1410 Fit      -0.013086
 1411 Fit      -0.016625
 1412 Fit      -0.017080
 1413 Fit      -0.016517
 1414 Fit      -0.016408
 1415 Fit      -0.016337
 1416 Fit      -0.013880
 1417 Fit      -0.006759
 1418 Fit      -0.007237
 1419 Fit      -0.013266
 1420 Fit      -0.016456
 1421 Fit      -0.016830
 1422 Fit      -0.016286
 1423 Fit      -0.016628
 1424 Fit      -0.018241
 1425 Fit      -0.019835
 1426 Fit      -0.019179
 1427 Fit      -0.014590
 1428 Fit      -0.009396
 1429 Fit      -0.010144
 1430 Fit      -0.011216
 1431 Fit      -0.011290
 1432 Fit      -0.012575
 1433 Fit      -0.015473
 1434 Fit      -0.018584
 1435 Fit      -0.019588
 1436 Fit      -0.016626
 1437 Fit      -0.005575
 1438 Fit      -0.002467
 1439 Fit      -0.003628
 1440 Fit      -0.006668
 1441 Fit      -0.010896
 1442 Fit      -0.013699
 1443 Fit      -0.012354
 1444 Fit      -0.000283
 1445 Fit       0.007174
 1446 Fit       0.009442
 1447 Fit       0.009160
 1448 Fit       0.004184
 1449 Fit       0.007950
 1450 Fit       0.009724
 1451 Fit       0.010495
 1452 Fit      -0.001800
 1453 Fit       0.005717
 1454 Fit       0.008071
 1455 Fit       0.009237
 1456 Fit       0.002723
 1457 Fit       0.006731
 1458 Fit       0.008583
 1459 Fit       0.003459
 1460 Fit       0.002558
 1461 Fit       0.000461
 1462 Fit      -0.002922
 1463 Fit       0.007192
 1464 Fit       0.006717
 1465 Fit       0.005796
 1466 Fit       0.004149
 1467 Fit       0.002749
 1468 Fit       0.006383
 1469 Fit       0.008759
 1470 Fit       0.007928
 1471 Fit       0.006709
 1472 Fit       0.008298
 1473 Fit       0.004153
 1474 Fit       0.004828
 1475 Fit       0.004107
 1476 Fit       0.007631
 1477 Fit       0.006207
 1478 Fit       0.005547
 1479 Fit       0.004805
 1480 Fit       0.004009
 1481 Fit       0.005323
 1482 Fit       0.006431
 1483 Fit       0.011809
 1484 Fit       0.010404
 1485 Fit       0.008783
 1486 Fit       0.005628
 1487 Fit       0.010760
 1488 Fit       0.009338
 1489 Fit       0.008929
 1490 Fit       0.008141
 1491 Fit       0.006588
 1492 Fit       0.007099
 1493 Fit       0.006440
 1494 Fit       0.009658
 1495 Fit       0.008355
 1496 Fit       0.007284
 1497 Fit       0.006759
 1498 Fit       0.006214
 1499 Fit       0.005437
 1500 Fit       0.004846
 1501 Fit       0.005416
 1502 Fit       0.008753
 1503 Fit       0.008255
 1504 Fit       0.007678
 1505 Fit       0.007027
 1506 Fit       0.007373
 1507 Fit       0.008646
 1508 Fit       0.008275
 1509 Fit      -0.002707
 1510 Fit       0.003854
 1511 Fit       0.003168
 1512 Fit       0.001202
 1513 Fit      -0.003766
 1514 Fit       0.004196
 1515 Fit       0.004407
 1516 Fit       0.003922
 1517 Fit       0.002318
 1518 Fit       0.000101
 1519 Fit       0.004103
 1520 Fit       0.004227
 1521 Fit       0.003912
 1522 Fit       0.005117
 1523 Fit       0.004269
 1524 Fit       0.002306
 1525 Fit       0.001458
 1526 Fit       0.007619
 1527 Fit       0.001215
 1528 Fit       0.004973
 1529 Fit      -0.017985
 1530 Fit      -0.006137
 1531 Fit      -0.002942
 1532 Fit      -0.000892
 1533 Fit       0.000520
 1534 Fit       0.001919
 1535 Fit       0.002806
 1536 Fit      -0.000788
 1537 Fit       0.000843
 1538 Fit       0.005333
 1539 Fit       0.003967
 1540 Fit      -0.002811
 1541 Fit      -0.015873
 1542 Fit      -0.006742
 1543 Fit       0.002976
 1544 Fit       0.003854
 1545 Fit       0.003331
 1546 Fit      -0.000170
 1547 Fit      -0.005579
 1548 Fit      -0.008116
 1549 Fit      -0.001822
 1550 Fit      -0.000440
 1551 Fit       0.001324
 1552 Fit       0.002646
 1553 Fit       0.002149
 1554 Fit      -0.000706
 1555 Fit       0.001097
 1556 Fit       0.009300
 1557 Fit       0.006077
 1558 Fit       0.007982
 1559 Fit       0.009667
 1560 Fit       0.005203
 1561 Fit       0.006922
 1562 Fit       0.008145
 1563 Fit       0.009091
 1564 Fit       0.010471
 1565 Fit       0.004236
 1566 Fit       0.005860
 1567 Fit       0.006853
 1568 Fit       0.007318
 1569 Fit       0.007623
 1570 Fit       0.002812
 1571 Fit       0.004444
 1572 Fit       0.005179
 1573 Fit       0.005083
 1574 Fit       0.002545
 1575 Fit      -0.008224
 1576 Fit      -0.001025
 1577 Fit       0.001823
 1578 Fit      -0.009260
 1579 Fit      -0.002385
 1580 Fit       0.000663
 1581 Fit       0.001823
 1582 Fit      -0.008105
 1583 Fit      -0.002480
 1584 Fit       0.000185
 1585 Fit       0.001147
 1586 Fit      -0.006457
 1587 Fit      -0.002138
 1588 Fit      -0.000226
 1589 Fit       0.013807
 1590 Fit       0.011756
 1591 Fit       0.011332
 1592 Fit       0.008403
 1593 Fit       0.009611
 1594 Fit       0.011440
 1595 Fit       0.004597
 1596 Fit       0.006194
 1597 Fit       0.007893
 1598 Fit       0.009417
 1599 Fit       0.010783
 1600 Fit       0.012563
 1601 Fit      -0.001329
 1602 Fit       0.002871
 1603 Fit       0.005370
 1604 Fit       0.007379
 1605 Fit       0.009365
 1606 Fit       0.010952
 1607 Fit       0.012335
 1608 Fit       0.013985
 1609 Fit       0.011627
 1610 Fit       0.012064
 1611 Fit       0.013899
 1612 Fit       0.010674
 1613 Fit       0.010874
 1614 Fit       0.012138
 1615 Fit       0.009251
 1616 Fit       0.009391
 1617 Fit       0.004150
 1618 Fit      -0.008647
 1619 Fit      -0.015677
 1620 Fit      -0.014205
 1621 Fit      -0.019247
 1622 Fit      -0.019704
 1623 Fit      -0.022504
 1624 Fit      -0.020504
 1625 Fit      -0.024071
 1626 Fit      -0.021440
 1627 Fit      -0.023079
 1628 Fit       0.011323
 1629 Fit       0.005365
 1630 Fit       0.006591
 1631 Fit       0.000909
 1632 Fit      -0.005161
 1633 Fit       0.010867
 1634 Fit       0.008503
 1635 Fit       0.008816
 1636 Fit       0.011047
 1637 Fit       0.012954
 1638 Fit       0.013456
 1639 Fit       0.011010
 1640 Fit       0.005424
 1641 Fit       0.006832
 1642 Fit       0.009786
 1643 Fit       0.012391
 1644 Fit       0.014070
 1645 Fit       0.015930
 1646 Fit       0.017497
 1647 Fit       0.004852
 1648 Fit       0.001520
 1649 Fit       0.001508
 1650 Fit       0.002285
 1651 Fit       0.000793
 1652 Fit      -0.000846
 1653 Fit      -0.001551
 1654 Fit      -0.003750
 1655 Fit      -0.005100
 1656 Fit      -0.002284
 1657 Fit      -0.002985
 1658 Fit      -0.005643
 1659 Fit      -0.011433
 1660 Fit      -0.007358
 1661 Fit      -0.014143
 1662 Fit      -0.018689
 1663 Fit       0.015953
 1664 Fit       0.014509
 1665 Fit       0.014161
 1666 Fit       0.011669
 1667 Fit       0.009478
 1668 Fit       0.013428
 1669 Fit       0.014910
 1670 Fit       0.013147
 1671 Fit       0.011165
 1672 Fit       0.008977
 1673 Fit       0.006438
 1674 Fit       0.013481
 1675 Fit       0.012138
 1676 Fit       0.010198
 1677 Fit       0.006681
 1678 Fit       0.004114
 1679 Fit       0.000310
 1680 Fit      -0.002693
 1681 Fit       0.016814
 1682 Fit       0.015358
 1683 Fit       0.014565
 1684 Fit       0.014844
 1685 Fit       0.014768
 1686 Fit       0.015466
 1687 Fit       0.014753
 1688 Fit       0.014181
 1689 Fit       0.013627
 1690 Fit       0.014265
 1691 Fit       0.000838
 1692 Fit       0.007445
 1693 Fit       0.014249
 1694 Fit       0.014753
 1695 Fit       0.014043
 1696 Fit       0.014017
 1697 Fit       0.014798
 1698 Fit       0.011377
 1699 Fit       0.012922
 1700 Fit       0.013574
 1701 Fit       0.014331
 1702 Fit       0.015975
 1703 Fit       0.009629
 1704 Fit       0.012448
 1705 Fit       0.014223
 1706 Fit       0.010381
 1707 Fit       0.013765
 1708 Fit       0.013316
 1709 Fit       0.010814
 1710 Fit       0.007899
 1711 Fit      -0.003861
 1712 Fit       0.012963
 1713 Fit       0.011583
 1714 Fit       0.010059
 1715 Fit       0.012447
 1716 Fit       0.010922
 1717 Fit       0.010675
 1718 Fit       0.013404
 1719 Fit       0.010963
 1720 Fit       0.002853
 1721 Fit       0.009325
 1722 Fit       0.008155
 1723 Fit       0.005617
 1724 Fit      -0.009497
 1725 Fit      -0.006053
 1726 Fit       0.002434
 1727 Fit       0.002057
 1728 Fit       0.002300
 1729 Fit       0.005969
 1730 Fit       0.009554
 1731 Fit       0.006955
 1732 Fit       0.006034
 1733 Fit       0.006785
 1734 Fit       0.008628
 1735 Fit       0.006600
 1736 Fit       0.007413
 1737 Fit       0.013717
 1738 Fit       0.009592
 1739 Fit       0.014640
 1740 Fit       0.012210
 1741 Fit       0.009373
 1742 Fit       0.014851
 1743 Fit       0.013280
 1744 Fit       0.011489
 1745 Fit       0.009198
 1746 Fit       0.005795
 1747 Fit       0.012938
 1748 Fit       0.012232
 1749 Fit       0.010900
 1750 Fit       0.008914
 1751 Fit       0.005674
 1752 Fit       0.010688
 1753 Fit       0.009543
 1754 Fit       0.006958
 1755 Fit       0.002598
 1756 Fit      -0.002384
 1757 Fit      -0.000494
 1758 Fit       0.004171
 1759 Fit      -0.002369
 1760 Fit      -0.010126
 1761 Fit       0.002367
 1762 Fit      -0.002869
 1763 Fit      -0.008204
 1764 Fit       0.005260
 1765 Fit       0.002710
 1766 Fit       0.000758
 1767 Fit       0.006061
 1768 Fit       0.005022
 1769 Fit       0.005178
 1770 Fit       0.005836
 1771 Fit       0.006308
 1772 Fit       0.006121
 1773 Fit      -0.012407
 1774 Fit      -0.000704
 1775 Fit       0.006312
 1776 Fit       0.005331
 1777 Fit      -0.001965
 1778 Fit       0.000860
 1779 Fit       0.002059
 1780 Fit      -0.003892
 1781 Fit       0.000555
 1782 Fit       0.002916
 1783 Fit       0.004008
 1784 Fit      -0.000922
 1785 Fit       0.002607
 1786 Fit       0.004682
 1787 Fit       0.001706
 1788 Fit       0.004711
 1789 Fit      -0.003516
 1790 Fit      -0.008320
 1791 Fit       0.001666
 1792 Fit       0.004545
 1793 Fit       0.006237
 1794 Fit       0.005837
 1795 Fit       0.006856
 1796 Fit       0.002409
 1797 Fit       0.005197
 1798 Fit      -0.012069
 1799 Fit      -0.015276
 1800 Fit      -0.016035
 1801 Fit      -0.013475
 1802 Fit      -0.008547
 1803 Fit      -0.006058
 1804 Fit      -0.010706
 1805 Fit      -0.018167
 1806 Fit      -0.018077
 1807 Fit      -0.017285
 1808 Fit      -0.015827
 1809 Fit      -0.013071
 1810 Fit      -0.009010
 1811 Fit      -0.004474
 1812 Fit      -0.011718
 1813 Fit      -0.016440
 1814 Fit      -0.020551
 1815 Fit      -0.018644
 1816 Fit      -0.016630
 1817 Fit      -0.015076
 1818 Fit      -0.013382
 1819 Fit      -0.010979
 1820 Fit      -0.008377
 1821 Fit      -0.004046
 1822 Fit      -0.015569
 1823 Fit      -0.019937
 1824 Fit      -0.021239
 1825 Fit      -0.022038
 1826 Fit      -0.018150
 1827 Fit      -0.014376
 1828 Fit      -0.011590
 1829 Fit      -0.009775
 1830 Fit      -0.007709
 1831 Fit      -0.027154
 1832 Fit      -0.025086
 1833 Fit      -0.022164
 1834 Fit      -0.016498
 1835 Fit      -0.010948
 1836 Fit      -0.006480
 1837 Fit      -0.003762
 1838 Fit      -0.027278
 1839 Fit      -0.020598
 1840 Fit      -0.012431
 1841 Fit      -0.028486
 1842 Fit      -0.017277
 1843 Fit       0.004275
 1844 Fit       0.006516
 1845 Fit       0.005218
 1846 Fit      -0.001438
 1847 Fit      -0.005368
 1848 Fit      -0.002467
 1849 Fit       0.001291
 1850 Fit       0.000774
 1851 Fit      -0.002560
 1852 Fit       0.003937
 1853 Fit       0.002778
 1854 Fit      -0.001006
 1855 Fit      -0.006192
 1856 Fit      -0.009694
 1857 Fit       0.004929
 1858 Fit      -0.001413
 1859 Fit      -0.000132
 1860 Fit       0.004016
 1861 Fit       0.007273
 1862 Fit       0.008664
 1863 Fit       0.008390
 1864 Fit       0.005566
 1865 Fit       0.007438
 1866 Fit       0.005410
 1867 Fit       0.004523
 1868 Fit       0.006657
 1869 Fit       0.005233
 1870 Fit       0.008040
 1871 Fit       0.006605
 1872 Fit       0.003801
 1873 Fit       0.008613
 1874 Fit       0.007829
 1875 Fit       0.007106
 1876 Fit       0.007770
 1877 Fit       0.006940
 1878 Fit       0.006636
 1879 Fit      -0.018342
 1880 Fit      -0.009635
 1881 Fit      -0.016575
 1882 Fit      -0.023129
 1883 Fit      -0.000854
 1884 Fit      -0.008425
 1885 Fit      -0.014360
 1886 Fit      -0.018367
 1887 Fit      -0.021047
 1888 Fit      -0.023965
 1889 Fit      -0.028926
 1890 Fit       0.000026
 1891 Fit      -0.006456
 1892 Fit      -0.011467
 1893 Fit      -0.014944
 1894 Fit      -0.017915
 1895 Fit      -0.020812
 1896 Fit      -0.022356
 1897 Fit      -0.027213
 1898 Fit      -0.008331
 1899 Fit      -0.011134
 1900 Fit      -0.014662
 1901 Fit      -0.018416
 1902 Fit      -0.019678
 1903 Fit      -0.023950
 1904 Fit      -0.028420
 1905 Fit      -0.010654
 1906 Fit      -0.015252
 1907 Fit      -0.016557
 1908 Fit      -0.020765
 1909 Fit      -0.022874
 1910 Fit      -0.005600
 1911 Fit      -0.011347
 1912 Fit      -0.012613
 1913 Fit      -0.016507
 1914 Fit      -0.016588
 1915 Fit      -0.007175
 1916 Fit      -0.009626
 1917 Fit      -0.007796
 1918 Fit      -0.003780
 1919 Fit       0.000039
 1920 Fit       0.005145
 1921 Fit       0.001186
 1922 Fit      -0.001677
 1923 Fit       0.005315
 1924 Fit       0.000337
 1925 Fit      -0.002727
 1926 Fit      -0.004321
 1927 Fit      -0.004500
 1928 Fit      -0.004921
 1929 Fit      -0.006575
 1930 Fit      -0.006689
 1931 Fit      -0.005247
 1932 Fit      -0.004013
 1933 Fit      -0.004281
 1934 Fit      -0.004386
 1935 Fit      -0.005956
 1936 Fit      -0.004002
 1937 Fit      -0.003696
 1938 Fit      -0.007859
 1939 Fit       0.005082
 1940 Fit       0.008653
 1941 Fit       0.004883
 1942 Fit       0.007992
 1943 Fit       0.009481
 1944 Fit      -0.001479
 1945 Fit      -0.002439
 1946 Fit      -0.002284
 1947 Fit       0.000872
 1948 Fit      -0.002471
 1949 Fit       0.003150
 1950 Fit       0.003924
 1951 Fit       0.005323
 1952 Fit       0.008215
 1953 Fit      -0.006141
 1954 Fit      -0.008041
 1955 Fit      -0.008241
 1956 Fit      -0.001061
 1957 Fit      -0.007565
 1958 Fit      -0.011168
 1959 Fit      -0.012425
 1960 Fit      -0.012596
 1961 Fit      -0.012584
 1962 Fit      -0.012093
 1963 Fit      -0.009337
 1964 Fit      -0.001200
 1965 Fit      -0.007239
 1966 Fit      -0.011308
 1967 Fit      -0.013240
 1968 Fit      -0.013655
 1969 Fit      -0.013683
 1970 Fit      -0.014114
 1971 Fit      -0.014884
 1972 Fit      -0.015060
 1973 Fit      -0.013281
 1974 Fit      -0.007212
 1975 Fit      -0.008346
 1976 Fit      -0.010636
 1977 Fit      -0.011319
 1978 Fit      -0.011542
 1979 Fit      -0.012214
 1980 Fit      -0.013593
 1981 Fit      -0.015209
 1982 Fit      -0.016090
 1983 Fit      -0.015227
 1984 Fit      -0.012134
 1985 Fit      -0.006392
 1986 Fit      -0.005348
 1987 Fit      -0.006402
 1988 Fit      -0.007226
 1989 Fit      -0.008885
 1990 Fit      -0.011284
 1991 Fit      -0.013389
 1992 Fit      -0.013811
 1993 Fit      -0.011534
 1994 Fit       0.000462
 1995 Fit      -0.000863
 1996 Fit      -0.003367
 1997 Fit      -0.006494
 1998 Fit      -0.008446
 1999 Fit      -0.007391
 2000 Fit       0.001117
 2001 Fit       0.004118
 2002 Fit       0.006508
 2003 Fit       0.008051
 2004 Fit       0.002136
 2005 Fit       0.003520
 2006 Fit       0.006073
 2007 Fit       0.007643
 2008 Fit       0.008577
 2009 Fit       0.000025
 2010 Fit       0.004866
 2011 Fit       0.006691
 2012 Fit       0.007876
 2013 Fit       0.002921
 2014 Fit       0.005947
 2015 Fit       0.007530
 2016 Fit       0.004468
 2017 Fit       0.003556
 2018 Fit       0.002547
 2019 Fit       0.000915
 2020 Fit      -0.000982
 2021 Fit       0.006473
 2022 Fit       0.005853
 2023 Fit       0.004984
 2024 Fit       0.003796
 2025 Fit       0.003007
 2026 Fit       0.005866
 2027 Fit       0.007711
 2028 Fit       0.006698
 2029 Fit       0.005759
 2030 Fit       0.007256
 2031 Fit       0.002177
 2032 Fit       0.005250
 2033 Fit       0.004630
 2034 Fit       0.008490
 2035 Fit       0.005901
 2036 Fit       0.005041
 2037 Fit       0.004269
 2038 Fit       0.007316
 2039 Fit       0.004604
 2040 Fit       0.003997
 2041 Fit       0.005004
 2042 Fit       0.005305
 2043 Fit       0.009638
 2044 Fit       0.008546
 2045 Fit       0.005897
 2046 Fit       0.009023
 2047 Fit       0.008792
 2048 Fit       0.008276
 2049 Fit       0.007542
 2050 Fit       0.007796
 2051 Fit       0.007384
 2052 Fit       0.006980
 2053 Fit       0.006169
 2054 Fit       0.006080
 2055 Fit       0.005665
 2056 Fit       0.005182
 2057 Fit       0.008228
 2058 Fit       0.007505
 2059 Fit       0.006811
 2060 Fit       0.006401
 2061 Fit       0.005963
 2062 Fit       0.005392
 2063 Fit       0.004999
 2064 Fit       0.005437
 2065 Fit       0.007318
 2066 Fit       0.007631
 2067 Fit       0.007268
 2068 Fit       0.006817
 2069 Fit       0.006368
 2070 Fit       0.006655
 2071 Fit       0.007536
 2072 Fit       0.007199
 2073 Fit      -0.003605
 2074 Fit       0.002215
 2075 Fit      -0.000575
 2076 Fit      -0.006570
 2077 Fit       0.003993
 2078 Fit       0.003227
 2079 Fit       0.001602
 2080 Fit      -0.001265
 2081 Fit       0.004079
 2082 Fit       0.003886
 2083 Fit       0.003209
 2084 Fit       0.002146
 2085 Fit       0.001826
 2086 Fit       0.003770
 2087 Fit       0.003712
 Job cpu time:       0 days  0 hours  5 minutes  8.7 seconds.
 Normal termination of Gaussian 16 at Sat Jul  8 20:44:42 2023.
