 Copyright (c) 1988-2019, Gaussian, Inc.  All Rights Reserved.
  
 This is part of the Gaussian(R) 16 program.  It is based on
 the Gaussian(R) 09 system (copyright 2009, Gaussian, Inc.),
 the Gaussian(R) 03 system (copyright 2003, Gaussian, Inc.),
 the Gaussian(R) 98 system (copyright 1998, Gaussian, Inc.),
 the Gaussian(R) 94 system (copyright 1995, Gaussian, Inc.),
 the Gaussian 92(TM) system (copyright 1992, Gaussian, Inc.),
 the Gaussian 90(TM) system (copyright 1990, Gaussian, Inc.),
 the Gaussian 88(TM) system (copyright 1988, Gaussian, Inc.),
 the Gaussian 86(TM) system (copyright 1986, Carnegie Mellon
 University), and the Gaussian 82(TM) system (copyright 1983,
 Carnegie Mellon University). Gaussian is a federally registered
 trademark of Gaussian, Inc.
 Cite this work as:
 Gaussian 16, Revision C.01,
 M. J. Frisch, G. W. Trucks, H. B. Schlegel, G. E. Scuseria, 
 M. A. Robb, J. R. Cheeseman, G. Scalmani, V. Barone, 
 G. A. Petersson, H. Nakatsuji, X. Li, M. Caricato, A. V. Marenich, 
 J. Bloino, B. G. Janesko, R. Gomperts, B. Mennucci, H. P. Hratchian, 
 J. V. Ortiz, A. F. Izmaylov, J. L. Sonnenberg, D. Williams-Young, 
 F. Ding, F. Lipparini, F. Egidi, J. Goings, B. Peng, A. Petrone, 
 T. Henderson, D. Ranasinghe, V. G. Zakrzewski, J. Gao, N. Rega, 
 G. Zheng, W. Liang, M. Hada, M. Ehara, K. Toyota, R. Fukuda, 
 J. Hasegawa, M. Ishida, T. Nakajima, Y. Honda, O. Kitao, H. Nakai, 
 T. Vreven, K. Throssell, J. A. Montgomery, Jr., J. E. Peralta, 
 F. Ogliaro, M. J. Bearpark, J. J. Heyd, E. N. Brothers, K. N. Kudin, 
 V. N. Staroverov, T. A. Keith, R. Kobayashi, J. Normand, 
 K. Raghavachari, A. P. Rendell, J. C. Burant, S. S. Iyengar, 
 J. Tomasi, M. Cossi, J. M. Millam, M. Klene, C. Adamo, R. Cammi, 
 J. W. Ochterski, R. L. Martin, K. Morokuma, O. Farkas, 
 J. B. Foresman, and D. J. Fox, Gaussian, Inc., Wallingford CT, 2019.
 
 ******************************************
 Gaussian 16:  EM64L-G16RevC.01  3-Jul-2019
                 8-Jul-2023 
 ******************************************
 ----------------------------------------------------------------------
 #P HF/6-31G(d) SCF(Conver=8,XQC,MaxConventionalCycles=64,MaxCycle=128)
  NoSymm Test Pop=mk IOp(6/33=2) GFInput GFPrint
 ----------------------------------------------------------------------
 1/38=1,172=1/1;
 2/12=2,15=1,17=6,18=5,40=1/2;
 3/5=1,6=6,7=1,11=9,24=110,25=1,30=1/1,2,3;
 4//1;
 5/5=2,6=8,7=128,8=3,13=1,38=5,85=64/2,8;
 6/7=2,8=2,9=2,10=2,15=8,20=1,28=1,33=2/1,2;
 99/5=1,9=1/99;
 -------------------------------------------------
 MEP step - Input generated by PyRED DVE-DMDS-OPLS
 -------------------------------------------------
 Symbolic Z-matrix:
 Charge =  0 Multiplicity = 1
 C                    -6.31574  -3.24298  -0.47934 
 H                    -6.01515  -2.79738   0.46202 
 H                    -7.40029  -3.27414  -0.51751 
 H                    -5.93845  -4.25871  -0.51048 
 C                    -5.76533  -2.44032  -1.64184 
 H                    -6.07371  -2.88215  -2.58896 
 H                    -6.15956  -1.42648  -1.61418 
 O                    -4.37     -2.4377   -1.54964 
 C                    -3.68384  -1.79342  -2.57822 
 H                    -4.14285  -2.0108   -3.54223 
 H                    -2.68152  -2.20165  -2.58466 
 C                    -3.59063  -0.28872  -2.40473 
 H                    -3.12493   0.13885  -3.29285 
 H                    -4.58025   0.15508  -2.31082 
 O                    -2.82663  -0.00738  -1.27258 
 C                    -2.69816   1.34951  -0.97744 
 H                    -3.67792   1.78217  -0.77187 
 H                    -2.26532   1.88811  -1.81881 
 C                    -1.81766   1.53033   0.24373 
 H                    -2.16778   0.87573   1.03784 
 H                    -1.91188   2.55526   0.58416 
 O                    -0.4563    1.32808   0. 
 C                     0.        0.        0. 
 H                    -0.38339  -0.54143  -0.85344 
 H                    -0.34905  -0.50247   0.90131 
 C                     1.51815   0.        0. 
 H                     1.86314  -1.01628   0.15594 
 H                     1.89323   0.59271   0.82438 
 S                     2.33027   0.49661  -1.54764 
 C                     2.02125   2.28468  -1.6845 
 H                     2.55563   2.57226  -2.58194 
 H                     0.96741   2.45065  -1.85051 
 C                     2.46375   3.15856  -0.51393 
 H                     1.88555   2.91583   0.366 
 H                     2.24876   4.18992  -0.77316 
 S                     4.24775   3.02321  -0.1688 
 C                     4.51394   4.5213    0.82362 
 H                     4.08538   5.37356   0.30936 
 H                     5.58693   4.66503   0.84486 
 C                     3.97715   4.42362   2.24972 
 H                     2.91036   4.24495   2.24057 
 H                     4.45485   3.5998    2.76486 
 S                     4.33213   5.97449   3.1376 
 C                     3.82614   5.54836   4.8316 
 H                     4.33533   4.63812   5.12727 
 H                     4.22408   6.34714   5.44614 
 C                     2.32066   5.42342   5.04671 
 H                     1.89703   4.61473   4.46154 
 H                     2.11103   5.21702   6.09258 
 H                     1.81271   6.34048   4.77146 
 
 ITRead=  0  0  0  0  0  0  0  0  0  0  0  0  0  0  0  0  0  0  0  0
 ITRead=  0  0  0  0  0  0  0  0  0  0  0  0  0  0  0  0  0  0  0  0
 ITRead=  0  0  0  0  0  0  0  0  0  0
 MicOpt= -1 -1 -1 -1 -1 -1 -1 -1 -1 -1 -1 -1 -1 -1 -1 -1 -1 -1 -1 -1
 MicOpt= -1 -1 -1 -1 -1 -1 -1 -1 -1 -1 -1 -1 -1 -1 -1 -1 -1 -1 -1 -1
 MicOpt= -1 -1 -1 -1 -1 -1 -1 -1 -1 -1
 NAtoms=     50 NQM=       50 NQMF=       0 NMMI=      0 NMMIF=      0
                NMic=       0 NMicF=      0.
                          Input orientation:                          
 ---------------------------------------------------------------------
 Center     Atomic      Atomic             Coordinates (Angstroms)
 Number     Number       Type             X           Y           Z
 ---------------------------------------------------------------------
      1          6           0       -6.315736   -3.242984   -0.479341
      2          1           0       -6.015146   -2.797380    0.462018
      3          1           0       -7.400290   -3.274136   -0.517506
      4          1           0       -5.938451   -4.258707   -0.510475
      5          6           0       -5.765331   -2.440323   -1.641837
      6          1           0       -6.073711   -2.882153   -2.588957
      7          1           0       -6.159555   -1.426477   -1.614181
      8          8           0       -4.370001   -2.437701   -1.549641
      9          6           0       -3.683841   -1.793415   -2.578218
     10          1           0       -4.142852   -2.010796   -3.542227
     11          1           0       -2.681516   -2.201646   -2.584657
     12          6           0       -3.590626   -0.288722   -2.404727
     13          1           0       -3.124925    0.138847   -3.292845
     14          1           0       -4.580253    0.155075   -2.310818
     15          8           0       -2.826628   -0.007375   -1.272584
     16          6           0       -2.698155    1.349505   -0.977442
     17          1           0       -3.677917    1.782174   -0.771870
     18          1           0       -2.265321    1.888112   -1.818809
     19          6           0       -1.817660    1.530330    0.243733
     20          1           0       -2.167776    0.875728    1.037845
     21          1           0       -1.911878    2.555261    0.584162
     22          8           0       -0.456304    1.328078    0.000000
     23          6           0        0.000000    0.000000    0.000000
     24          1           0       -0.383390   -0.541432   -0.853439
     25          1           0       -0.349045   -0.502469    0.901312
     26          6           0        1.518148    0.000000    0.000000
     27          1           0        1.863143   -1.016275    0.155935
     28          1           0        1.893225    0.592708    0.824382
     29         16           0        2.330274    0.496614   -1.547643
     30          6           0        2.021253    2.284683   -1.684504
     31          1           0        2.555630    2.572260   -2.581944
     32          1           0        0.967408    2.450648   -1.850514
     33          6           0        2.463750    3.158561   -0.513925
     34          1           0        1.885545    2.915826    0.366002
     35          1           0        2.248757    4.189919   -0.773157
     36         16           0        4.247750    3.023207   -0.168804
     37          6           0        4.513944    4.521299    0.823624
     38          1           0        4.085384    5.373559    0.309359
     39          1           0        5.586926    4.665034    0.844858
     40          6           0        3.977146    4.423618    2.249721
     41          1           0        2.910357    4.244952    2.240570
     42          1           0        4.454849    3.599797    2.764857
     43         16           0        4.332126    5.974494    3.137595
     44          6           0        3.826135    5.548361    4.831599
     45          1           0        4.335325    4.638123    5.127270
     46          1           0        4.224078    6.347140    5.446141
     47          6           0        2.320660    5.423416    5.046713
     48          1           0        1.897028    4.614729    4.461535
     49          1           0        2.111031    5.217022    6.092579
     50          1           0        1.812712    6.340476    4.771464
 ---------------------------------------------------------------------
 Stoichiometry    C14H30O3S3
 Framework group  C1[X(C14H30O3S3)]
 Standard basis: 6-31G(d) (6D, 7F)
   372 basis functions,   752 primitive gaussians,   372 cartesian basis functions
    93 alpha electrons       93 beta electrons
 Requested convergence on RMS density matrix=1.00D-08 within  64 cycles.
 Requested convergence on MAX density matrix=1.00D-06.
 Requested convergence on             energy=1.00D-06.
 SCF Done:  E(RHF) =  -1964.69279473     A.U. after   13 cycles
            NFock= 13  Conv=0.60D-08     -V/T= 2.0006
 Mulliken charges:
     1  C   -0.487441
     2  H    0.175500
     3  H    0.155110
     4  H    0.175263
     5  C    0.018395
     6  H    0.137026
     7  H    0.135024
     8  O   -0.613761
     9  C    0.002804
    10  H    0.140287
    11  H    0.187160
    12  C    0.003743
    13  H    0.143237
    14  H    0.141568
    15  O   -0.619624
    16  C    0.009779
    17  H    0.138028
    18  H    0.150730
    19  C   -0.001552
    20  H    0.161923
    21  H    0.169403
    22  O   -0.640228
    23  C    0.028578
    24  H    0.187580
    25  H    0.146795
    26  C   -0.501102
    27  H    0.200571
    28  H    0.205129
    29  S    0.116977
    30  C   -0.472968
    31  H    0.204257
    32  H    0.218403
    33  C   -0.468538
    34  H    0.207144
    35  H    0.188940
    36  S    0.144833
    37  C   -0.503525
    38  H    0.201607
    39  H    0.216272
    40  C   -0.454625
    41  H    0.192175
    42  H    0.200713
    43  S    0.109994
    44  C   -0.475216
    45  H    0.190217
    46  H    0.199067
    47  C   -0.475539
    48  H    0.164429
    49  H    0.166932
    50  H    0.178523
 Sum of Mulliken charges =  -0.00000
 Dipole moment (field-independent basis, Debye):
    X=             -5.4844    Y=              0.6491    Z=              0.7283  Tot=              5.5705
 Quadrupole moment (field-independent basis, Debye-Ang):
   XX=           -153.0109   YY=           -155.4380   ZZ=           -134.5031
   XY=            -11.7393   XZ=             14.1822   YZ=              1.8576
 Traceless Quadrupole moment (field-independent basis, Debye-Ang):
   XX=             -5.3602   YY=             -7.7873   ZZ=             13.1476
   XY=            -11.7393   XZ=             14.1822   YZ=              1.8576
 Octapole moment (field-independent basis, Debye-Ang**2):
  XXX=           -424.9213  YYY=           -847.0037  ZZZ=            -40.4345  XYY=           -140.1525
  XXY=           -323.6515  XXZ=            -54.4819  XZZ=            -83.8177  YZZ=           -217.0174
  YYZ=            -39.8733  XYZ=            -11.9279
 Hexadecapole moment (field-independent basis, Debye-Ang**3):
 XXXX=         -11641.1964 YYYY=         -10529.6546 ZZZZ=          -4062.6758 XXXY=          -4403.9936
 XXXZ=          -1781.6659 YYYX=          -4697.9813 YYYZ=          -2385.4761 ZZZX=          -1698.6769
 ZZZY=          -1911.3766 XXYY=          -3932.3349 XXZZ=          -2558.6942 YYZZ=          -2145.3504
 XXYZ=           -768.9833 YYXZ=           -749.8817 ZZXY=          -1237.6036
 Merz-Kollman atomic radii used.
 Atom Element Radius
    1     6    1.50
    2     1    1.20
    3     1    1.20
    4     1    1.20
    5     6    1.50
    6     1    1.20
    7     1    1.20
    8     8    1.40
    9     6    1.50
   10     1    1.20
   11     1    1.20
   12     6    1.50
   13     1    1.20
   14     1    1.20
   15     8    1.40
   16     6    1.50
   17     1    1.20
   18     1    1.20
   19     6    1.50
   20     1    1.20
   21     1    1.20
   22     8    1.40
   23     6    1.50
   24     1    1.20
   25     1    1.20
   26     6    1.50
   27     1    1.20
   28     1    1.20
   29    16    1.75
   30     6    1.50
   31     1    1.20
   32     1    1.20
   33     6    1.50
   34     1    1.20
   35     1    1.20
   36    16    1.75
   37     6    1.50
   38     1    1.20
   39     1    1.20
   40     6    1.50
   41     1    1.20
   42     1    1.20
   43    16    1.75
   44     6    1.50
   45     1    1.20
   46     1    1.20
   47     6    1.50
   48     1    1.20
   49     1    1.20
   50     1    1.20
 Generate VDW surfaces: Layer= 4 Dens= 1 Start= 1.400 Inc= 0.200
            Electrostatic Properties Using The SCF Density.


       Atomic Center    1 is at  -6.315736 -3.242984 -0.479341
       Atomic Center    2 is at  -6.015146 -2.797380  0.462018
       Atomic Center    3 is at  -7.400290 -3.274136 -0.517506
       Atomic Center    4 is at  -5.938451 -4.258707 -0.510475
       Atomic Center    5 is at  -5.765331 -2.440323 -1.641837
       Atomic Center    6 is at  -6.073711 -2.882153 -2.588957
       Atomic Center    7 is at  -6.159555 -1.426477 -1.614181
       Atomic Center    8 is at  -4.370001 -2.437701 -1.549641
       Atomic Center    9 is at  -3.683841 -1.793415 -2.578218
       Atomic Center   10 is at  -4.142852 -2.010796 -3.542227
       Atomic Center   11 is at  -2.681516 -2.201646 -2.584657
       Atomic Center   12 is at  -3.590626 -0.288722 -2.404727
       Atomic Center   13 is at  -3.124925  0.138847 -3.292845
       Atomic Center   14 is at  -4.580253  0.155075 -2.310818
       Atomic Center   15 is at  -2.826628 -0.007375 -1.272584
       Atomic Center   16 is at  -2.698155  1.349505 -0.977442
       Atomic Center   17 is at  -3.677917  1.782174 -0.771870
       Atomic Center   18 is at  -2.265321  1.888112 -1.818809
       Atomic Center   19 is at  -1.817660  1.530330  0.243733
       Atomic Center   20 is at  -2.167776  0.875728  1.037845
       Atomic Center   21 is at  -1.911878  2.555261  0.584162
       Atomic Center   22 is at  -0.456304  1.328078  0.000000
       Atomic Center   23 is at   0.000000  0.000000  0.000000
       Atomic Center   24 is at  -0.383390 -0.541432 -0.853439
       Atomic Center   25 is at  -0.349045 -0.502469  0.901312
       Atomic Center   26 is at   1.518148  0.000000  0.000000
       Atomic Center   27 is at   1.863143 -1.016275  0.155935
       Atomic Center   28 is at   1.893225  0.592708  0.824382
       Atomic Center   29 is at   2.330274  0.496614 -1.547643
       Atomic Center   30 is at   2.021253  2.284683 -1.684504
       Atomic Center   31 is at   2.555630  2.572260 -2.581944
       Atomic Center   32 is at   0.967408  2.450648 -1.850514
       Atomic Center   33 is at   2.463750  3.158561 -0.513925
       Atomic Center   34 is at   1.885545  2.915826  0.366002
       Atomic Center   35 is at   2.248757  4.189919 -0.773157
       Atomic Center   36 is at   4.247750  3.023207 -0.168804
       Atomic Center   37 is at   4.513944  4.521299  0.823624
       Atomic Center   38 is at   4.085384  5.373559  0.309359
       Atomic Center   39 is at   5.586926  4.665034  0.844858
       Atomic Center   40 is at   3.977146  4.423618  2.249721
       Atomic Center   41 is at   2.910357  4.244952  2.240570
       Atomic Center   42 is at   4.454849  3.599797  2.764857
       Atomic Center   43 is at   4.332126  5.974494  3.137595
       Atomic Center   44 is at   3.826135  5.548361  4.831599
       Atomic Center   45 is at   4.335325  4.638123  5.127270
       Atomic Center   46 is at   4.224078  6.347140  5.446141
       Atomic Center   47 is at   2.320660  5.423416  5.046713
       Atomic Center   48 is at   1.897028  4.614729  4.461535
       Atomic Center   49 is at   2.111031  5.217022  6.092579
       Atomic Center   50 is at   1.812712  6.340476  4.771464
      ESP Fit Center   51 is at  -6.840736 -4.152311  1.339312
      ESP Fit Center   52 is at  -7.506701 -1.868538  0.570659
      ESP Fit Center   53 is at  -7.506701 -4.617430  0.570659
      ESP Fit Center   54 is at  -7.506701 -4.617430 -1.529341
      ESP Fit Center   55 is at  -6.015146 -2.797380  2.142018
      ESP Fit Center   56 is at  -5.027667 -2.797380  1.821167
      ESP Fit Center   57 is at  -5.709998 -1.858231  1.821167
      ESP Fit Center   58 is at  -6.814033 -2.216954  1.821167
      ESP Fit Center   59 is at  -6.814033 -3.377806  1.821167
      ESP Fit Center   60 is at  -5.709998 -3.736529  1.821167
      ESP Fit Center   61 is at  -4.417371 -2.797380  0.981167
      ESP Fit Center   62 is at  -4.791179 -1.770350  0.981167
      ESP Fit Center   63 is at  -5.737695 -1.223879  0.981167
      ESP Fit Center   64 is at  -6.814033 -1.413666  0.981167
      ESP Fit Center   65 is at  -7.516563 -2.250909  0.981167
      ESP Fit Center   66 is at  -4.791179 -3.824410  0.981167
      ESP Fit Center   67 is at  -8.199177 -2.693710  0.841643
      ESP Fit Center   68 is at  -8.199177 -3.854562  0.841643
      ESP Fit Center   69 is at  -8.199177 -1.890422  0.001643
      ESP Fit Center   70 is at  -8.901707 -2.727665  0.001643
      ESP Fit Center   71 is at  -8.901707 -3.820607  0.001643
      ESP Fit Center   72 is at  -8.199177 -4.657850  0.001643
      ESP Fit Center   73 is at  -8.199177 -1.890422 -1.036655
      ESP Fit Center   74 is at  -8.901707 -2.727665 -1.036655
      ESP Fit Center   75 is at  -8.901707 -3.820607 -1.036655
      ESP Fit Center   76 is at  -8.199177 -4.657850 -1.036655
      ESP Fit Center   77 is at  -8.199177 -2.693710 -1.876655
      ESP Fit Center   78 is at  -8.199177 -3.854562 -1.876655
      ESP Fit Center   79 is at  -4.950972 -4.258707  0.848674
      ESP Fit Center   80 is at  -6.737338 -4.839133  0.848674
      ESP Fit Center   81 is at  -5.633303 -5.197856  0.848674
      ESP Fit Center   82 is at  -4.340676 -4.258707  0.008674
      ESP Fit Center   83 is at  -6.737338 -5.642421  0.008674
      ESP Fit Center   84 is at  -5.661000 -5.832208  0.008674
      ESP Fit Center   85 is at  -4.714484 -5.285737  0.008674
      ESP Fit Center   86 is at  -6.737338 -5.642421 -1.029624
      ESP Fit Center   87 is at  -5.661000 -5.832208 -1.029624
      ESP Fit Center   88 is at  -4.714484 -5.285737 -1.029624
      ESP Fit Center   89 is at  -6.737338 -4.839133 -1.869624
      ESP Fit Center   90 is at  -5.633303 -5.197856 -1.869624
      ESP Fit Center   91 is at  -7.804309 -1.937760 -1.641837
      ESP Fit Center   92 is at  -7.510316 -1.927949 -2.691837
      ESP Fit Center   93 is at  -7.575128 -2.335682 -3.108106
      ESP Fit Center   94 is at  -7.575128 -3.428624 -3.108106
      ESP Fit Center   95 is at  -6.872598 -4.265867 -3.108106
      ESP Fit Center   96 is at  -5.796260 -4.455654 -3.108106
      ESP Fit Center   97 is at  -4.849744 -3.909183 -3.108106
      ESP Fit Center   98 is at  -6.872598 -2.301727 -3.948106
      ESP Fit Center   99 is at  -6.872598 -3.462579 -3.948106
      ESP Fit Center  100 is at  -5.768563 -3.821302 -3.948106
      ESP Fit Center  101 is at  -6.073711 -2.882153 -4.268957
      ESP Fit Center  102 is at  -5.854407 -0.487328 -0.255032
      ESP Fit Center  103 is at  -6.958442 -0.846051 -0.255032
      ESP Fit Center  104 is at  -5.882104  0.147024 -1.095032
      ESP Fit Center  105 is at  -6.958442 -0.042763 -1.095032
      ESP Fit Center  106 is at  -7.660972 -0.880006 -1.095032
      ESP Fit Center  107 is at  -6.958442 -0.042763 -2.133330
      ESP Fit Center  108 is at  -7.660972 -0.880006 -2.133330
      ESP Fit Center  109 is at  -6.958442 -0.846051 -2.973330
      ESP Fit Center  110 is at  -4.370001 -2.437701  0.410359
      ESP Fit Center  111 is at  -3.390001 -2.437701  0.147769
      ESP Fit Center  112 is at  -3.880001 -1.588996  0.147769
      ESP Fit Center  113 is at  -4.860001 -1.588996  0.147769
      ESP Fit Center  114 is at  -3.880001 -3.286406  0.147769
      ESP Fit Center  115 is at  -2.672591 -2.437701 -0.569641
      ESP Fit Center  116 is at  -4.894529 -0.823368 -0.569641
      ESP Fit Center  117 is at  -3.845473 -4.052034 -0.569641
      ESP Fit Center  118 is at  -2.996768 -3.435413 -0.569641
      ESP Fit Center  119 is at  -4.370001 -4.397701 -1.549641
      ESP Fit Center  120 is at  -3.390001 -4.135111 -1.549641
      ESP Fit Center  121 is at  -3.845473 -4.052034 -2.529641
      ESP Fit Center  122 is at  -3.430714 -3.878104 -2.578218
      ESP Fit Center  123 is at  -2.633841 -1.793415 -4.396871
      ESP Fit Center  124 is at  -4.941739 -0.627082 -4.061376
      ESP Fit Center  125 is at  -5.644269 -1.464325 -4.061376
      ESP Fit Center  126 is at  -4.941739 -3.394510 -4.061376
      ESP Fit Center  127 is at  -3.865401 -3.584297 -4.061376
      ESP Fit Center  128 is at  -3.155373 -2.010796 -4.901376
      ESP Fit Center  129 is at  -3.837704 -1.071647 -4.901376
      ESP Fit Center  130 is at  -4.941739 -1.430370 -4.901376
      ESP Fit Center  131 is at  -4.941739 -2.591222 -4.901376
      ESP Fit Center  132 is at  -3.837704 -2.949945 -4.901376
      ESP Fit Center  133 is at  -4.142852 -2.010796 -5.222227
      ESP Fit Center  134 is at  -1.694037 -2.201646 -1.225508
      ESP Fit Center  135 is at  -2.376368 -3.140795 -1.225508
      ESP Fit Center  136 is at  -1.083741 -2.201646 -2.065508
      ESP Fit Center  137 is at  -1.457549 -1.174616 -2.065508
      ESP Fit Center  138 is at  -2.404065 -3.775147 -2.065508
      ESP Fit Center  139 is at  -1.457549 -3.228676 -2.065508
      ESP Fit Center  140 is at  -1.083741 -2.201646 -3.103806
      ESP Fit Center  141 is at  -1.457549 -1.174616 -3.103806
      ESP Fit Center  142 is at  -2.404065 -3.775147 -3.103806
      ESP Fit Center  143 is at  -1.457549 -3.228676 -3.103806
      ESP Fit Center  144 is at  -1.694037 -2.201646 -3.943806
      ESP Fit Center  145 is at  -2.376368 -3.140795 -3.943806
      ESP Fit Center  146 is at  -4.640626 -0.288722 -4.223380
      ESP Fit Center  147 is at  -1.527150  0.138847 -2.773696
      ESP Fit Center  148 is at  -1.527150  0.138847 -3.811994
      ESP Fit Center  149 is at  -1.900958  1.165877 -3.811994
      ESP Fit Center  150 is at  -2.847474  1.712348 -3.811994
      ESP Fit Center  151 is at  -3.923812  1.522561 -3.811994
      ESP Fit Center  152 is at  -1.900958 -0.888183 -3.811994
      ESP Fit Center  153 is at  -2.137446  0.138847 -4.651994
      ESP Fit Center  154 is at  -2.819777  1.077996 -4.651994
      ESP Fit Center  155 is at  -3.923812  0.719273 -4.651994
      ESP Fit Center  156 is at  -3.923812 -0.441579 -4.651994
      ESP Fit Center  157 is at  -2.819777 -0.800302 -4.651994
      ESP Fit Center  158 is at  -3.124925  0.138847 -4.972845
      ESP Fit Center  159 is at  -5.379140  0.735501 -0.951669
      ESP Fit Center  160 is at  -5.379140  1.538789 -1.791669
      ESP Fit Center  161 is at  -6.081670  0.701546 -1.791669
      ESP Fit Center  162 is at  -4.302802  1.728576 -2.829967
      ESP Fit Center  163 is at  -5.379140  1.538789 -2.829967
      ESP Fit Center  164 is at  -6.081670  0.701546 -2.829967
      ESP Fit Center  165 is at  -5.379140  0.735501 -3.669967
      ESP Fit Center  166 is at  -5.379140 -0.425351 -3.669967
      ESP Fit Center  167 is at  -3.806628 -0.007375  0.424826
      ESP Fit Center  168 is at  -3.316628 -0.856080  0.424826
      ESP Fit Center  169 is at  -2.336628 -0.856080  0.424826
      ESP Fit Center  170 is at  -4.524038 -0.007375 -0.292584
      ESP Fit Center  171 is at  -2.302100 -1.621708 -0.292584
      ESP Fit Center  172 is at  -1.453395 -1.005087 -2.252584
      ESP Fit Center  173 is at  -2.445028  3.434194 -0.977442
      ESP Fit Center  174 is at  -4.476804  2.362600  0.587279
      ESP Fit Center  175 is at  -4.476804  1.201748  0.587279
      ESP Fit Center  176 is at  -3.400466  3.355675 -0.252721
      ESP Fit Center  177 is at  -4.476804  3.165888 -0.252721
      ESP Fit Center  178 is at  -5.179334  2.328645 -0.252721
      ESP Fit Center  179 is at  -5.179334  1.235703 -0.252721
      ESP Fit Center  180 is at  -4.476804  0.398460 -0.252721
      ESP Fit Center  181 is at  -3.400466  3.355675 -1.291019
      ESP Fit Center  182 is at  -4.476804  3.165888 -1.291019
      ESP Fit Center  183 is at  -5.179334  2.328645 -1.291019
      ESP Fit Center  184 is at  -4.476804  2.362600 -2.131019
      ESP Fit Center  185 is at  -1.041354  2.915142 -1.299660
      ESP Fit Center  186 is at  -1.987870  3.461613 -1.299660
      ESP Fit Center  187 is at  -0.667546  1.888112 -2.337958
      ESP Fit Center  188 is at  -1.041354  2.915142 -2.337958
      ESP Fit Center  189 is at  -1.987870  3.461613 -2.337958
      ESP Fit Center  190 is at  -3.064208  3.271826 -2.337958
      ESP Fit Center  191 is at  -1.041354  0.861082 -2.337958
      ESP Fit Center  192 is at  -1.277842  1.888112 -3.177958
      ESP Fit Center  193 is at  -1.960173  2.827261 -3.177958
      ESP Fit Center  194 is at  -3.064208  2.468538 -3.177958
      ESP Fit Center  195 is at  -2.265321  1.888112 -3.498809
      ESP Fit Center  196 is at  -0.767660  1.530330  2.062386
      ESP Fit Center  197 is at  -3.562645  2.042704  1.293733
      ESP Fit Center  198 is at  -1.062164  3.184635 -0.806267
      ESP Fit Center  199 is at  -2.167776  0.875728  2.717845
      ESP Fit Center  200 is at  -1.180297  0.875728  2.396994
      ESP Fit Center  201 is at  -1.862628  1.814877  2.396994
      ESP Fit Center  202 is at  -2.966663  1.456154  2.396994
      ESP Fit Center  203 is at  -2.966663  0.295302  2.396994
      ESP Fit Center  204 is at  -1.862628 -0.063421  2.396994
      ESP Fit Center  205 is at  -3.669193  1.422199  1.556994
      ESP Fit Center  206 is at  -3.669193  0.329257  1.556994
      ESP Fit Center  207 is at  -2.966663 -0.507986  1.556994
      ESP Fit Center  208 is at  -1.890325 -0.697773  1.556994
      ESP Fit Center  209 is at  -1.911878  2.555261  2.264162
      ESP Fit Center  210 is at  -0.924399  2.555261  1.943311
      ESP Fit Center  211 is at  -1.606730  3.494410  1.943311
      ESP Fit Center  212 is at  -2.710765  3.135687  1.943311
      ESP Fit Center  213 is at  -0.687911  3.582291  1.103311
      ESP Fit Center  214 is at  -1.634427  4.128762  1.103311
      ESP Fit Center  215 is at  -2.710765  3.938975  1.103311
      ESP Fit Center  216 is at  -3.413295  3.101732  1.103311
      ESP Fit Center  217 is at  -0.687911  3.582291  0.065013
      ESP Fit Center  218 is at  -1.634427  4.128762  0.065013
      ESP Fit Center  219 is at  -2.710765  3.938975  0.065013
      ESP Fit Center  220 is at  -1.606730  3.494410 -0.774987
      ESP Fit Center  221 is at  -0.456304  1.328078  1.960000
      ESP Fit Center  222 is at   0.523696  1.328078  1.697410
      ESP Fit Center  223 is at   0.033696  2.176783  1.697410
      ESP Fit Center  224 is at   0.068224  2.942411  0.980000
      ESP Fit Center  225 is at  -0.456304  3.288078  0.000000
      ESP Fit Center  226 is at  -0.456304  1.328078 -1.960000
      ESP Fit Center  227 is at   0.525000  0.909327  1.818653
      ESP Fit Center  228 is at  -1.571873 -1.392558  0.000000
      ESP Fit Center  229 is at  -0.744670 -1.963534  0.000000
      ESP Fit Center  230 is at   0.253127 -2.084689  0.000000
      ESP Fit Center  231 is at  -1.182277 -1.925146 -0.334290
      ESP Fit Center  232 is at  -0.105939 -2.114933 -0.334290
      ESP Fit Center  233 is at  -1.182277 -1.925146 -1.372588
      ESP Fit Center  234 is at  -0.105939 -2.114933 -1.372588
      ESP Fit Center  235 is at   0.840577 -1.568462 -1.372588
      ESP Fit Center  236 is at  -0.078242  0.397717 -2.212588
      ESP Fit Center  237 is at  -1.182277 -1.121858 -2.212588
      ESP Fit Center  238 is at  -0.078242 -1.480581 -2.212588
      ESP Fit Center  239 is at  -0.383390 -0.541432 -2.533439
      ESP Fit Center  240 is at  -0.349045 -0.502469  2.581312
      ESP Fit Center  241 is at   0.638434 -0.502469  2.260461
      ESP Fit Center  242 is at  -0.043897  0.436680  2.260461
      ESP Fit Center  243 is at  -1.147932  0.077957  2.260461
      ESP Fit Center  244 is at  -1.147932 -1.082895  2.260461
      ESP Fit Center  245 is at  -0.043897 -1.441618  2.260461
      ESP Fit Center  246 is at  -1.850462 -1.048940  1.420461
      ESP Fit Center  247 is at  -1.147932 -1.886183  1.420461
      ESP Fit Center  248 is at  -0.071594 -2.075970  1.420461
      ESP Fit Center  249 is at   0.874922 -1.529499  1.420461
      ESP Fit Center  250 is at  -1.850462 -1.048940  0.382163
      ESP Fit Center  251 is at  -1.147932 -1.886183  0.382163
      ESP Fit Center  252 is at  -0.071594 -2.075970  0.382163
      ESP Fit Center  253 is at   1.863143 -1.016275  1.835935
      ESP Fit Center  254 is at   2.850622 -1.016275  1.515084
      ESP Fit Center  255 is at   1.064256 -1.596701  1.515084
      ESP Fit Center  256 is at   2.168291 -1.955424  1.515084
      ESP Fit Center  257 is at   3.460918 -1.016275  0.675084
      ESP Fit Center  258 is at   1.064256 -2.399989  0.675084
      ESP Fit Center  259 is at   2.140594 -2.589776  0.675084
      ESP Fit Center  260 is at   3.087110 -2.043305  0.675084
      ESP Fit Center  261 is at   1.064256 -2.399989 -0.363214
      ESP Fit Center  262 is at   2.140594 -2.589776 -0.363214
      ESP Fit Center  263 is at   3.087110 -2.043305 -0.363214
      ESP Fit Center  264 is at   2.168291 -1.955424 -1.203214
      ESP Fit Center  265 is at   1.893225  0.592708  2.504382
      ESP Fit Center  266 is at   2.880704  0.592708  2.183531
      ESP Fit Center  267 is at   2.198373  1.531857  2.183531
      ESP Fit Center  268 is at   1.094338  1.173134  2.183531
      ESP Fit Center  269 is at   1.094338  0.012282  2.183531
      ESP Fit Center  270 is at   2.198373 -0.346441  2.183531
      ESP Fit Center  271 is at   3.491000  0.592708  1.343531
      ESP Fit Center  272 is at   3.117192 -0.434322  1.343531
      ESP Fit Center  273 is at   4.245761  0.496614 -0.020093
      ESP Fit Center  274 is at   3.941684 -0.538977 -0.020093
      ESP Fit Center  275 is at   4.718847  0.496614 -1.002467
      ESP Fit Center  276 is at   2.861782 -1.832073 -1.002467
      ESP Fit Center  277 is at   3.819525 -1.370848 -1.002467
      ESP Fit Center  278 is at   4.482304 -0.539749 -1.002467
      ESP Fit Center  279 is at   4.718847  0.496614 -2.092819
      ESP Fit Center  280 is at   0.841023 -1.370848 -2.092819
      ESP Fit Center  281 is at   1.798766 -1.832073 -2.092819
      ESP Fit Center  282 is at   2.861782 -1.832073 -2.092819
      ESP Fit Center  283 is at   3.819525 -1.370848 -2.092819
      ESP Fit Center  284 is at   4.482304 -0.539749 -2.092819
      ESP Fit Center  285 is at   4.245761  0.496614 -3.075193
      ESP Fit Center  286 is at   3.941684  1.532205 -3.075193
      ESP Fit Center  287 is at   0.492378  1.036269 -3.075193
      ESP Fit Center  288 is at   0.492378 -0.043041 -3.075193
      ESP Fit Center  289 is at   1.075897 -0.951015 -3.075193
      ESP Fit Center  290 is at   2.057672 -1.399376 -3.075193
      ESP Fit Center  291 is at   3.125996 -1.245774 -3.075193
      ESP Fit Center  292 is at   3.941684 -0.538977 -3.075193
      ESP Fit Center  293 is at   3.393289  0.496614 -3.755017
      ESP Fit Center  294 is at   1.798766  1.417212 -3.755017
      ESP Fit Center  295 is at   1.267259  0.496614 -3.755017
      ESP Fit Center  296 is at   1.798766 -0.423984 -3.755017
      ESP Fit Center  297 is at   2.861782 -0.423984 -3.755017
      ESP Fit Center  298 is at   2.330274  0.496614 -3.997643
      ESP Fit Center  299 is at   1.762432  4.084825 -2.734504
      ESP Fit Center  300 is at   4.153405  2.572260 -3.101093
      ESP Fit Center  301 is at   3.779597  3.599290 -3.101093
      ESP Fit Center  302 is at   2.833081  4.145761 -3.101093
      ESP Fit Center  303 is at   1.756743  3.955974 -3.101093
      ESP Fit Center  304 is at   3.543109  2.572260 -3.941093
      ESP Fit Center  305 is at   2.860778  3.511409 -3.941093
      ESP Fit Center  306 is at   1.756743  3.152686 -3.941093
      ESP Fit Center  307 is at   1.756743  1.991834 -3.941093
      ESP Fit Center  308 is at   2.860778  1.633111 -3.941093
      ESP Fit Center  309 is at   2.555630  2.572260 -4.261944
      ESP Fit Center  310 is at   0.168521  3.834362 -1.331365
      ESP Fit Center  311 is at  -0.534009  2.997119 -1.331365
      ESP Fit Center  312 is at   0.168521  3.834362 -2.369663
      ESP Fit Center  313 is at  -0.534009  2.997119 -2.369663
      ESP Fit Center  314 is at  -0.534009  1.904177 -2.369663
      ESP Fit Center  315 is at   0.168521  3.031074 -3.209663
      ESP Fit Center  316 is at   0.168521  1.870222 -3.209663
      ESP Fit Center  317 is at   0.967408  2.450648 -3.530514
      ESP Fit Center  318 is at   0.424772  3.661124 -0.513925
      ESP Fit Center  319 is at   1.885545  2.915826  2.046002
      ESP Fit Center  320 is at   1.086658  3.496252  1.725151
      ESP Fit Center  321 is at   1.086658  2.335400  1.725151
      ESP Fit Center  322 is at   1.086658  4.299540  0.885151
      ESP Fit Center  323 is at   0.384128  3.462297  0.885151
      ESP Fit Center  324 is at   0.384128  3.462297 -0.153147
      ESP Fit Center  325 is at   1.449870  4.770345  0.585992
      ESP Fit Center  326 is at   2.526208  5.763420 -0.254008
      ESP Fit Center  327 is at   1.449870  5.573633 -0.254008
      ESP Fit Center  328 is at   0.747340  4.736390 -0.254008
      ESP Fit Center  329 is at   3.472724  5.216949 -1.292306
      ESP Fit Center  330 is at   2.526208  5.763420 -1.292306
      ESP Fit Center  331 is at   1.449870  5.573633 -1.292306
      ESP Fit Center  332 is at   0.747340  4.736390 -1.292306
      ESP Fit Center  333 is at   2.553905  5.129068 -2.132306
      ESP Fit Center  334 is at   1.449870  4.770345 -2.132306
      ESP Fit Center  335 is at   3.716242  2.102609  2.038570
      ESP Fit Center  336 is at   4.779258  2.102609  2.038570
      ESP Fit Center  337 is at   6.163237  3.023207  1.358746
      ESP Fit Center  338 is at   3.975148  1.127217  1.358746
      ESP Fit Center  339 is at   5.043472  1.280819  1.358746
      ESP Fit Center  340 is at   5.859160  1.987616  1.358746
      ESP Fit Center  341 is at   6.636323  3.023207  0.376372
      ESP Fit Center  342 is at   4.779258  0.694520  0.376372
      ESP Fit Center  343 is at   5.737001  1.155745  0.376372
      ESP Fit Center  344 is at   6.399780  1.986844  0.376372
      ESP Fit Center  345 is at   6.636323  3.023207 -0.713980
      ESP Fit Center  346 is at   6.399780  4.059570 -0.713980
      ESP Fit Center  347 is at   4.779258  0.694520 -0.713980
      ESP Fit Center  348 is at   5.737001  1.155745 -0.713980
      ESP Fit Center  349 is at   6.399780  1.986844 -0.713980
      ESP Fit Center  350 is at   6.163237  3.023207 -1.696354
      ESP Fit Center  351 is at   5.859160  4.058798 -1.696354
      ESP Fit Center  352 is at   5.043472  4.765595 -1.696354
      ESP Fit Center  353 is at   3.975148  4.919197 -1.696354
      ESP Fit Center  354 is at   5.043472  1.280819 -1.696354
      ESP Fit Center  355 is at   5.859160  1.987616 -1.696354
      ESP Fit Center  356 is at   5.310765  3.023207 -2.376178
      ESP Fit Center  357 is at   4.779258  3.943805 -2.376178
      ESP Fit Center  358 is at   3.716242  3.943805 -2.376178
      ESP Fit Center  359 is at   4.779258  2.102609 -2.376178
      ESP Fit Center  360 is at   4.247750  3.023207 -2.618804
      ESP Fit Center  361 is at   4.362835  6.947060  0.828508
      ESP Fit Center  362 is at   3.286497  6.757273  0.828508
      ESP Fit Center  363 is at   2.583967  5.920030  0.828508
      ESP Fit Center  364 is at   5.309351  6.400589 -0.209790
      ESP Fit Center  365 is at   4.362835  6.947060 -0.209790
      ESP Fit Center  366 is at   3.286497  6.757273 -0.209790
      ESP Fit Center  367 is at   2.583967  5.920030 -0.209790
      ESP Fit Center  368 is at   5.072863  5.373559 -1.049790
      ESP Fit Center  369 is at   4.390532  6.312708 -1.049790
      ESP Fit Center  370 is at   3.286497  5.953985 -1.049790
      ESP Fit Center  371 is at   4.085384  5.373559 -1.370641
      ESP Fit Center  372 is at   6.574405  4.665034  2.204007
      ESP Fit Center  373 is at   7.184701  4.665034  1.364007
      ESP Fit Center  374 is at   6.810893  5.692064  1.364007
      ESP Fit Center  375 is at   6.810893  3.638004  1.364007
      ESP Fit Center  376 is at   7.184701  4.665034  0.325709
      ESP Fit Center  377 is at   6.810893  5.692064  0.325709
      ESP Fit Center  378 is at   5.864377  6.238535  0.325709
      ESP Fit Center  379 is at   6.810893  3.638004  0.325709
      ESP Fit Center  380 is at   6.574405  4.665034 -0.514291
      ESP Fit Center  381 is at   5.892074  5.604183 -0.514291
      ESP Fit Center  382 is at   3.232476  2.460084  2.249721
      ESP Fit Center  383 is at   1.408940  4.791423  2.759719
      ESP Fit Center  384 is at   1.408940  3.698481  2.759719
      ESP Fit Center  385 is at   2.111470  2.861238  2.759719
      ESP Fit Center  386 is at   2.111470  5.628666  1.721421
      ESP Fit Center  387 is at   1.408940  4.791423  1.721421
      ESP Fit Center  388 is at   2.111470  4.825378  0.881421
      ESP Fit Center  389 is at   5.442328  3.599797  4.124006
      ESP Fit Center  390 is at   3.655962  3.019371  4.124006
      ESP Fit Center  391 is at   4.759997  2.660648  4.124006
      ESP Fit Center  392 is at   6.052624  3.599797  3.284006
      ESP Fit Center  393 is at   3.655962  2.216083  3.284006
      ESP Fit Center  394 is at   4.732300  2.026296  3.284006
      ESP Fit Center  395 is at   5.678816  2.572767  3.284006
      ESP Fit Center  396 is at   6.052624  3.599797  2.245708
      ESP Fit Center  397 is at   3.655962  2.216083  2.245708
      ESP Fit Center  398 is at   4.732300  2.026296  2.245708
      ESP Fit Center  399 is at   5.678816  2.572767  2.245708
      ESP Fit Center  400 is at   6.247613  5.974494  4.665145
      ESP Fit Center  401 is at   5.943536  7.010085  4.665145
      ESP Fit Center  402 is at   5.127848  7.716882  4.665145
      ESP Fit Center  403 is at   4.059524  7.870484  4.665145
      ESP Fit Center  404 is at   5.943536  4.938903  4.665145
      ESP Fit Center  405 is at   6.720699  5.974494  3.682771
      ESP Fit Center  406 is at   6.484156  7.010857  3.682771
      ESP Fit Center  407 is at   5.821377  7.841956  3.682771
      ESP Fit Center  408 is at   4.863634  8.303181  3.682771
      ESP Fit Center  409 is at   3.800618  8.303181  3.682771
      ESP Fit Center  410 is at   2.842875  7.841956  3.682771
      ESP Fit Center  411 is at   5.821377  4.107032  3.682771
      ESP Fit Center  412 is at   6.484156  4.938131  3.682771
      ESP Fit Center  413 is at   6.720699  5.974494  2.592419
      ESP Fit Center  414 is at   6.484156  7.010857  2.592419
      ESP Fit Center  415 is at   5.821377  7.841956  2.592419
      ESP Fit Center  416 is at   4.863634  8.303181  2.592419
      ESP Fit Center  417 is at   3.800618  8.303181  2.592419
      ESP Fit Center  418 is at   2.842875  7.841956  2.592419
      ESP Fit Center  419 is at   2.180096  7.010857  2.592419
      ESP Fit Center  420 is at   1.943553  5.974494  2.592419
      ESP Fit Center  421 is at   6.484156  4.938131  2.592419
      ESP Fit Center  422 is at   5.943536  7.010085  1.610045
      ESP Fit Center  423 is at   5.127848  7.716882  1.610045
      ESP Fit Center  424 is at   4.059524  7.870484  1.610045
      ESP Fit Center  425 is at   3.077749  7.422123  1.610045
      ESP Fit Center  426 is at   2.494230  6.514149  1.610045
      ESP Fit Center  427 is at   4.863634  6.895092  0.930221
      ESP Fit Center  428 is at   3.826135  5.548361  6.931599
      ESP Fit Center  429 is at   5.644788  5.548361  5.881599
      ESP Fit Center  430 is at   3.081465  7.511895  4.831599
      ESP Fit Center  431 is at   4.335325  4.638123  6.807270
      ESP Fit Center  432 is at   5.322804  4.638123  6.486419
      ESP Fit Center  433 is at   3.536438  4.057697  6.486419
      ESP Fit Center  434 is at   4.640473  3.698974  6.486419
      ESP Fit Center  435 is at   5.933100  4.638123  5.646419
      ESP Fit Center  436 is at   3.536438  3.254409  5.646419
      ESP Fit Center  437 is at   4.612776  3.064622  5.646419
      ESP Fit Center  438 is at   5.559292  3.611093  5.646419
      ESP Fit Center  439 is at   5.933100  4.638123  4.608121
      ESP Fit Center  440 is at   3.536438  3.254409  4.608121
      ESP Fit Center  441 is at   4.612776  3.064622  4.608121
      ESP Fit Center  442 is at   5.559292  3.611093  4.608121
      ESP Fit Center  443 is at   4.224078  6.347140  7.126141
      ESP Fit Center  444 is at   5.211557  6.347140  6.805290
      ESP Fit Center  445 is at   4.529226  7.286289  6.805290
      ESP Fit Center  446 is at   3.425191  6.927566  6.805290
      ESP Fit Center  447 is at   5.821853  6.347140  5.965290
      ESP Fit Center  448 is at   5.448045  7.374170  5.965290
      ESP Fit Center  449 is at   4.501529  7.920641  5.965290
      ESP Fit Center  450 is at   3.425191  7.730854  5.965290
      ESP Fit Center  451 is at   5.448045  7.374170  4.926992
      ESP Fit Center  452 is at   4.501529  7.920641  4.926992
      ESP Fit Center  453 is at   3.425191  7.730854  4.926992
      ESP Fit Center  454 is at   0.575675  5.935790  6.096713
      ESP Fit Center  455 is at   3.076156  3.769111  6.096713
      ESP Fit Center  456 is at   0.281682  4.920853  5.046713
      ESP Fit Center  457 is at   0.395611  4.068258  4.980684
      ESP Fit Center  458 is at   1.098141  3.231015  4.980684
      ESP Fit Center  459 is at   2.174479  3.041228  4.980684
      ESP Fit Center  460 is at   0.395611  5.161200  3.942386
      ESP Fit Center  461 is at   0.395611  4.068258  3.942386
      ESP Fit Center  462 is at   1.098141  3.231015  3.942386
      ESP Fit Center  463 is at   2.174479  3.041228  3.942386
      ESP Fit Center  464 is at   1.098141  5.195155  3.102386
      ESP Fit Center  465 is at   1.098141  4.034303  3.102386
      ESP Fit Center  466 is at   2.111031  5.217022  7.772579
      ESP Fit Center  467 is at   3.098510  5.217022  7.451728
      ESP Fit Center  468 is at   2.416179  6.156171  7.451728
      ESP Fit Center  469 is at   1.312144  5.797448  7.451728
      ESP Fit Center  470 is at   1.312144  4.636596  7.451728
      ESP Fit Center  471 is at   2.416179  4.277873  7.451728
      ESP Fit Center  472 is at   1.312144  6.600736  6.611728
      ESP Fit Center  473 is at   0.609614  5.763493  6.611728
      ESP Fit Center  474 is at   0.609614  4.670551  6.611728
      ESP Fit Center  475 is at   1.312144  3.833308  6.611728
      ESP Fit Center  476 is at   2.388482  3.643521  6.611728
      ESP Fit Center  477 is at   3.334998  4.189992  6.611728
      ESP Fit Center  478 is at   2.117860  7.279625  6.130613
      ESP Fit Center  479 is at   1.013825  6.920902  6.130613
      ESP Fit Center  480 is at   2.090163  7.913977  5.290613
      ESP Fit Center  481 is at   1.013825  7.724190  5.290613
      ESP Fit Center  482 is at   0.311295  6.886947  5.290613
      ESP Fit Center  483 is at   2.090163  7.913977  4.252315
      ESP Fit Center  484 is at   1.013825  7.724190  4.252315
      ESP Fit Center  485 is at   0.311295  6.886947  4.252315
      ESP Fit Center  486 is at   0.311295  5.794005  4.252315
      ESP Fit Center  487 is at   2.117860  7.279625  3.412315
      ESP Fit Center  488 is at   1.013825  6.920902  3.412315
      ESP Fit Center  489 is at   1.013825  5.760050  3.412315
      ESP Fit Center  490 is at   1.812712  6.340476  3.091464
      ESP Fit Center  491 is at  -6.836396 -4.144794  1.682984
      ESP Fit Center  492 is at  -7.544514 -4.661069  1.017035
      ESP Fit Center  493 is at  -4.737212 -4.257440  1.017035
      ESP Fit Center  494 is at  -7.774594 -1.413634  0.054709
      ESP Fit Center  495 is at  -7.774594 -5.072334  0.054709
      ESP Fit Center  496 is at  -7.544514 -4.661069 -1.975717
      ESP Fit Center  497 is at  -6.015146 -2.797380  2.382018
      ESP Fit Center  498 is at  -5.055146 -2.797380  2.124787
      ESP Fit Center  499 is at  -5.535146 -1.965996  2.124787
      ESP Fit Center  500 is at  -6.495146 -1.965996  2.124787
      ESP Fit Center  501 is at  -6.975146 -2.797380  2.124787
      ESP Fit Center  502 is at  -6.495146 -3.628764  2.124787
      ESP Fit Center  503 is at  -5.535146 -3.628764  2.124787
      ESP Fit Center  504 is at  -4.352377 -2.797380  1.422018
      ESP Fit Center  505 is at  -4.669938 -1.820029  1.422018
      ESP Fit Center  506 is at  -5.501322 -1.215993  1.422018
      ESP Fit Center  507 is at  -6.528970 -1.215993  1.422018
      ESP Fit Center  508 is at  -7.360354 -1.820029  1.422018
      ESP Fit Center  509 is at  -4.669938 -3.774731  1.422018
      ESP Fit Center  510 is at  -5.055146 -1.134611  0.462018
      ESP Fit Center  511 is at  -6.015146 -0.877380  0.462018
      ESP Fit Center  512 is at  -6.975146 -1.134611  0.462018
      ESP Fit Center  513 is at  -8.360290 -3.274136  1.145263
      ESP Fit Center  514 is at  -7.880290 -4.105520  1.145263
      ESP Fit Center  515 is at  -7.914114 -1.692749  0.442494
      ESP Fit Center  516 is at  -8.745498 -2.296785  0.442494
      ESP Fit Center  517 is at  -9.063059 -3.274136  0.442494
      ESP Fit Center  518 is at  -8.745498 -4.251487  0.442494
      ESP Fit Center  519 is at  -7.914114 -4.855523  0.442494
      ESP Fit Center  520 is at  -8.360290 -1.611367 -0.517506
      ESP Fit Center  521 is at  -9.063059 -2.314136 -0.517506
      ESP Fit Center  522 is at  -9.320290 -3.274136 -0.517506
      ESP Fit Center  523 is at  -9.063059 -4.234136 -0.517506
      ESP Fit Center  524 is at  -8.360290 -4.936905 -0.517506
      ESP Fit Center  525 is at  -8.745498 -2.296785 -1.477506
      ESP Fit Center  526 is at  -9.063059 -3.274136 -1.477506
      ESP Fit Center  527 is at  -8.745498 -4.251487 -1.477506
      ESP Fit Center  528 is at  -7.914114 -4.855523 -1.477506
      ESP Fit Center  529 is at  -8.360290 -3.274136 -2.180275
      ESP Fit Center  530 is at  -7.880290 -4.105520 -2.180275
      ESP Fit Center  531 is at  -6.418451 -5.090091  1.152294
      ESP Fit Center  532 is at  -5.458451 -5.090091  1.152294
      ESP Fit Center  533 is at  -4.275682 -4.258707  0.449525
      ESP Fit Center  534 is at  -7.283659 -5.236058  0.449525
      ESP Fit Center  535 is at  -6.452275 -5.840094  0.449525
      ESP Fit Center  536 is at  -5.424627 -5.840094  0.449525
      ESP Fit Center  537 is at  -4.593243 -5.236058  0.449525
      ESP Fit Center  538 is at  -6.898451 -5.921476 -0.510475
      ESP Fit Center  539 is at  -5.938451 -6.178707 -0.510475
      ESP Fit Center  540 is at  -4.978451 -5.921476 -0.510475
      ESP Fit Center  541 is at  -4.275682 -5.218707 -0.510475
      ESP Fit Center  542 is at  -7.283659 -5.236058 -1.470475
      ESP Fit Center  543 is at  -6.452275 -5.840094 -1.470475
      ESP Fit Center  544 is at  -5.424627 -5.840094 -1.470475
      ESP Fit Center  545 is at  -4.593243 -5.236058 -1.470475
      ESP Fit Center  546 is at  -6.418451 -5.090091 -2.173244
      ESP Fit Center  547 is at  -5.458451 -5.090091 -2.173244
      ESP Fit Center  548 is at  -4.985848 -0.733494 -0.145461
      ESP Fit Center  549 is at  -8.105158 -2.440323 -2.175887
      ESP Fit Center  550 is at  -7.993711 -2.882153 -2.588957
      ESP Fit Center  551 is at  -7.736480 -3.842153 -2.588957
      ESP Fit Center  552 is at  -7.033711 -4.544922 -2.588957
      ESP Fit Center  553 is at  -6.073711 -4.802153 -2.588957
      ESP Fit Center  554 is at  -7.418919 -1.904802 -3.548957
      ESP Fit Center  555 is at  -7.736480 -2.882153 -3.548957
      ESP Fit Center  556 is at  -7.418919 -3.859504 -3.548957
      ESP Fit Center  557 is at  -6.587535 -4.463540 -3.548957
      ESP Fit Center  558 is at  -5.559887 -4.463540 -3.548957
      ESP Fit Center  559 is at  -4.728503 -3.859504 -3.548957
      ESP Fit Center  560 is at  -6.553711 -2.050769 -4.251726
      ESP Fit Center  561 is at  -7.033711 -2.882153 -4.251726
      ESP Fit Center  562 is at  -6.553711 -3.713537 -4.251726
      ESP Fit Center  563 is at  -5.593711 -3.713537 -4.251726
      ESP Fit Center  564 is at  -6.073711 -2.882153 -4.508957
      ESP Fit Center  565 is at  -5.679555 -0.595093  0.048588
      ESP Fit Center  566 is at  -6.639555 -0.595093  0.048588
      ESP Fit Center  567 is at  -5.645731  0.154910 -0.654181
      ESP Fit Center  568 is at  -6.673379  0.154910 -0.654181
      ESP Fit Center  569 is at  -7.504763 -0.449126 -0.654181
      ESP Fit Center  570 is at  -7.119555  0.236292 -1.614181
      ESP Fit Center  571 is at  -7.822324 -0.466477 -1.614181
      ESP Fit Center  572 is at  -8.079555 -1.426477 -1.614181
      ESP Fit Center  573 is at  -6.673379  0.154910 -2.574181
      ESP Fit Center  574 is at  -7.504763 -0.449126 -2.574181
      ESP Fit Center  575 is at  -7.822324 -1.426477 -2.574181
      ESP Fit Center  576 is at  -6.639555 -0.595093 -3.276950
      ESP Fit Center  577 is at  -3.398101 -2.437701  0.468529
      ESP Fit Center  578 is at  -3.884051 -1.596011  0.468529
      ESP Fit Center  579 is at  -3.884051 -3.279391  0.468529
      ESP Fit Center  580 is at  -2.618698 -2.437701 -0.153024
      ESP Fit Center  581 is at  -3.828819 -4.103289 -0.153024
      ESP Fit Center  582 is at  -2.953167 -3.467091 -0.153024
      ESP Fit Center  583 is at  -4.106768 -4.605617 -1.051194
      ESP Fit Center  584 is at  -3.129439 -4.234965 -1.051194
      ESP Fit Center  585 is at  -2.436308 -3.452581 -1.051194
      ESP Fit Center  586 is at  -4.106768 -4.605617 -2.048088
      ESP Fit Center  587 is at  -3.129439 -4.234965 -2.048088
      ESP Fit Center  588 is at  -4.204501 -4.074578 -3.112268
      ESP Fit Center  589 is at  -3.163181 -4.074578 -3.112268
      ESP Fit Center  590 is at  -2.904358 -3.500244 -4.074594
      ESP Fit Center  591 is at  -2.642520 -1.793415 -4.740543
      ESP Fit Center  592 is at  -5.488060 -1.033445 -4.502227
      ESP Fit Center  593 is at  -5.805621 -2.010796 -4.502227
      ESP Fit Center  594 is at  -5.488060 -2.988147 -4.502227
      ESP Fit Center  595 is at  -4.656676 -3.592183 -4.502227
      ESP Fit Center  596 is at  -3.629028 -3.592183 -4.502227
      ESP Fit Center  597 is at  -2.797644 -2.988147 -4.502227
      ESP Fit Center  598 is at  -3.182852 -2.010796 -5.204996
      ESP Fit Center  599 is at  -3.662852 -1.179412 -5.204996
      ESP Fit Center  600 is at  -4.622852 -1.179412 -5.204996
      ESP Fit Center  601 is at  -5.102852 -2.010796 -5.204996
      ESP Fit Center  602 is at  -4.622852 -2.842180 -5.204996
      ESP Fit Center  603 is at  -3.662852 -2.842180 -5.204996
      ESP Fit Center  604 is at  -4.142852 -2.010796 -5.462227
      ESP Fit Center  605 is at  -1.721516 -2.201646 -0.921888
      ESP Fit Center  606 is at  -2.201516 -3.033030 -0.921888
      ESP Fit Center  607 is at  -1.018747 -2.201646 -1.624657
      ESP Fit Center  608 is at  -2.167692 -3.783033 -1.624657
      ESP Fit Center  609 is at  -1.336308 -3.178997 -1.624657
      ESP Fit Center  610 is at  -0.761516 -2.201646 -2.584657
      ESP Fit Center  611 is at  -1.018747 -1.241646 -2.584657
      ESP Fit Center  612 is at  -2.681516 -4.121646 -2.584657
      ESP Fit Center  613 is at  -1.721516 -3.864415 -2.584657
      ESP Fit Center  614 is at  -1.018747 -3.161646 -2.584657
      ESP Fit Center  615 is at  -1.018747 -2.201646 -3.544657
      ESP Fit Center  616 is at  -1.336308 -1.224295 -3.544657
      ESP Fit Center  617 is at  -2.167692 -3.783033 -3.544657
      ESP Fit Center  618 is at  -1.336308 -3.178997 -3.544657
      ESP Fit Center  619 is at  -1.721516 -2.201646 -4.247426
      ESP Fit Center  620 is at  -2.201516 -3.033030 -4.247426
      ESP Fit Center  621 is at  -1.250799 -0.288722 -2.938777
      ESP Fit Center  622 is at  -4.111286  1.992441 -2.938777
      ESP Fit Center  623 is at  -4.631947 -0.288722 -4.567052
      ESP Fit Center  624 is at  -1.204925  0.138847 -3.292845
      ESP Fit Center  625 is at  -1.462156  0.138847 -4.252845
      ESP Fit Center  626 is at  -1.779717  1.116198 -4.252845
      ESP Fit Center  627 is at  -2.611101  1.720234 -4.252845
      ESP Fit Center  628 is at  -3.638749  1.720234 -4.252845
      ESP Fit Center  629 is at  -4.470133  1.116198 -4.252845
      ESP Fit Center  630 is at  -1.779717 -0.838504 -4.252845
      ESP Fit Center  631 is at  -2.164925  0.138847 -4.955614
      ESP Fit Center  632 is at  -2.644925  0.970231 -4.955614
      ESP Fit Center  633 is at  -3.604925  0.970231 -4.955614
      ESP Fit Center  634 is at  -4.084925  0.138847 -4.955614
      ESP Fit Center  635 is at  -3.604925 -0.692537 -4.955614
      ESP Fit Center  636 is at  -2.644925 -0.692537 -4.955614
      ESP Fit Center  637 is at  -3.124925  0.138847 -5.212845
      ESP Fit Center  638 is at  -5.540253  0.155075 -0.648049
      ESP Fit Center  639 is at  -5.925461  1.132426 -1.350818
      ESP Fit Center  640 is at  -5.540253  1.817844 -2.310818
      ESP Fit Center  641 is at  -6.243022  1.115075 -2.310818
      ESP Fit Center  642 is at  -5.094077  1.736462 -3.270818
      ESP Fit Center  643 is at  -5.925461  1.132426 -3.270818
      ESP Fit Center  644 is at  -6.243022  0.155075 -3.270818
      ESP Fit Center  645 is at  -5.060253  0.986459 -3.973587
      ESP Fit Center  646 is at  -5.540253  0.155075 -3.973587
      ESP Fit Center  647 is at  -3.312578 -0.849065  0.745586
      ESP Fit Center  648 is at  -4.577931 -0.007375  0.124033
      ESP Fit Center  649 is at  -2.285446 -1.672963  0.124033
      ESP Fit Center  650 is at  -1.075325 -0.007375 -2.669201
      ESP Fit Center  651 is at  -3.218815  3.630668 -0.443392
      ESP Fit Center  652 is at  -3.218815  3.630668 -1.511492
      ESP Fit Center  653 is at  -3.926933  2.767590 -2.473818
      ESP Fit Center  654 is at  -4.157917  2.613558  0.890899
      ESP Fit Center  655 is at  -4.637917  1.782174  0.890899
      ESP Fit Center  656 is at  -4.157917  0.950790  0.890899
      ESP Fit Center  657 is at  -4.191741  3.363561  0.188130
      ESP Fit Center  658 is at  -5.023125  2.759525  0.188130
      ESP Fit Center  659 is at  -5.340686  1.782174  0.188130
      ESP Fit Center  660 is at  -5.023125  0.804823  0.188130
      ESP Fit Center  661 is at  -3.677917  3.702174 -0.771870
      ESP Fit Center  662 is at  -4.637917  3.444943 -0.771870
      ESP Fit Center  663 is at  -5.340686  2.742174 -0.771870
      ESP Fit Center  664 is at  -5.597917  1.782174 -0.771870
      ESP Fit Center  665 is at  -4.191741  3.363561 -1.731870
      ESP Fit Center  666 is at  -5.023125  2.759525 -1.731870
      ESP Fit Center  667 is at  -4.157917  2.613558 -2.434639
      ESP Fit Center  668 is at  -1.305321  3.550881 -1.818809
      ESP Fit Center  669 is at  -2.265321  3.808112 -1.818809
      ESP Fit Center  670 is at  -3.225321  3.550881 -1.818809
      ESP Fit Center  671 is at  -0.920113  2.865463 -2.778809
      ESP Fit Center  672 is at  -1.751497  3.469499 -2.778809
      ESP Fit Center  673 is at  -2.779145  3.469499 -2.778809
      ESP Fit Center  674 is at  -3.610529  2.865463 -2.778809
      ESP Fit Center  675 is at  -0.920113  0.910761 -2.778809
      ESP Fit Center  676 is at  -1.305321  1.888112 -3.481578
      ESP Fit Center  677 is at  -1.785321  2.719496 -3.481578
      ESP Fit Center  678 is at  -2.745321  2.719496 -3.481578
      ESP Fit Center  679 is at  -2.265321  1.888112 -3.738809
      ESP Fit Center  680 is at  -0.776339  1.530330  2.406058
      ESP Fit Center  681 is at  -1.297000  2.432140  2.406058
      ESP Fit Center  682 is at  -3.618048  2.058972  1.740109
      ESP Fit Center  683 is at  -2.167776  0.875728  2.957845
      ESP Fit Center  684 is at  -1.207776  0.875728  2.700614
      ESP Fit Center  685 is at  -1.687776  1.707112  2.700614
      ESP Fit Center  686 is at  -2.647776  1.707112  2.700614
      ESP Fit Center  687 is at  -3.127776  0.875728  2.700614
      ESP Fit Center  688 is at  -2.647776  0.044344  2.700614
      ESP Fit Center  689 is at  -1.687776  0.044344  2.700614
      ESP Fit Center  690 is at  -3.512984  1.853079  1.997845
      ESP Fit Center  691 is at  -3.830545  0.875728  1.997845
      ESP Fit Center  692 is at  -3.512984 -0.101623  1.997845
      ESP Fit Center  693 is at  -2.681600 -0.705659  1.997845
      ESP Fit Center  694 is at  -4.087776  0.875728  1.037845
      ESP Fit Center  695 is at  -3.830545 -0.084272  1.037845
      ESP Fit Center  696 is at  -3.127776 -0.787041  1.037845
      ESP Fit Center  697 is at  -1.911878  2.555261  2.504162
      ESP Fit Center  698 is at  -0.951878  2.555261  2.246931
      ESP Fit Center  699 is at  -1.431878  3.386645  2.246931
      ESP Fit Center  700 is at  -2.391878  3.386645  2.246931
      ESP Fit Center  701 is at  -2.871878  2.555261  2.246931
      ESP Fit Center  702 is at  -0.566670  3.532612  1.544162
      ESP Fit Center  703 is at  -1.398054  4.136648  1.544162
      ESP Fit Center  704 is at  -2.425702  4.136648  1.544162
      ESP Fit Center  705 is at  -3.257086  3.532612  1.544162
      ESP Fit Center  706 is at  -3.574647  2.555261  1.544162
      ESP Fit Center  707 is at  -0.249109  3.515261  0.584162
      ESP Fit Center  708 is at  -0.951878  4.218030  0.584162
      ESP Fit Center  709 is at  -1.911878  4.475261  0.584162
      ESP Fit Center  710 is at  -2.871878  4.218030  0.584162
      ESP Fit Center  711 is at  -3.574647  3.515261  0.584162
      ESP Fit Center  712 is at  -1.398054  4.136648 -0.375838
      ESP Fit Center  713 is at  -2.425702  4.136648 -0.375838
      ESP Fit Center  714 is at  -0.456304  1.328078  2.240000
      ESP Fit Center  715 is at   0.515596  1.328078  2.018170
      ESP Fit Center  716 is at   0.029646  2.169768  2.018170
      ESP Fit Center  717 is at   0.084878  2.993666  1.396617
      ESP Fit Center  718 is at  -0.193071  3.495994  0.498447
      ESP Fit Center  719 is at  -0.193071  3.495994 -0.498447
      ESP Fit Center  720 is at   0.520660  0.901810  2.162325
      ESP Fit Center  721 is at   0.520660 -2.281163 -0.534050
      ESP Fit Center  722 is at  -1.343390 -2.204201 -0.853439
      ESP Fit Center  723 is at  -0.383390 -2.461432 -0.853439
      ESP Fit Center  724 is at   0.576610 -2.204201 -0.853439
      ESP Fit Center  725 is at  -0.897214 -2.122819 -1.813439
      ESP Fit Center  726 is at   0.130434 -2.122819 -1.813439
      ESP Fit Center  727 is at  -0.863390  0.289952 -2.516208
      ESP Fit Center  728 is at  -0.863390 -1.372816 -2.516208
      ESP Fit Center  729 is at   0.096610 -1.372816 -2.516208
      ESP Fit Center  730 is at  -0.383390 -0.541432 -2.773439
      ESP Fit Center  731 is at  -0.349045 -0.502469  2.821312
      ESP Fit Center  732 is at   0.610955 -0.502469  2.564081
      ESP Fit Center  733 is at   0.130955  0.328915  2.564081
      ESP Fit Center  734 is at  -0.829045  0.328915  2.564081
      ESP Fit Center  735 is at  -1.309045 -0.502469  2.564081
      ESP Fit Center  736 is at  -0.829045 -1.333853  2.564081
      ESP Fit Center  737 is at   0.130955 -1.333853  2.564081
      ESP Fit Center  738 is at  -1.694253 -1.479820  1.861312
      ESP Fit Center  739 is at  -0.862869 -2.083856  1.861312
      ESP Fit Center  740 is at   0.164779 -2.083856  1.861312
      ESP Fit Center  741 is at   0.996163 -1.479820  1.861312
      ESP Fit Center  742 is at  -2.011814 -1.462469  0.901312
      ESP Fit Center  743 is at  -1.309045 -2.165238  0.901312
      ESP Fit Center  744 is at  -0.349045 -2.422469  0.901312
      ESP Fit Center  745 is at   2.038808 -0.901810  2.162325
      ESP Fit Center  746 is at   2.823143 -1.016275  1.818704
      ESP Fit Center  747 is at   1.383143 -1.847659  1.818704
      ESP Fit Center  748 is at   2.343143 -1.847659  1.818704
      ESP Fit Center  749 is at   3.525912 -1.016275  1.115935
      ESP Fit Center  750 is at   1.349319 -2.597662  1.115935
      ESP Fit Center  751 is at   2.376967 -2.597662  1.115935
      ESP Fit Center  752 is at   3.208351 -1.993626  1.115935
      ESP Fit Center  753 is at   0.903143 -2.679044  0.155935
      ESP Fit Center  754 is at   1.863143 -2.936275  0.155935
      ESP Fit Center  755 is at   2.823143 -2.679044  0.155935
      ESP Fit Center  756 is at   3.525912 -1.976275  0.155935
      ESP Fit Center  757 is at   1.349319 -2.597662 -0.804065
      ESP Fit Center  758 is at   2.376967 -2.597662 -0.804065
      ESP Fit Center  759 is at   1.893225  0.592708  2.744382
      ESP Fit Center  760 is at   2.853225  0.592708  2.487151
      ESP Fit Center  761 is at   2.373225  1.424092  2.487151
      ESP Fit Center  762 is at   1.413225  1.424092  2.487151
      ESP Fit Center  763 is at   0.933225  0.592708  2.487151
      ESP Fit Center  764 is at   1.413225 -0.238676  2.487151
      ESP Fit Center  765 is at   2.373225 -0.238676  2.487151
      ESP Fit Center  766 is at   3.555994  0.592708  1.784382
      ESP Fit Center  767 is at   3.238433 -0.384643  1.784382
      ESP Fit Center  768 is at   4.044917 -0.493335  0.432256
      ESP Fit Center  769 is at   4.061223 -1.425800 -0.476129
      ESP Fit Center  770 is at   4.693491 -0.555558 -0.476129
      ESP Fit Center  771 is at   5.130274  0.496614 -1.547643
      ESP Fit Center  772 is at   1.564018 -2.196498 -1.547643
      ESP Fit Center  773 is at   2.588625 -2.291442 -1.547643
      ESP Fit Center  774 is at   3.578341 -2.009843 -1.547643
      ESP Fit Center  775 is at   4.399499 -1.389734 -1.547643
      ESP Fit Center  776 is at   4.941196 -0.514863 -1.547643
      ESP Fit Center  777 is at   4.917137  0.496614 -2.619157
      ESP Fit Center  778 is at   4.693491  1.548786 -2.619157
      ESP Fit Center  779 is at  -0.200060  1.034453 -2.619157
      ESP Fit Center  780 is at   0.237458 -1.023906 -2.619157
      ESP Fit Center  781 is at   1.036843 -1.743675 -2.619157
      ESP Fit Center  782 is at   2.059873 -2.076078 -2.619157
      ESP Fit Center  783 is at   3.129659 -1.963639 -2.619157
      ESP Fit Center  784 is at   4.061223 -1.425800 -2.619157
      ESP Fit Center  785 is at   4.693491 -0.555558 -2.619157
      ESP Fit Center  786 is at   4.310173  0.496614 -3.527542
      ESP Fit Center  787 is at   4.044917  1.486563 -3.527542
      ESP Fit Center  788 is at   0.615631  1.486563 -3.527542
      ESP Fit Center  789 is at   0.350375  0.496614 -3.527542
      ESP Fit Center  790 is at   0.615631 -0.493335 -3.527542
      ESP Fit Center  791 is at   1.340325 -1.218029 -3.527542
      ESP Fit Center  792 is at   2.330274 -1.483285 -3.527542
      ESP Fit Center  793 is at   3.320223 -1.218029 -3.527542
      ESP Fit Center  794 is at   4.044917 -0.493335 -3.527542
      ESP Fit Center  795 is at   3.401788  0.496614 -4.134506
      ESP Fit Center  796 is at   2.866031  1.424572 -4.134506
      ESP Fit Center  797 is at   1.794517  1.424572 -4.134506
      ESP Fit Center  798 is at   1.258760  0.496614 -4.134506
      ESP Fit Center  799 is at   1.794517 -0.431344 -4.134506
      ESP Fit Center  800 is at   2.866031 -0.431344 -4.134506
      ESP Fit Center  801 is at   2.330274  0.496614 -4.347643
      ESP Fit Center  802 is at   0.979932  2.284683 -3.846829
      ESP Fit Center  803 is at   4.218399  2.572260 -3.541944
      ESP Fit Center  804 is at   3.900838  3.549611 -3.541944
      ESP Fit Center  805 is at   3.069454  4.153647 -3.541944
      ESP Fit Center  806 is at   2.041806  4.153647 -3.541944
      ESP Fit Center  807 is at   3.515630  2.572260 -4.244713
      ESP Fit Center  808 is at   3.035630  3.403644 -4.244713
      ESP Fit Center  809 is at   2.075630  3.403644 -4.244713
      ESP Fit Center  810 is at   1.595630  2.572260 -4.244713
      ESP Fit Center  811 is at   2.075630  1.740876 -4.244713
      ESP Fit Center  812 is at   3.035630  1.740876 -4.244713
      ESP Fit Center  813 is at   2.555630  2.572260 -4.501944
      ESP Fit Center  814 is at  -0.377800  3.427999 -0.890514
      ESP Fit Center  815 is at   0.007408  4.113417 -1.850514
      ESP Fit Center  816 is at  -0.695361  3.410648 -1.850514
      ESP Fit Center  817 is at   0.453584  4.032035 -2.810514
      ESP Fit Center  818 is at  -0.377800  3.427999 -2.810514
      ESP Fit Center  819 is at  -0.695361  2.450648 -2.810514
      ESP Fit Center  820 is at  -0.377800  1.473297 -2.810514
      ESP Fit Center  821 is at   0.487408  3.282032 -3.513283
      ESP Fit Center  822 is at   0.007408  2.450648 -3.513283
      ESP Fit Center  823 is at   0.487408  1.619264 -3.513283
      ESP Fit Center  824 is at   0.355639  4.173774  0.020125
      ESP Fit Center  825 is at   0.925545  2.915826  2.028771
      ESP Fit Center  826 is at   1.405545  2.084442  2.028771
      ESP Fit Center  827 is at   2.365545  2.084442  2.028771
      ESP Fit Center  828 is at   0.540337  3.893177  1.326002
      ESP Fit Center  829 is at   0.222776  3.875826  0.366002
      ESP Fit Center  830 is at   1.768757  5.021303  0.889612
      ESP Fit Center  831 is at   1.734933  5.771306  0.186843
      ESP Fit Center  832 is at   0.903549  5.167270  0.186843
      ESP Fit Center  833 is at   2.248757  6.109919 -0.773157
      ESP Fit Center  834 is at   1.288757  5.852688 -0.773157
      ESP Fit Center  835 is at   0.585988  5.149919 -0.773157
      ESP Fit Center  836 is at   2.762581  5.771306 -1.733157
      ESP Fit Center  837 is at   1.734933  5.771306 -1.733157
      ESP Fit Center  838 is at   0.903549  5.167270 -1.733157
      ESP Fit Center  839 is at   2.728757  5.021303 -2.435926
      ESP Fit Center  840 is at   1.768757  5.021303 -2.435926
      ESP Fit Center  841 is at   6.227649  3.023207  1.811095
      ESP Fit Center  842 is at   4.247750  1.043308  1.811095
      ESP Fit Center  843 is at   5.237699  1.308564  1.811095
      ESP Fit Center  844 is at   5.962393  2.033258  1.811095
      ESP Fit Center  845 is at   6.834613  3.023207  0.902710
      ESP Fit Center  846 is at   3.977349  0.450515  0.902710
      ESP Fit Center  847 is at   5.047135  0.562954  0.902710
      ESP Fit Center  848 is at   5.978699  1.100793  0.902710
      ESP Fit Center  849 is at   6.610967  1.971035  0.902710
      ESP Fit Center  850 is at   7.047750  3.023207 -0.168804
      ESP Fit Center  851 is at   5.495817  0.516750 -0.168804
      ESP Fit Center  852 is at   6.316975  1.136859 -0.168804
      ESP Fit Center  853 is at   6.858672  2.011730 -0.168804
      ESP Fit Center  854 is at   6.834613  3.023207 -1.240318
      ESP Fit Center  855 is at   6.610967  4.075379 -1.240318
      ESP Fit Center  856 is at   5.978699  4.945621 -1.240318
      ESP Fit Center  857 is at   5.978699  1.100793 -1.240318
      ESP Fit Center  858 is at   6.610967  1.971035 -1.240318
      ESP Fit Center  859 is at   6.227649  3.023207 -2.148703
      ESP Fit Center  860 is at   5.962393  4.013156 -2.148703
      ESP Fit Center  861 is at   5.237699  4.737850 -2.148703
      ESP Fit Center  862 is at   4.247750  5.003106 -2.148703
      ESP Fit Center  863 is at   5.237699  1.308564 -2.148703
      ESP Fit Center  864 is at   5.962393  2.033258 -2.148703
      ESP Fit Center  865 is at   5.319264  3.023207 -2.755667
      ESP Fit Center  866 is at   4.783507  3.951165 -2.755667
      ESP Fit Center  867 is at   4.783507  2.095249 -2.755667
      ESP Fit Center  868 is at   5.045384  7.036328  0.309359
      ESP Fit Center  869 is at   4.085384  7.293559  0.309359
      ESP Fit Center  870 is at   3.125384  7.036328  0.309359
      ESP Fit Center  871 is at   2.422615  6.333559  0.309359
      ESP Fit Center  872 is at   5.430592  6.350910 -0.650641
      ESP Fit Center  873 is at   4.599208  6.954946 -0.650641
      ESP Fit Center  874 is at   3.571560  6.954946 -0.650641
      ESP Fit Center  875 is at   2.740176  6.350910 -0.650641
      ESP Fit Center  876 is at   4.565384  6.204943 -1.353410
      ESP Fit Center  877 is at   3.605384  6.204943 -1.353410
      ESP Fit Center  878 is at   7.249695  4.665034  1.804858
      ESP Fit Center  879 is at   6.932134  5.642385  1.804858
      ESP Fit Center  880 is at   6.932134  3.687683  1.804858
      ESP Fit Center  881 is at   7.506926  4.665034  0.844858
      ESP Fit Center  882 is at   7.249695  5.625034  0.844858
      ESP Fit Center  883 is at   6.546926  6.327803  0.844858
      ESP Fit Center  884 is at   7.249695  3.705034  0.844858
      ESP Fit Center  885 is at   7.249695  4.665034 -0.115142
      ESP Fit Center  886 is at   6.932134  5.642385 -0.115142
      ESP Fit Center  887 is at   6.100750  6.246421 -0.115142
      ESP Fit Center  888 is at   6.546926  4.665034 -0.817911
      ESP Fit Center  889 is at   6.066926  5.496418 -0.817911
      ESP Fit Center  890 is at   2.748368  3.005533  3.746097
      ESP Fit Center  891 is at   2.396533  2.663565  3.200570
      ESP Fit Center  892 is at   1.247588  5.204952  2.240570
      ESP Fit Center  893 is at   0.990357  4.244952  2.240570
      ESP Fit Center  894 is at   1.247588  3.284952  2.240570
      ESP Fit Center  895 is at   1.565149  5.222303  1.280570
      ESP Fit Center  896 is at   3.974849  2.768413  4.427626
      ESP Fit Center  897 is at   4.934849  2.768413  4.427626
      ESP Fit Center  898 is at   6.117618  3.599797  3.724857
      ESP Fit Center  899 is at   3.109641  2.622446  3.724857
      ESP Fit Center  900 is at   3.941025  2.018410  3.724857
      ESP Fit Center  901 is at   4.968673  2.018410  3.724857
      ESP Fit Center  902 is at   5.800057  2.622446  3.724857
      ESP Fit Center  903 is at   6.374849  3.599797  2.764857
      ESP Fit Center  904 is at   3.494849  1.937028  2.764857
      ESP Fit Center  905 is at   4.454849  1.679797  2.764857
      ESP Fit Center  906 is at   5.414849  1.937028  2.764857
      ESP Fit Center  907 is at   6.117618  2.639797  2.764857
      ESP Fit Center  908 is at   6.312025  5.974494  5.117494
      ESP Fit Center  909 is at   6.046769  6.964443  5.117494
      ESP Fit Center  910 is at   6.918989  5.974494  4.209109
      ESP Fit Center  911 is at   6.695343  7.026666  4.209109
      ESP Fit Center  912 is at   6.063075  7.896908  4.209109
      ESP Fit Center  913 is at   5.131511  8.434747  4.209109
      ESP Fit Center  914 is at   4.061725  8.547186  4.209109
      ESP Fit Center  915 is at   3.038695  8.214783  4.209109
      ESP Fit Center  916 is at   6.063075  4.052080  4.209109
      ESP Fit Center  917 is at   6.695343  4.922322  4.209109
      ESP Fit Center  918 is at   7.132126  5.974494  3.137595
      ESP Fit Center  919 is at   6.943048  6.985971  3.137595
      ESP Fit Center  920 is at   6.401351  7.860842  3.137595
      ESP Fit Center  921 is at   5.580193  8.480951  3.137595
      ESP Fit Center  922 is at   4.590477  8.762550  3.137595
      ESP Fit Center  923 is at   3.565870  8.667606  3.137595
      ESP Fit Center  924 is at   2.644749  8.208942  3.137595
      ESP Fit Center  925 is at   1.951518  7.448504  3.137595
      ESP Fit Center  926 is at   6.401351  4.088146  3.137595
      ESP Fit Center  927 is at   6.943048  4.963017  3.137595
      ESP Fit Center  928 is at   6.918989  5.974494  2.066081
      ESP Fit Center  929 is at   6.695343  7.026666  2.066081
      ESP Fit Center  930 is at   6.063075  7.896908  2.066081
      ESP Fit Center  931 is at   5.131511  8.434747  2.066081
      ESP Fit Center  932 is at   4.061725  8.547186  2.066081
      ESP Fit Center  933 is at   3.038695  8.214783  2.066081
      ESP Fit Center  934 is at   2.239310  7.495014  2.066081
      ESP Fit Center  935 is at   1.801792  6.512333  2.066081
      ESP Fit Center  936 is at   6.046769  6.964443  1.157696
      ESP Fit Center  937 is at   5.322075  7.689137  1.157696
      ESP Fit Center  938 is at   4.332126  7.954393  1.157696
      ESP Fit Center  939 is at   3.342177  7.689137  1.157696
      ESP Fit Center  940 is at   2.617483  6.964443  1.157696
      ESP Fit Center  941 is at   2.352227  5.974494  1.157696
      ESP Fit Center  942 is at   3.826135  5.548361  7.231599
      ESP Fit Center  943 is at   6.165962  5.548361  5.365649
      ESP Fit Center  944 is at   4.335325  4.638123  7.047270
      ESP Fit Center  945 is at   5.295325  4.638123  6.790039
      ESP Fit Center  946 is at   3.855325  3.806739  6.790039
      ESP Fit Center  947 is at   4.815325  3.806739  6.790039
      ESP Fit Center  948 is at   5.998094  4.638123  6.087270
      ESP Fit Center  949 is at   3.821501  3.056736  6.087270
      ESP Fit Center  950 is at   4.849149  3.056736  6.087270
      ESP Fit Center  951 is at   5.680533  3.660772  6.087270
      ESP Fit Center  952 is at   6.255325  4.638123  5.127270
      ESP Fit Center  953 is at   3.375325  2.975354  5.127270
      ESP Fit Center  954 is at   4.335325  2.718123  5.127270
      ESP Fit Center  955 is at   5.295325  2.975354  5.127270
      ESP Fit Center  956 is at   5.998094  3.678123  5.127270
      ESP Fit Center  957 is at   4.224078  6.347140  7.366141
      ESP Fit Center  958 is at   5.184078  6.347140  7.108910
      ESP Fit Center  959 is at   4.704078  7.178524  7.108910
      ESP Fit Center  960 is at   3.744078  7.178524  7.108910
      ESP Fit Center  961 is at   4.704078  5.515756  7.108910
      ESP Fit Center  962 is at   5.886847  6.347140  6.406141
      ESP Fit Center  963 is at   5.569286  7.324491  6.406141
      ESP Fit Center  964 is at   4.737902  7.928527  6.406141
      ESP Fit Center  965 is at   3.710254  7.928527  6.406141
      ESP Fit Center  966 is at   2.878870  7.324491  6.406141
      ESP Fit Center  967 is at   6.144078  6.347140  5.446141
      ESP Fit Center  968 is at   5.886847  7.307140  5.446141
      ESP Fit Center  969 is at   5.184078  8.009909  5.446141
      ESP Fit Center  970 is at   4.224078  8.267140  5.446141
      ESP Fit Center  971 is at   3.264078  8.009909  5.446141
      ESP Fit Center  972 is at   2.053621  7.280713  6.543089
      ESP Fit Center  973 is at   1.091882  6.841501  6.543089
      ESP Fit Center  974 is at  -0.019167  5.423416  5.580763
      ESP Fit Center  975 is at   0.212549  4.408203  5.580763
      ESP Fit Center  976 is at   2.841320  3.142253  5.580763
      ESP Fit Center  977 is at  -0.019167  5.423416  4.512663
      ESP Fit Center  978 is at   0.551820  3.637378  5.421535
      ESP Fit Center  979 is at   1.383204  3.033342  5.421535
      ESP Fit Center  980 is at   2.410852  3.033342  5.421535
      ESP Fit Center  981 is at  -0.022972  4.614729  4.461535
      ESP Fit Center  982 is at   0.234259  3.654729  4.461535
      ESP Fit Center  983 is at   0.937028  2.951960  4.461535
      ESP Fit Center  984 is at   1.897028  2.694729  4.461535
      ESP Fit Center  985 is at   2.857028  2.951960  4.461535
      ESP Fit Center  986 is at   0.234259  4.614729  3.501535
      ESP Fit Center  987 is at   0.551820  3.637378  3.501535
      ESP Fit Center  988 is at   1.383204  3.033342  3.501535
      ESP Fit Center  989 is at   1.417028  5.446113  2.798766
      ESP Fit Center  990 is at   0.937028  4.614729  2.798766
      ESP Fit Center  991 is at   2.111031  5.217022  8.012579
      ESP Fit Center  992 is at   3.071031  5.217022  7.755348
      ESP Fit Center  993 is at   2.591031  6.048406  7.755348
      ESP Fit Center  994 is at   1.631031  6.048406  7.755348
      ESP Fit Center  995 is at   1.151031  5.217022  7.755348
      ESP Fit Center  996 is at   1.631031  4.385638  7.755348
      ESP Fit Center  997 is at   2.591031  4.385638  7.755348
      ESP Fit Center  998 is at   2.624855  6.798409  7.052579
      ESP Fit Center  999 is at   1.597207  6.798409  7.052579
      ESP Fit Center 1000 is at   0.765823  6.194373  7.052579
      ESP Fit Center 1001 is at   0.448262  5.217022  7.052579
      ESP Fit Center 1002 is at   0.765823  4.239671  7.052579
      ESP Fit Center 1003 is at   1.597207  3.635635  7.052579
      ESP Fit Center 1004 is at   2.624855  3.635635  7.052579
      ESP Fit Center 1005 is at   3.456239  4.239671  7.052579
      ESP Fit Center 1006 is at   0.448262  4.257022  6.092579
      ESP Fit Center 1007 is at   1.151031  3.554253  6.092579
      ESP Fit Center 1008 is at   1.332712  7.171860  6.434233
      ESP Fit Center 1009 is at   2.326536  7.921863  5.731464
      ESP Fit Center 1010 is at   1.298888  7.921863  5.731464
      ESP Fit Center 1011 is at   0.467504  7.317827  5.731464
      ESP Fit Center 1012 is at   0.149943  6.340476  5.731464
      ESP Fit Center 1013 is at   2.772712  8.003245  4.771464
      ESP Fit Center 1014 is at   1.812712  8.260476  4.771464
      ESP Fit Center 1015 is at   0.852712  8.003245  4.771464
      ESP Fit Center 1016 is at   0.149943  7.300476  4.771464
      ESP Fit Center 1017 is at  -0.107288  6.340476  4.771464
      ESP Fit Center 1018 is at   2.326536  7.921863  3.811464
      ESP Fit Center 1019 is at   1.298888  7.921863  3.811464
      ESP Fit Center 1020 is at   0.467504  7.317827  3.811464
      ESP Fit Center 1021 is at   0.149943  6.340476  3.811464
      ESP Fit Center 1022 is at   1.332712  7.171860  3.108695
      ESP Fit Center 1023 is at   0.852712  6.340476  3.108695
      ESP Fit Center 1024 is at  -6.832359 -4.137801  2.015134
      ESP Fit Center 1025 is at  -8.147589 -2.705103  1.429847
      ESP Fit Center 1026 is at  -7.565988 -4.685852  1.429847
      ESP Fit Center 1027 is at  -6.587442 -5.132740  1.429847
      ESP Fit Center 1028 is at  -4.709625 -4.275169  1.429847
      ESP Fit Center 1029 is at  -6.870809 -0.811051  0.553904
      ESP Fit Center 1030 is at  -7.871016 -1.292725  0.553904
      ESP Fit Center 1031 is at  -7.871016 -5.193243  0.553904
      ESP Fit Center 1032 is at  -7.871016 -5.193243 -1.512586
      ESP Fit Center 1033 is at  -7.565988 -4.685852 -2.388529
      ESP Fit Center 1034 is at  -6.587442 -5.132740 -2.388529
      ESP Fit Center 1035 is at  -6.015146 -2.797380  2.622018
      ESP Fit Center 1036 is at  -4.935146 -2.797380  2.332633
      ESP Fit Center 1037 is at  -5.475146 -1.862073  2.332633
      ESP Fit Center 1038 is at  -6.555146 -1.862073  2.332633
      ESP Fit Center 1039 is at  -7.095146 -2.797380  2.332633
      ESP Fit Center 1040 is at  -6.555146 -3.732687  2.332633
      ESP Fit Center 1041 is at  -5.475146 -3.732687  2.332633
      ESP Fit Center 1042 is at  -4.144531 -2.797380  1.542018
      ESP Fit Center 1043 is at  -4.441485 -1.786049  1.542018
      ESP Fit Center 1044 is at  -5.238064 -1.095809  1.542018
      ESP Fit Center 1045 is at  -6.281362 -0.945805  1.542018
      ESP Fit Center 1046 is at  -7.240138 -1.383664  1.542018
      ESP Fit Center 1047 is at  -4.441485 -3.808711  1.542018
      ESP Fit Center 1048 is at  -5.754787 -0.653129  0.462018
[...]
 1319 Fit      -0.019804
 1320 Fit      -0.014740
 1321 Fit       0.008671
 1322 Fit       0.005259
 1323 Fit      -0.000991
 1324 Fit      -0.011481
 1325 Fit      -0.007353
 1326 Fit      -0.000366
 1327 Fit       0.004252
 1328 Fit      -0.003391
 1329 Fit       0.000542
 1330 Fit       0.002731
 1331 Fit       0.000298
 1332 Fit      -0.005810
 1333 Fit      -0.000413
 1334 Fit       0.003810
 1335 Fit       0.009619
 1336 Fit       0.009214
 1337 Fit       0.007695
 1338 Fit       0.008505
 1339 Fit       0.004921
 1340 Fit       0.003405
 1341 Fit       0.005322
 1342 Fit       0.007145
 1343 Fit       0.008771
 1344 Fit       0.001581
 1345 Fit       0.007805
 1346 Fit       0.007975
 1347 Fit       0.008842
 1348 Fit       0.009131
 1349 Fit       0.008309
 1350 Fit       0.006369
 1351 Fit       0.008506
 1352 Fit       0.009482
 1353 Fit       0.010008
 1354 Fit       0.004514
 1355 Fit       0.008227
 1356 Fit      -0.014597
 1357 Fit      -0.015458
 1358 Fit      -0.009284
 1359 Fit      -0.004544
 1360 Fit      -0.021555
 1361 Fit      -0.024088
 1362 Fit      -0.020178
 1363 Fit      -0.012989
 1364 Fit      -0.008582
 1365 Fit      -0.031838
 1366 Fit      -0.028437
 1367 Fit      -0.022926
 1368 Fit      -0.016136
 1369 Fit      -0.015028
 1370 Fit      -0.009429
 1371 Fit      -0.032749
 1372 Fit      -0.026246
 1373 Fit      -0.020651
 1374 Fit      -0.021592
 1375 Fit      -0.017905
 1376 Fit      -0.014265
 1377 Fit      -0.009438
 1378 Fit      -0.029761
 1379 Fit      -0.025350
 1380 Fit      -0.025211
 1381 Fit      -0.022077
 1382 Fit      -0.017062
 1383 Fit      -0.009283
 1384 Fit      -0.030324
 1385 Fit      -0.027431
 1386 Fit      -0.022899
 1387 Fit      -0.017520
 1388 Fit      -0.021103
 1389 Fit      -0.006714
 1390 Fit      -0.006156
 1391 Fit      -0.005912
 1392 Fit      -0.003680
 1393 Fit       0.001546
 1394 Fit      -0.003154
 1395 Fit      -0.001128
 1396 Fit       0.001795
 1397 Fit       0.006081
 1398 Fit      -0.001066
 1399 Fit       0.004610
 1400 Fit      -0.005198
 1401 Fit      -0.002465
 1402 Fit      -0.002412
 1403 Fit      -0.004128
 1404 Fit      -0.007446
 1405 Fit      -0.003175
 1406 Fit      -0.003916
 1407 Fit      -0.003317
 1408 Fit      -0.003890
 1409 Fit       0.001875
 1410 Fit       0.009439
 1411 Fit       0.011152
 1412 Fit       0.005466
 1413 Fit      -0.000838
 1414 Fit       0.007562
 1415 Fit       0.004419
 1416 Fit       0.003281
 1417 Fit       0.002842
 1418 Fit      -0.002403
 1419 Fit      -0.003425
 1420 Fit      -0.007121
 1421 Fit      -0.005214
 1422 Fit      -0.002055
 1423 Fit      -0.013679
 1424 Fit      -0.012643
 1425 Fit      -0.008737
 1426 Fit      -0.004869
 1427 Fit      -0.002872
 1428 Fit      -0.001998
 1429 Fit      -0.009704
 1430 Fit      -0.019157
 1431 Fit      -0.019219
 1432 Fit      -0.016496
 1433 Fit      -0.013319
 1434 Fit      -0.011495
 1435 Fit      -0.011212
 1436 Fit      -0.010765
 1437 Fit      -0.006490
 1438 Fit      -0.014849
 1439 Fit      -0.018231
 1440 Fit      -0.019978
 1441 Fit      -0.018822
 1442 Fit      -0.017013
 1443 Fit      -0.016244
 1444 Fit      -0.016661
 1445 Fit      -0.016799
 1446 Fit      -0.014586
 1447 Fit      -0.009286
 1448 Fit      -0.001606
 1449 Fit      -0.004163
 1450 Fit      -0.012437
 1451 Fit      -0.015641
 1452 Fit      -0.016477
 1453 Fit      -0.016382
 1454 Fit      -0.016805
 1455 Fit      -0.017113
 1456 Fit      -0.015315
 1457 Fit      -0.009722
 1458 Fit      -0.000056
 1459 Fit      -0.009467
 1460 Fit      -0.011396
 1461 Fit      -0.011774
 1462 Fit      -0.010328
 1463 Fit      -0.004647
 1464 Fit       0.009160
 1465 Fit       0.008073
 1466 Fit      -0.001121
 1467 Fit       0.005723
 1468 Fit       0.009231
 1469 Fit       0.007637
 1470 Fit       0.002630
 1471 Fit       0.009211
 1472 Fit       0.008007
 1473 Fit       0.005610
 1474 Fit      -0.003337
 1475 Fit       0.010354
 1476 Fit       0.009455
 1477 Fit       0.007298
 1478 Fit       0.003017
 1479 Fit       0.008298
 1480 Fit       0.006276
 1481 Fit       0.007457
 1482 Fit       0.008369
 1483 Fit       0.002772
 1484 Fit       0.004215
 1485 Fit       0.005843
 1486 Fit       0.006740
 1487 Fit       0.007203
 1488 Fit      -0.002133
 1489 Fit       0.001078
 1490 Fit       0.002821
 1491 Fit       0.003664
 1492 Fit       0.005248
 1493 Fit       0.003845
 1494 Fit       0.004233
 1495 Fit       0.005063
 1496 Fit       0.005750
 1497 Fit       0.006508
 1498 Fit       0.008498
 1499 Fit       0.004299
 1500 Fit       0.005611
 1501 Fit       0.004659
 1502 Fit       0.006469
 1503 Fit       0.007126
 1504 Fit       0.007019
 1505 Fit       0.008370
 1506 Fit       0.009040
 1507 Fit       0.009459
 1508 Fit       0.011640
 1509 Fit       0.005771
 1510 Fit       0.008863
 1511 Fit       0.010457
 1512 Fit       0.011841
 1513 Fit       0.008275
 1514 Fit       0.008807
 1515 Fit       0.007994
 1516 Fit       0.006963
 1517 Fit       0.007376
 1518 Fit       0.008016
 1519 Fit       0.008570
 1520 Fit       0.005358
 1521 Fit       0.004855
 1522 Fit       0.005467
 1523 Fit       0.006239
 1524 Fit       0.006775
 1525 Fit       0.007310
 1526 Fit       0.008407
 1527 Fit       0.009685
 1528 Fit       0.004989
 1529 Fit       0.003918
 1530 Fit       0.004234
 1531 Fit       0.004088
 1532 Fit       0.000559
 1533 Fit       0.002773
 1534 Fit       0.004124
 1535 Fit       0.004392
 1536 Fit      -0.003506
 1537 Fit       0.001316
 1538 Fit       0.003205
 1539 Fit       0.003885
 1540 Fit      -0.006516
 1541 Fit      -0.000081
 1542 Fit      -0.000063
 1543 Fit       0.002782
 1544 Fit       0.001874
 1545 Fit       0.000467
 1546 Fit      -0.000947
 1547 Fit      -0.003044
 1548 Fit      -0.006253
 1549 Fit       0.005203
 1550 Fit       0.004897
 1551 Fit       0.000677
 1552 Fit      -0.013463
 1553 Fit       0.007856
 1554 Fit       0.001913
 1555 Fit       0.002806
 1556 Fit       0.003555
 1557 Fit       0.001097
 1558 Fit      -0.001620
 1559 Fit       0.001029
 1560 Fit       0.002773
 1561 Fit       0.002003
 1562 Fit       0.000339
 1563 Fit      -0.001373
 1564 Fit      -0.008103
 1565 Fit      -0.005405
 1566 Fit       0.000015
 1567 Fit       0.003395
 1568 Fit       0.003837
 1569 Fit       0.002935
 1570 Fit      -0.006834
 1571 Fit      -0.011505
 1572 Fit       0.000173
 1573 Fit       0.004804
 1574 Fit       0.002841
 1575 Fit       0.005097
 1576 Fit       0.005169
 1577 Fit       0.004399
 1578 Fit       0.002739
 1579 Fit       0.007513
 1580 Fit       0.007209
 1581 Fit       0.006604
 1582 Fit       0.005406
 1583 Fit       0.003613
 1584 Fit       0.009910
 1585 Fit       0.008788
 1586 Fit       0.007803
 1587 Fit       0.006426
 1588 Fit       0.004569
 1589 Fit       0.009605
 1590 Fit       0.007917
 1591 Fit       0.006004
 1592 Fit      -0.003176
 1593 Fit      -0.000264
 1594 Fit      -0.002249
 1595 Fit      -0.006670
 1596 Fit       0.001324
 1597 Fit       0.000968
 1598 Fit      -0.000435
 1599 Fit      -0.003869
 1600 Fit      -0.010897
 1601 Fit       0.002129
 1602 Fit       0.001586
 1603 Fit      -0.000043
 1604 Fit      -0.004013
 1605 Fit      -0.013013
 1606 Fit       0.001758
 1607 Fit      -0.001187
 1608 Fit      -0.008647
 1609 Fit       0.011468
 1610 Fit       0.011414
 1611 Fit       0.013696
 1612 Fit       0.010498
 1613 Fit       0.008755
 1614 Fit       0.006735
 1615 Fit       0.004684
 1616 Fit       0.001755
 1617 Fit       0.012476
 1618 Fit       0.010732
 1619 Fit       0.009365
 1620 Fit       0.007834
 1621 Fit       0.006130
 1622 Fit       0.004557
 1623 Fit       0.012595
 1624 Fit       0.010325
 1625 Fit       0.008805
 1626 Fit       0.008677
 1627 Fit       0.011332
 1628 Fit       0.009422
 1629 Fit       0.009227
 1630 Fit       0.013533
 1631 Fit       0.011638
 1632 Fit       0.010667
 1633 Fit       0.013144
 1634 Fit       0.011771
 1635 Fit       0.013888
 1636 Fit       0.012311
 1637 Fit       0.015541
 1638 Fit      -0.022733
 1639 Fit      -0.020895
 1640 Fit      -0.024628
 1641 Fit      -0.020961
 1642 Fit      -0.022604
 1643 Fit      -0.017804
 1644 Fit      -0.019938
 1645 Fit      -0.018498
 1646 Fit      -0.015739
 1647 Fit      -0.009689
 1648 Fit      -0.005805
 1649 Fit       0.001780
 1650 Fit       0.000923
 1651 Fit       0.006662
 1652 Fit       0.005398
 1653 Fit       0.003877
 1654 Fit       0.015861
 1655 Fit       0.014007
 1656 Fit       0.012321
 1657 Fit       0.009670
 1658 Fit       0.006746
 1659 Fit       0.005412
 1660 Fit       0.009646
 1661 Fit       0.012741
 1662 Fit       0.013442
 1663 Fit       0.011982
 1664 Fit       0.009701
 1665 Fit       0.008276
 1666 Fit       0.010867
 1667 Fit      -0.013777
 1668 Fit      -0.007199
 1669 Fit      -0.009118
 1670 Fit      -0.004525
 1671 Fit      -0.002604
 1672 Fit      -0.003190
 1673 Fit      -0.002934
 1674 Fit      -0.001129
 1675 Fit      -0.001049
 1676 Fit       0.000775
 1677 Fit       0.002458
 1678 Fit       0.001518
 1679 Fit       0.001503
 1680 Fit       0.005486
 1681 Fit       0.014407
 1682 Fit       0.014551
 1683 Fit       0.016012
 1684 Fit       0.016111
 1685 Fit      -0.002757
 1686 Fit       0.002696
 1687 Fit       0.014028
 1688 Fit       0.004132
 1689 Fit       0.006823
 1690 Fit       0.010297
 1691 Fit       0.012187
 1692 Fit       0.013539
 1693 Fit       0.006272
 1694 Fit       0.008606
 1695 Fit       0.010187
 1696 Fit       0.012293
 1697 Fit       0.014271
 1698 Fit       0.011045
 1699 Fit       0.011669
 1700 Fit       0.015223
 1701 Fit       0.014832
 1702 Fit       0.015166
 1703 Fit       0.014704
 1704 Fit       0.015051
 1705 Fit       0.014581
 1706 Fit       0.015400
 1707 Fit       0.016880
 1708 Fit      -0.002585
 1709 Fit       0.016304
 1710 Fit       0.013922
 1711 Fit       0.014511
 1712 Fit       0.013819
 1713 Fit       0.014231
 1714 Fit       0.011902
 1715 Fit       0.014154
 1716 Fit       0.012376
 1717 Fit       0.009472
 1718 Fit       0.015288
 1719 Fit       0.014037
 1720 Fit       0.013385
 1721 Fit       0.012611
 1722 Fit       0.010220
 1723 Fit       0.014432
 1724 Fit       0.013955
 1725 Fit       0.014183
 1726 Fit       0.014274
 1727 Fit       0.011440
 1728 Fit       0.012856
 1729 Fit       0.010123
 1730 Fit       0.011632
 1731 Fit       0.013021
 1732 Fit      -0.003907
 1733 Fit       0.006553
 1734 Fit       0.009693
 1735 Fit       0.012143
 1736 Fit       0.005340
 1737 Fit       0.007011
 1738 Fit       0.009083
 1739 Fit       0.003016
 1740 Fit       0.010922
 1741 Fit       0.012572
 1742 Fit       0.009304
 1743 Fit       0.007413
 1744 Fit       0.006622
 1745 Fit       0.008816
 1746 Fit       0.007713
 1747 Fit       0.005971
 1748 Fit       0.006714
 1749 Fit       0.009448
 1750 Fit       0.005819
 1751 Fit       0.002208
 1752 Fit       0.002149
 1753 Fit       0.007730
 1754 Fit      -0.000336
 1755 Fit      -0.008104
 1756 Fit      -0.008503
 1757 Fit       0.008603
 1758 Fit       0.010371
 1759 Fit       0.005853
 1760 Fit       0.008998
 1761 Fit       0.010961
 1762 Fit       0.012268
 1763 Fit       0.012952
 1764 Fit       0.007121
 1765 Fit       0.009998
 1766 Fit       0.012105
 1767 Fit       0.013789
 1768 Fit       0.015356
 1769 Fit       0.006467
 1770 Fit       0.010374
 1771 Fit       0.012997
 1772 Fit       0.015449
 1773 Fit       0.009776
 1774 Fit       0.013851
 1775 Fit       0.002218
 1776 Fit       0.005007
 1777 Fit      -0.003563
 1778 Fit       0.003263
 1779 Fit       0.001012
 1780 Fit      -0.001770
 1781 Fit       0.006121
 1782 Fit       0.006315
 1783 Fit       0.005880
 1784 Fit       0.006740
 1785 Fit       0.006207
 1786 Fit       0.004721
 1787 Fit       0.005678
 1788 Fit       0.000786
 1789 Fit       0.002806
 1790 Fit       0.005342
 1791 Fit      -0.009372
 1792 Fit      -0.006694
 1793 Fit      -0.001097
 1794 Fit       0.003881
 1795 Fit       0.003775
 1796 Fit       0.006230
 1797 Fit      -0.000868
 1798 Fit      -0.007407
 1799 Fit       0.005952
 1800 Fit       0.003071
 1801 Fit       0.004620
 1802 Fit       0.002508
 1803 Fit      -0.001084
 1804 Fit       0.003740
 1805 Fit       0.002340
 1806 Fit      -0.000597
 1807 Fit      -0.005903
 1808 Fit       0.001785
 1809 Fit       0.000188
 1810 Fit      -0.003409
 1811 Fit       0.005197
 1812 Fit       0.001290
 1813 Fit       0.005255
 1814 Fit       0.006588
 1815 Fit       0.005939
 1816 Fit       0.005668
 1817 Fit       0.002794
 1818 Fit      -0.008455
 1819 Fit      -0.003710
 1820 Fit      -0.012147
 1821 Fit      -0.022601
 1822 Fit      -0.010676
 1823 Fit      -0.018925
 1824 Fit      -0.026808
 1825 Fit      -0.003722
 1826 Fit      -0.006404
 1827 Fit      -0.010839
 1828 Fit      -0.016377
 1829 Fit      -0.022050
 1830 Fit      -0.027177
 1831 Fit      -0.026755
 1832 Fit      -0.009416
 1833 Fit      -0.011154
 1834 Fit      -0.013693
 1835 Fit      -0.017314
 1836 Fit      -0.021267
 1837 Fit      -0.024545
 1838 Fit      -0.020857
 1839 Fit      -0.018273
 1840 Fit      -0.006482
 1841 Fit      -0.009794
 1842 Fit      -0.012243
 1843 Fit      -0.014329
 1844 Fit      -0.015818
 1845 Fit      -0.017606
 1846 Fit      -0.019695
 1847 Fit      -0.021115
 1848 Fit      -0.016014
 1849 Fit      -0.010827
 1850 Fit      -0.005033
 1851 Fit      -0.009599
 1852 Fit      -0.013512
 1853 Fit      -0.016082
 1854 Fit      -0.017414
 1855 Fit      -0.018146
 1856 Fit      -0.018072
 1857 Fit      -0.013157
 1858 Fit      -0.007391
 1859 Fit      -0.006769
 1860 Fit      -0.011428
 1861 Fit      -0.015341
 1862 Fit      -0.016024
 1863 Fit      -0.012069
 1864 Fit       0.006037
 1865 Fit       0.006718
 1866 Fit       0.004275
 1867 Fit      -0.001155
 1868 Fit       0.001171
 1869 Fit      -0.009608
 1870 Fit      -0.006017
 1871 Fit      -0.000826
 1872 Fit       0.002865
 1873 Fit       0.003938
 1874 Fit      -0.003966
 1875 Fit      -0.000522
 1876 Fit       0.001558
 1877 Fit      -0.000325
 1878 Fit      -0.001438
 1879 Fit       0.008192
 1880 Fit       0.008950
 1881 Fit       0.007320
 1882 Fit       0.004030
 1883 Fit       0.002628
 1884 Fit       0.007041
 1885 Fit       0.006811
 1886 Fit       0.008363
 1887 Fit       0.004230
 1888 Fit       0.006704
 1889 Fit       0.006388
 1890 Fit       0.007280
 1891 Fit       0.007760
 1892 Fit       0.007277
 1893 Fit       0.008109
 1894 Fit       0.008756
 1895 Fit       0.003960
 1896 Fit       0.006671
 1897 Fit       0.008082
 1898 Fit       0.003436
 1899 Fit       0.006758
 1900 Fit      -0.008406
 1901 Fit      -0.009410
 1902 Fit      -0.004401
 1903 Fit      -0.014410
 1904 Fit      -0.017183
 1905 Fit      -0.014853
 1906 Fit      -0.009919
 1907 Fit      -0.006865
 1908 Fit      -0.022865
 1909 Fit      -0.021431
 1910 Fit      -0.017549
 1911 Fit      -0.012485
 1912 Fit      -0.010753
 1913 Fit      -0.028520
 1914 Fit      -0.024040
 1915 Fit      -0.019769
 1916 Fit      -0.015347
 1917 Fit      -0.015438
 1918 Fit      -0.011835
 1919 Fit      -0.008834
 1920 Fit      -0.028559
 1921 Fit      -0.023247
 1922 Fit      -0.019218
 1923 Fit      -0.019340
 1924 Fit      -0.016428
 1925 Fit      -0.013300
 1926 Fit      -0.009164
 1927 Fit      -0.003270
 1928 Fit      -0.025975
 1929 Fit      -0.022286
 1930 Fit      -0.020747
 1931 Fit      -0.017934
 1932 Fit      -0.013699
 1933 Fit      -0.007509
 1934 Fit      -0.022857
 1935 Fit      -0.017980
 1936 Fit      -0.013293
 1937 Fit      -0.017103
 1938 Fit      -0.004433
 1939 Fit      -0.004742
 1940 Fit      -0.003939
 1941 Fit      -0.001935
 1942 Fit       0.001704
 1943 Fit      -0.001582
 1944 Fit       0.001306
 1945 Fit       0.005327
 1946 Fit      -0.002310
 1947 Fit       0.002872
 1948 Fit      -0.003794
 1949 Fit      -0.004377
 1950 Fit      -0.007061
 1951 Fit      -0.003996
 1952 Fit      -0.003982
 1953 Fit      -0.004288
 1954 Fit      -0.005776
 1955 Fit      -0.005735
 1956 Fit      -0.006465
 1957 Fit      -0.004899
 1958 Fit      -0.004472
 1959 Fit       0.007831
 1960 Fit       0.010213
 1961 Fit       0.009276
 1962 Fit       0.006637
 1963 Fit       0.008083
 1964 Fit       0.005245
 1965 Fit       0.003896
 1966 Fit       0.003104
 1967 Fit       0.004292
 1968 Fit      -0.000465
 1969 Fit      -0.002613
 1970 Fit      -0.002119
 1971 Fit      -0.001412
 1972 Fit      -0.008388
 1973 Fit      -0.007728
 1974 Fit      -0.004924
 1975 Fit      -0.001941
 1976 Fit      -0.000084
 1977 Fit       0.001064
 1978 Fit      -0.005430
 1979 Fit      -0.013577
 1980 Fit      -0.013661
 1981 Fit      -0.011795
 1982 Fit      -0.009350
 1983 Fit      -0.007490
 1984 Fit      -0.006541
 1985 Fit      -0.005681
 1986 Fit      -0.005000
 1987 Fit      -0.010682
 1988 Fit      -0.015185
 1989 Fit      -0.016092
 1990 Fit      -0.015238
 1991 Fit      -0.013627
 1992 Fit      -0.012237
 1993 Fit      -0.011550
 1994 Fit      -0.011325
 1995 Fit      -0.010664
 1996 Fit      -0.008416
 1997 Fit      -0.007095
 1998 Fit      -0.012046
 1999 Fit      -0.012553
 2000 Fit      -0.014894
 2001 Fit      -0.015013
 2002 Fit      -0.014267
 2003 Fit      -0.013727
 2004 Fit      -0.013656
 2005 Fit      -0.013416
 2006 Fit      -0.011883
 2007 Fit      -0.008264
 2008 Fit      -0.002629
 2009 Fit      -0.011195
 2010 Fit      -0.012477
 2011 Fit      -0.012598
 2012 Fit      -0.012568
 2013 Fit      -0.012007
 2014 Fit      -0.009693
 2015 Fit      -0.004612
 2016 Fit       0.003182
 2017 Fit      -0.008290
 2018 Fit      -0.007912
 2019 Fit      -0.005693
 2020 Fit       0.008051
 2021 Fit       0.006295
 2022 Fit       0.007190
 2023 Fit       0.004129
 2024 Fit       0.000478
 2025 Fit       0.005338
 2026 Fit       0.008250
 2027 Fit       0.006642
 2028 Fit       0.002870
 2029 Fit       0.007842
 2030 Fit       0.006636
 2031 Fit       0.004789
 2032 Fit      -0.001126
 2033 Fit       0.008334
 2034 Fit       0.007227
 2035 Fit       0.005376
 2036 Fit       0.002480
 2037 Fit       0.005444
 2038 Fit       0.007256
 2039 Fit       0.005559
 2040 Fit       0.006278
 2041 Fit       0.007219
 2042 Fit       0.003013
 2043 Fit       0.003839
 2044 Fit       0.005023
 2045 Fit       0.005879
 2046 Fit       0.006492
 2047 Fit      -0.001704
 2048 Fit      -0.000416
 2049 Fit       0.001505
 2050 Fit       0.002925
 2051 Fit       0.003819
 2052 Fit       0.005254
 2053 Fit       0.004342
 2054 Fit       0.003849
 2055 Fit       0.004205
 2056 Fit       0.006592
 2057 Fit       0.008078
 2058 Fit       0.004081
 2059 Fit       0.004704
 2060 Fit       0.005567
 2061 Fit       0.007716
 2062 Fit       0.004318
 2063 Fit       0.005403
 2064 Fit       0.004013
 2065 Fit       0.002366
 2066 Fit       0.006489
 2067 Fit       0.007138
 2068 Fit       0.007482
 2069 Fit       0.008107
 2070 Fit       0.006480
 2071 Fit       0.007862
 2072 Fit       0.008431
 2073 Fit       0.008933
 2074 Fit       0.009053
 2075 Fit       0.006032
 2076 Fit       0.008600
 2077 Fit       0.009693
 2078 Fit       0.007199
 2079 Fit       0.007662
 2080 Fit       0.007084
 2081 Fit       0.006347
 2082 Fit       0.006597
 2083 Fit       0.007080
 2084 Fit       0.007503
 2085 Fit       0.007231
 2086 Fit       0.005397
 2087 Fit       0.005003
 2088 Fit       0.005413
 2089 Fit       0.005982
 2090 Fit       0.006414
 2091 Fit       0.006830
 2092 Fit       0.007536
 2093 Fit       0.008241
 2094 Fit       0.004756
 2095 Fit       0.005356
 2096 Fit       0.005791
 2097 Fit       0.006262
 2098 Fit       0.003703
 2099 Fit       0.003776
 2100 Fit       0.001694
 2101 Fit       0.002491
 2102 Fit       0.003484
 2103 Fit       0.003990
 2104 Fit       0.004088
 2105 Fit      -0.000201
 2106 Fit       0.002241
 2107 Fit       0.003542
 2108 Fit       0.004145
 2109 Fit      -0.006255
 2110 Fit      -0.000431
 2111 Fit       0.002284
 2112 Fit      -0.000505
 Job cpu time:       0 days  0 hours  5 minutes  8.7 seconds.
 Normal termination of Gaussian 16 at Sat Jul  8 20:44:03 2023.
