 Copyright (c) 1988-2019, Gaussian, Inc.  All Rights Reserved.
  
 This is part of the Gaussian(R) 16 program.  It is based on
 the Gaussian(R) 09 system (copyright 2009, Gaussian, Inc.),
 the Gaussian(R) 03 system (copyright 2003, Gaussian, Inc.),
 the Gaussian(R) 98 system (copyright 1998, Gaussian, Inc.),
 the Gaussian(R) 94 system (copyright 1995, Gaussian, Inc.),
 the Gaussian 92(TM) system (copyright 1992, Gaussian, Inc.),
 the Gaussian 90(TM) system (copyright 1990, Gaussian, Inc.),
 the Gaussian 88(TM) system (copyright 1988, Gaussian, Inc.),
 the Gaussian 86(TM) system (copyright 1986, Carnegie Mellon
 University), and the Gaussian 82(TM) system (copyright 1983,
 Carnegie Mellon University). Gaussian is a federally registered
 trademark of Gaussian, Inc.
 Cite this work as:
 Gaussian 16, Revision C.01,
 M. J. Frisch, G. W. Trucks, H. B. Schlegel, G. E. Scuseria, 
 M. A. Robb, J. R. Cheeseman, G. Scalmani, V. Barone, 
 G. A. Petersson, H. Nakatsuji, X. Li, M. Caricato, A. V. Marenich, 
 J. Bloino, B. G. Janesko, R. Gomperts, B. Mennucci, H. P. Hratchian, 
 J. V. Ortiz, A. F. Izmaylov, J. L. Sonnenberg, D. Williams-Young, 
 F. Ding, F. Lipparini, F. Egidi, J. Goings, B. Peng, A. Petrone, 
 T. Henderson, D. Ranasinghe, V. G. Zakrzewski, J. Gao, N. Rega, 
 G. Zheng, W. Liang, M. Hada, M. Ehara, K. Toyota, R. Fukuda, 
 J. Hasegawa, M. Ishida, T. Nakajima, Y. Honda, O. Kitao, H. Nakai, 
 T. Vreven, K. Throssell, J. A. Montgomery, Jr., J. E. Peralta, 
 F. Ogliaro, M. J. Bearpark, J. J. Heyd, E. N. Brothers, K. N. Kudin, 
 V. N. Staroverov, T. A. Keith, R. Kobayashi, J. Normand, 
 K. Raghavachari, A. P. Rendell, J. C. Burant, S. S. Iyengar, 
 J. Tomasi, M. Cossi, J. M. Millam, M. Klene, C. Adamo, R. Cammi, 
 J. W. Ochterski, R. L. Martin, K. Morokuma, O. Farkas, 
 J. B. Foresman, and D. J. Fox, Gaussian, Inc., Wallingford CT, 2019.
 
 ******************************************
 Gaussian 16:  EM64L-G16RevC.01  3-Jul-2019
                 8-Jul-2023 
 ******************************************
 ----------------------------------------------------------------------
 #P HF/6-31G(d) SCF(Conver=8,XQC,MaxConventionalCycles=64,MaxCycle=128)
  NoSymm Test Pop=mk IOp(6/33=2) GFInput GFPrint
 ----------------------------------------------------------------------
 1/38=1,172=1/1;
 2/12=2,15=1,17=6,18=5,40=1/2;
 3/5=1,6=6,7=1,11=9,24=110,25=1,30=1/1,2,3;
 4//1;
 5/5=2,6=8,7=128,8=3,13=1,38=5,85=64/2,8;
 6/7=2,8=2,9=2,10=2,15=8,20=1,28=1,33=2/1,2;
 99/5=1,9=1/99;
 -------------------------------------------------
 MEP step - Input generated by PyRED DVE-DMDS-OPLS
 -------------------------------------------------
 Symbolic Z-matrix:
 Charge =  0 Multiplicity = 1
 C                    -0.174     2.38395   8.13663 
 H                     0.26985   2.63967   9.09412 
 H                     0.12652   3.14222   7.42145 
 H                    -1.25319   2.42051   8.23902 
 C                     0.26856   0.98982   7.71277 
 H                     1.34955   0.95579   7.58822 
 H                     0.00583   0.27386   8.48107 
 O                    -0.36085   0.53918   6.54476 
 C                     0.10267   1.07254   5.34232 
 H                     1.18416   0.97883   5.26575 
 H                    -0.1433    2.12792   5.25507 
 C                    -0.55305   0.28124   4.2223 
 H                    -0.25549  -0.75605   4.3007 
 H                    -1.63334   0.32607   4.32343 
 O                    -0.143     0.74416   2.96469 
 C                    -0.93958   1.74067   2.38452 
 H                    -0.9792    2.61927   3.02592 
 H                    -1.95616   1.38062   2.24564 
 C                    -0.35411   2.14935   1.04576 
 H                     0.7086    2.33218   1.15915 
 H                    -0.81671   3.07955   0.74034 
 O                    -0.61315   1.25672   0. 
 C                     0.        0.        0. 
 H                    -0.36632  -0.48758  -0.89413 
 H                    -0.32541  -0.58954   0.84943 
 C                     1.52747   0.        0. 
 H                     1.85679  -1.02546  -0.12888 
 H                     1.90697   0.33095   0.95796 
 S                     2.37106   1.05412  -1.21876 
 C                     1.6935    0.47473  -2.80868 
 H                     2.51428   0.51359  -3.51277 
 H                     1.40683  -0.56485  -2.71582 
 C                     0.52076   1.31937  -3.30549 
 H                     0.82687   2.3498   -3.42924 
 H                    -0.28035   1.32037  -2.58077 
 S                    -0.21838   0.70146  -4.85132 
 C                     0.97667   1.23095  -6.1194 
 H                     0.74595   0.62337  -6.98501 
 H                     1.98291   0.97632  -5.81502 
 C                     0.88222   2.71518  -6.46702 
 H                    -0.12394   2.97025  -6.77044 
 H                     1.11363   3.32256  -5.60145 
 S                     2.07411   3.24853  -7.73481 
 C                     1.35765   2.59272  -9.27477 
 H                     2.15342   2.69384  -10.00321 
 H                     1.17021   1.53148  -9.16533 
 C                     0.10762   3.31893  -9.76278 
 H                     0.30643   4.37392  -9.91048 
 H                    -0.22107   2.89651  -10.70823 
 H                    -0.71299   3.22677  -9.0601 
 
 ITRead=  0  0  0  0  0  0  0  0  0  0  0  0  0  0  0  0  0  0  0  0
 ITRead=  0  0  0  0  0  0  0  0  0  0  0  0  0  0  0  0  0  0  0  0
 ITRead=  0  0  0  0  0  0  0  0  0  0
 MicOpt= -1 -1 -1 -1 -1 -1 -1 -1 -1 -1 -1 -1 -1 -1 -1 -1 -1 -1 -1 -1
 MicOpt= -1 -1 -1 -1 -1 -1 -1 -1 -1 -1 -1 -1 -1 -1 -1 -1 -1 -1 -1 -1
 MicOpt= -1 -1 -1 -1 -1 -1 -1 -1 -1 -1
 NAtoms=     50 NQM=       50 NQMF=       0 NMMI=      0 NMMIF=      0
                NMic=       0 NMicF=      0.
                          Input orientation:                          
 ---------------------------------------------------------------------
 Center     Atomic      Atomic             Coordinates (Angstroms)
 Number     Number       Type             X           Y           Z
 ---------------------------------------------------------------------
      1          6           0       -0.173999    2.383946    8.136634
      2          1           0        0.269853    2.639674    9.094115
      3          1           0        0.126520    3.142219    7.421451
      4          1           0       -1.253191    2.420512    8.239015
      5          6           0        0.268561    0.989823    7.712767
      6          1           0        1.349546    0.955786    7.588222
      7          1           0        0.005830    0.273862    8.481065
      8          8           0       -0.360845    0.539182    6.544756
      9          6           0        0.102665    1.072544    5.342319
     10          1           0        1.184162    0.978828    5.265748
     11          1           0       -0.143301    2.127923    5.255069
     12          6           0       -0.553049    0.281239    4.222301
     13          1           0       -0.255492   -0.756046    4.300696
     14          1           0       -1.633343    0.326073    4.323426
     15          8           0       -0.142999    0.744164    2.964687
     16          6           0       -0.939578    1.740669    2.384517
     17          1           0       -0.979201    2.619271    3.025918
     18          1           0       -1.956163    1.380621    2.245636
     19          6           0       -0.354105    2.149354    1.045762
     20          1           0        0.708595    2.332177    1.159147
     21          1           0       -0.816711    3.079546    0.740335
     22          8           0       -0.613145    1.256721    0.000000
     23          6           0        0.000000    0.000000    0.000000
     24          1           0       -0.366320   -0.487580   -0.894133
     25          1           0       -0.325407   -0.589539    0.849425
     26          6           0        1.527467    0.000000    0.000000
     27          1           0        1.856785   -1.025464   -0.128877
     28          1           0        1.906966    0.330946    0.957962
     29         16           0        2.371056    1.054122   -1.218759
     30          6           0        1.693503    0.474727   -2.808676
     31          1           0        2.514279    0.513593   -3.512771
     32          1           0        1.406832   -0.564851   -2.715817
     33          6           0        0.520759    1.319367   -3.305485
     34          1           0        0.826871    2.349803   -3.429239
     35          1           0       -0.280346    1.320374   -2.580769
     36         16           0       -0.218379    0.701460   -4.851319
     37          6           0        0.976670    1.230951   -6.119400
     38          1           0        0.745953    0.623374   -6.985005
     39          1           0        1.982912    0.976322   -5.815020
     40          6           0        0.882224    2.715181   -6.467019
     41          1           0       -0.123942    2.970247   -6.770443
     42          1           0        1.113631    3.322563   -5.601447
     43         16           0        2.074106    3.248532   -7.734812
     44          6           0        1.357650    2.592718   -9.274767
     45          1           0        2.153421    2.693838  -10.003207
     46          1           0        1.170211    1.531484   -9.165333
     47          6           0        0.107624    3.318927   -9.762780
     48          1           0        0.306434    4.373923   -9.910483
     49          1           0       -0.221068    2.896511  -10.708230
     50          1           0       -0.712985    3.226766   -9.060096
 ---------------------------------------------------------------------
 Stoichiometry    C14H30O3S3
 Framework group  C1[X(C14H30O3S3)]
 Standard basis: 6-31G(d) (6D, 7F)
   372 basis functions,   752 primitive gaussians,   372 cartesian basis functions
    93 alpha electrons       93 beta electrons
 Requested convergence on RMS density matrix=1.00D-08 within  64 cycles.
 Requested convergence on MAX density matrix=1.00D-06.
 Requested convergence on             energy=1.00D-06.
 SCF Done:  E(RHF) =  -1964.69035215     A.U. after   13 cycles
            NFock= 13  Conv=0.59D-08     -V/T= 2.0006
 Mulliken charges:
     1  C   -0.505940
     2  H    0.162148
     3  H    0.162553
     4  H    0.175176
     5  C    0.015438
     6  H    0.142118
     7  H    0.173877
     8  O   -0.634295
     9  C    0.010027
    10  H    0.149980
    11  H    0.141514
    12  C    0.000497
    13  H    0.182300
    14  H    0.160025
    15  O   -0.647052
    16  C   -0.012700
    17  H    0.142998
    18  H    0.161496
    19  C    0.002191
    20  H    0.167943
    21  H    0.176521
    22  O   -0.630932
    23  C    0.019762
    24  H    0.167687
    25  H    0.181660
    26  C   -0.519347
    27  H    0.193307
    28  H    0.215759
    29  S    0.117372
    30  C   -0.479987
    31  H    0.202162
    32  H    0.203498
    33  C   -0.483691
    34  H    0.201126
    35  H    0.242432
    36  S    0.106376
    37  C   -0.474569
    38  H    0.200572
    39  H    0.207440
    40  C   -0.475128
    41  H    0.209767
    42  H    0.203476
    43  S    0.111602
    44  C   -0.475644
    45  H    0.200260
    46  H    0.189057
    47  C   -0.475417
    48  H    0.180743
    49  H    0.167230
    50  H    0.166611
 Sum of Mulliken charges =  -0.00000
 Dipole moment (field-independent basis, Debye):
    X=             -0.7697    Y=             -0.1045    Z=              2.1975  Tot=              2.3307
 Quadrupole moment (field-independent basis, Debye-Ang):
   XX=           -159.6498   YY=           -150.3497   ZZ=           -121.8280
   XY=             -7.2488   XZ=              7.1191   YZ=             12.7862
 Traceless Quadrupole moment (field-independent basis, Debye-Ang):
   XX=            -15.7073   YY=             -6.4072   ZZ=             22.1145
   XY=             -7.2488   XZ=              7.1191   YZ=             12.7862
 Octapole moment (field-independent basis, Debye-Ang**2):
  XXX=           -293.2201  YYY=           -672.3224  ZZZ=            480.7810  XYY=           -111.5353
  XXY=           -241.1669  XXZ=            237.0043  XZZ=            -70.8123  YZZ=           -174.9639
  YYZ=            250.2712  XYZ=             33.6715
 Hexadecapole moment (field-independent basis, Debye-Ang**3):
 XXXX=          -1605.0410 YYYY=          -3271.0812 ZZZZ=         -23686.0040 XXXY=           -522.6974
 XXXZ=           1563.5371 YYYX=           -561.5964 YYYZ=           2279.5640 ZZZX=           1822.8639
 ZZZY=           2190.4366 XXYY=           -838.6979 XXZZ=          -5083.3190 YYZZ=          -5322.2520
 XXYZ=            810.4288 YYXZ=            632.1893 ZZXY=           -352.0456
 Merz-Kollman atomic radii used.
 Atom Element Radius
    1     6    1.50
    2     1    1.20
    3     1    1.20
    4     1    1.20
    5     6    1.50
    6     1    1.20
    7     1    1.20
    8     8    1.40
    9     6    1.50
   10     1    1.20
   11     1    1.20
   12     6    1.50
   13     1    1.20
   14     1    1.20
   15     8    1.40
   16     6    1.50
   17     1    1.20
   18     1    1.20
   19     6    1.50
   20     1    1.20
   21     1    1.20
   22     8    1.40
   23     6    1.50
   24     1    1.20
   25     1    1.20
   26     6    1.50
   27     1    1.20
   28     1    1.20
   29    16    1.75
   30     6    1.50
   31     1    1.20
   32     1    1.20
   33     6    1.50
   34     1    1.20
   35     1    1.20
   36    16    1.75
   37     6    1.50
   38     1    1.20
   39     1    1.20
   40     6    1.50
   41     1    1.20
   42     1    1.20
   43    16    1.75
   44     6    1.50
   45     1    1.20
   46     1    1.20
   47     6    1.50
   48     1    1.20
   49     1    1.20
   50     1    1.20
 Generate VDW surfaces: Layer= 4 Dens= 1 Start= 1.400 Inc= 0.200
            Electrostatic Properties Using The SCF Density.


       Atomic Center    1 is at  -0.173999  2.383946  8.136634
       Atomic Center    2 is at   0.269853  2.639674  9.094115
       Atomic Center    3 is at   0.126520  3.142219  7.421451
       Atomic Center    4 is at  -1.253191  2.420512  8.239015
       Atomic Center    5 is at   0.268561  0.989823  7.712767
       Atomic Center    6 is at   1.349546  0.955786  7.588222
       Atomic Center    7 is at   0.005830  0.273862  8.481065
       Atomic Center    8 is at  -0.360845  0.539182  6.544756
       Atomic Center    9 is at   0.102665  1.072544  5.342319
       Atomic Center   10 is at   1.184162  0.978828  5.265748
       Atomic Center   11 is at  -0.143301  2.127923  5.255069
       Atomic Center   12 is at  -0.553049  0.281239  4.222301
       Atomic Center   13 is at  -0.255492 -0.756046  4.300696
       Atomic Center   14 is at  -1.633343  0.326073  4.323426
       Atomic Center   15 is at  -0.142999  0.744164  2.964687
       Atomic Center   16 is at  -0.939578  1.740669  2.384517
       Atomic Center   17 is at  -0.979201  2.619271  3.025918
       Atomic Center   18 is at  -1.956163  1.380621  2.245636
       Atomic Center   19 is at  -0.354105  2.149354  1.045762
       Atomic Center   20 is at   0.708595  2.332177  1.159147
       Atomic Center   21 is at  -0.816711  3.079546  0.740335
       Atomic Center   22 is at  -0.613145  1.256721  0.000000
       Atomic Center   23 is at   0.000000  0.000000  0.000000
       Atomic Center   24 is at  -0.366320 -0.487580 -0.894133
       Atomic Center   25 is at  -0.325407 -0.589539  0.849425
       Atomic Center   26 is at   1.527467  0.000000  0.000000
       Atomic Center   27 is at   1.856785 -1.025464 -0.128877
       Atomic Center   28 is at   1.906966  0.330946  0.957962
       Atomic Center   29 is at   2.371056  1.054122 -1.218759
       Atomic Center   30 is at   1.693503  0.474727 -2.808676
       Atomic Center   31 is at   2.514279  0.513593 -3.512771
       Atomic Center   32 is at   1.406832 -0.564851 -2.715817
       Atomic Center   33 is at   0.520759  1.319367 -3.305485
       Atomic Center   34 is at   0.826871  2.349803 -3.429239
       Atomic Center   35 is at  -0.280346  1.320374 -2.580769
       Atomic Center   36 is at  -0.218379  0.701460 -4.851319
       Atomic Center   37 is at   0.976670  1.230951 -6.119400
       Atomic Center   38 is at   0.745953  0.623374 -6.985005
       Atomic Center   39 is at   1.982912  0.976322 -5.815020
       Atomic Center   40 is at   0.882224  2.715181 -6.467019
       Atomic Center   41 is at  -0.123942  2.970247 -6.770443
       Atomic Center   42 is at   1.113631  3.322563 -5.601447
       Atomic Center   43 is at   2.074106  3.248532 -7.734812
       Atomic Center   44 is at   1.357650  2.592718 -9.274767
       Atomic Center   45 is at   2.153421  2.693838-10.003207
       Atomic Center   46 is at   1.170211  1.531484 -9.165333
       Atomic Center   47 is at   0.107624  3.318927 -9.762780
       Atomic Center   48 is at   0.306434  4.373923 -9.910483
       Atomic Center   49 is at  -0.221068  2.896511-10.708230
       Atomic Center   50 is at  -0.712985  3.226766 -9.060096
      ESP Fit Center   51 is at  -1.223999  2.383946  9.955287
      ESP Fit Center   52 is at  -0.698999  1.474619  9.955287
      ESP Fit Center   53 is at  -0.432820  4.184088  9.186634
      ESP Fit Center   54 is at  -1.364964  1.009500  9.186634
      ESP Fit Center   55 is at   1.685459  3.359865  8.136634
      ESP Fit Center   56 is at  -0.918669  4.347480  8.136634
      ESP Fit Center   57 is at   0.269853  2.639674 10.774115
      ESP Fit Center   58 is at   1.257332  2.639674 10.453264
      ESP Fit Center   59 is at   0.575001  3.578823 10.453264
      ESP Fit Center   60 is at  -0.529034  3.220100 10.453264
      ESP Fit Center   61 is at  -0.529034  2.059248 10.453264
      ESP Fit Center   62 is at   0.575001  1.700525 10.453264
      ESP Fit Center   63 is at   1.867628  2.639674  9.613264
      ESP Fit Center   64 is at   1.493820  3.666704  9.613264
      ESP Fit Center   65 is at   0.547304  4.213175  9.613264
      ESP Fit Center   66 is at  -0.529034  4.023388  9.613264
      ESP Fit Center   67 is at   1.493820  1.612644  9.613264
      ESP Fit Center   68 is at   1.867628  2.639674  8.574966
      ESP Fit Center   69 is at   1.493820  3.666704  8.574966
      ESP Fit Center   70 is at   1.350487  4.169249  7.940600
      ESP Fit Center   71 is at   0.403971  4.715720  7.940600
      ESP Fit Center   72 is at  -0.672367  4.525933  7.940600
      ESP Fit Center   73 is at   1.724295  3.142219  6.902302
      ESP Fit Center   74 is at   1.350487  4.169249  6.902302
      ESP Fit Center   75 is at   0.403971  4.715720  6.902302
      ESP Fit Center   76 is at  -0.672367  4.525933  6.902302
      ESP Fit Center   77 is at  -1.374897  3.688690  6.902302
      ESP Fit Center   78 is at   1.113999  3.142219  6.062302
      ESP Fit Center   79 is at   0.431668  4.081368  6.062302
      ESP Fit Center   80 is at  -0.672367  3.722645  6.062302
      ESP Fit Center   81 is at  -2.052078  3.000938  9.598164
      ESP Fit Center   82 is at  -2.052078  1.840086  9.598164
      ESP Fit Center   83 is at  -2.052078  3.804226  8.758164
      ESP Fit Center   84 is at  -2.754608  2.966983  8.758164
      ESP Fit Center   85 is at  -2.754608  1.874041  8.758164
      ESP Fit Center   86 is at  -2.052078  1.036798  8.758164
      ESP Fit Center   87 is at  -2.052078  3.804226  7.719866
      ESP Fit Center   88 is at  -2.754608  2.966983  7.719866
      ESP Fit Center   89 is at  -2.754608  1.874041  7.719866
      ESP Fit Center   90 is at  -2.052078  1.036798  7.719866
      ESP Fit Center   91 is at  -2.052078  3.000938  6.879866
      ESP Fit Center   92 is at  -2.052078  1.840086  6.879866
      ESP Fit Center   93 is at   1.318561  0.989823  9.531420
      ESP Fit Center   94 is at   1.461497 -0.738443  7.712767
      ESP Fit Center   95 is at   2.337025  0.955786  8.947371
      ESP Fit Center   96 is at   2.947321  0.955786  8.107371
      ESP Fit Center   97 is at   2.573513  1.982816  8.107371
      ESP Fit Center   98 is at   1.626997 -0.617715  8.107371
      ESP Fit Center   99 is at   2.573513 -0.071244  8.107371
      ESP Fit Center  100 is at   2.947321  0.955786  7.069073
      ESP Fit Center  101 is at   2.573513  1.982816  7.069073
      ESP Fit Center  102 is at   1.626997 -0.617715  7.069073
      ESP Fit Center  103 is at   2.573513 -0.071244  7.069073
      ESP Fit Center  104 is at   0.005830  0.273862 10.161065
      ESP Fit Center  105 is at   0.993309  0.273862  9.840214
      ESP Fit Center  106 is at  -0.793057  0.854288  9.840214
      ESP Fit Center  107 is at  -0.793057 -0.306564  9.840214
      ESP Fit Center  108 is at   0.310978 -0.665287  9.840214
      ESP Fit Center  109 is at  -1.495587  0.820333  9.000214
      ESP Fit Center  110 is at  -1.495587 -0.272609  9.000214
      ESP Fit Center  111 is at  -0.793057 -1.109852  9.000214
      ESP Fit Center  112 is at   0.283281 -1.299639  9.000214
      ESP Fit Center  113 is at   1.229797 -0.753168  9.000214
      ESP Fit Center  114 is at  -1.495587 -0.272609  7.961916
      ESP Fit Center  115 is at  -0.793057 -1.109852  7.961916
      ESP Fit Center  116 is at   0.283281 -1.299639  7.961916
      ESP Fit Center  117 is at  -2.058255  0.539182  7.524756
      ESP Fit Center  118 is at  -1.734078 -0.458530  7.524756
      ESP Fit Center  119 is at  -0.885373 -1.075151  7.524756
      ESP Fit Center  120 is at  -2.058255  1.519182  6.544756
      ESP Fit Center  121 is at  -2.320845  0.539182  6.544756
      ESP Fit Center  122 is at  -2.058255 -0.440818  6.544756
      ESP Fit Center  123 is at  -1.340845 -1.158228  6.544756
      ESP Fit Center  124 is at  -0.360845 -1.420818  6.544756
      ESP Fit Center  125 is at   0.619155 -1.158228  6.544756
      ESP Fit Center  126 is at   1.336565 -0.440818  6.544756
      ESP Fit Center  127 is at   2.781937  0.978828  5.784897
      ESP Fit Center  128 is at   2.408129  2.005858  5.784897
      ESP Fit Center  129 is at   1.461613 -0.594673  5.784897
      ESP Fit Center  130 is at   2.408129 -0.048202  5.784897
      ESP Fit Center  131 is at   2.781937  0.978828  4.746599
      ESP Fit Center  132 is at   2.408129  2.005858  4.746599
      ESP Fit Center  133 is at   1.461613 -0.594673  4.746599
      ESP Fit Center  134 is at   2.408129 -0.048202  4.746599
      ESP Fit Center  135 is at   2.171641  0.978828  3.906599
      ESP Fit Center  136 is at   1.489310  1.917977  3.906599
      ESP Fit Center  137 is at   1.080666  3.154953  5.774218
      ESP Fit Center  138 is at   0.134150  3.701424  5.774218
      ESP Fit Center  139 is at  -0.942188  3.511637  5.774218
      ESP Fit Center  140 is at  -1.644718  2.674394  5.774218
      ESP Fit Center  141 is at   1.080666  3.154953  4.735920
      ESP Fit Center  142 is at   0.134150  3.701424  4.735920
      ESP Fit Center  143 is at  -0.942188  3.511637  4.735920
      ESP Fit Center  144 is at  -1.644718  2.674394  4.735920
      ESP Fit Center  145 is at  -1.744014 -1.093207  5.272301
      ESP Fit Center  146 is at  -1.744014 -1.093207  3.172301
      ESP Fit Center  147 is at  -1.054379 -1.336472  5.659845
      ESP Fit Center  148 is at   0.049656 -1.695195  5.659845
      ESP Fit Center  149 is at   1.342283 -0.756046  4.819845
      ESP Fit Center  150 is at  -1.054379 -2.139760  4.819845
      ESP Fit Center  151 is at   0.021959 -2.329547  4.819845
      ESP Fit Center  152 is at   0.968475 -1.783076  4.819845
      ESP Fit Center  153 is at   1.342283 -0.756046  3.781547
      ESP Fit Center  154 is at  -1.054379 -2.139760  3.781547
      ESP Fit Center  155 is at   0.021959 -2.329547  3.781547
      ESP Fit Center  156 is at   0.968475 -1.783076  3.781547
      ESP Fit Center  157 is at  -1.054379 -1.336472  2.941547
      ESP Fit Center  158 is at   0.049656 -1.695195  2.941547
      ESP Fit Center  159 is at  -2.432230  0.906499  5.682575
      ESP Fit Center  160 is at  -2.432230 -0.254353  5.682575
      ESP Fit Center  161 is at  -2.432230  1.709787  4.842575
      ESP Fit Center  162 is at  -3.134760  0.872544  4.842575
      ESP Fit Center  163 is at  -3.134760 -0.220398  4.842575
      ESP Fit Center  164 is at  -2.432230 -1.057641  4.842575
      ESP Fit Center  165 is at  -3.134760  0.872544  3.804277
      ESP Fit Center  166 is at  -3.134760 -0.220398  3.804277
      ESP Fit Center  167 is at  -2.432230 -1.057641  3.804277
      ESP Fit Center  168 is at  -2.432230 -0.254353  2.964277
      ESP Fit Center  169 is at   1.817001  0.744164  2.964687
      ESP Fit Center  170 is at   1.554411  1.724164  2.964687
      ESP Fit Center  171 is at   0.837001 -0.953246  2.964687
      ESP Fit Center  172 is at   1.554411 -0.235836  2.964687
      ESP Fit Center  173 is at  -2.511451  3.133227  2.384517
      ESP Fit Center  174 is at  -0.674053  3.558420  4.385067
      ESP Fit Center  175 is at  -1.778088  3.199697  4.385067
      ESP Fit Center  176 is at  -1.778088  2.038845  4.385067
      ESP Fit Center  177 is at   0.618574  2.619271  3.545067
      ESP Fit Center  178 is at   0.244766  3.646301  3.545067
      ESP Fit Center  179 is at  -0.701750  4.192772  3.545067
      ESP Fit Center  180 is at  -1.778088  4.002985  3.545067
      ESP Fit Center  181 is at  -2.480618  3.165742  3.545067
      ESP Fit Center  182 is at   0.244766  3.646301  2.506769
      ESP Fit Center  183 is at  -0.701750  4.192772  2.506769
      ESP Fit Center  184 is at  -1.778088  4.002985  2.506769
      ESP Fit Center  185 is at  -2.480618  3.165742  2.506769
      ESP Fit Center  186 is at  -2.755050  1.961047  3.604785
      ESP Fit Center  187 is at  -2.755050  2.764335  2.764785
      ESP Fit Center  188 is at  -3.457580  1.927092  2.764785
      ESP Fit Center  189 is at  -3.457580  0.834150  2.764785
      ESP Fit Center  190 is at  -2.755050 -0.003093  2.764785
      ESP Fit Center  191 is at  -2.755050  2.764335  1.726487
      ESP Fit Center  192 is at  -3.457580  1.927092  1.726487
      ESP Fit Center  193 is at  -3.457580  0.834150  1.726487
      ESP Fit Center  194 is at  -2.755050 -0.003093  1.726487
      ESP Fit Center  195 is at  -2.755050  1.961047  0.886487
      ESP Fit Center  196 is at  -2.755050  0.800195  0.886487
      ESP Fit Center  197 is at   0.401391  3.803659  2.095762
      ESP Fit Center  198 is at   0.170895  3.058681 -0.772891
      ESP Fit Center  199 is at   1.696074  2.332177  2.518296
      ESP Fit Center  200 is at   1.013743  3.271326  2.518296
      ESP Fit Center  201 is at   2.306370  2.332177  1.678296
      ESP Fit Center  202 is at   1.932562  3.359207  1.678296
      ESP Fit Center  203 is at   0.986046  3.905678  1.678296
      ESP Fit Center  204 is at   1.932562  3.359207  0.639998
      ESP Fit Center  205 is at   0.986046  3.905678  0.639998
      ESP Fit Center  206 is at   1.013743  3.271326 -0.200002
      ESP Fit Center  207 is at  -0.511563  4.018695  2.099484
      ESP Fit Center  208 is at   0.407256  4.106576  1.259484
      ESP Fit Center  209 is at  -0.539260  4.653047  1.259484
      ESP Fit Center  210 is at  -1.615598  4.463260  1.259484
      ESP Fit Center  211 is at  -2.318128  3.626017  1.259484
      ESP Fit Center  212 is at   0.407256  4.106576  0.221186
      ESP Fit Center  213 is at  -0.539260  4.653047  0.221186
      ESP Fit Center  214 is at  -1.615598  4.463260  0.221186
      ESP Fit Center  215 is at  -2.318128  3.626017  0.221186
      ESP Fit Center  216 is at  -2.318128  2.533075  0.221186
      ESP Fit Center  217 is at  -0.511563  4.018695 -0.618814
      ESP Fit Center  218 is at  -1.615598  3.659972 -0.618814
      ESP Fit Center  219 is at  -0.816711  3.079546 -0.939665
      ESP Fit Center  220 is at  -1.986378  0.259009  0.980000
      ESP Fit Center  221 is at  -2.310555  2.236721  0.000000
      ESP Fit Center  222 is at  -2.573145  1.256721  0.000000
      ESP Fit Center  223 is at  -2.310555  0.276721  0.000000
      ESP Fit Center  224 is at  -0.088617  2.871054 -0.980000
      ESP Fit Center  225 is at  -1.137673  2.871054 -0.980000
      ESP Fit Center  226 is at  -1.986378  2.254433 -0.980000
      ESP Fit Center  227 is at  -2.310555  1.256721 -0.980000
      ESP Fit Center  228 is at  -1.986378  0.259009 -0.980000
      ESP Fit Center  229 is at  -2.038978 -0.502563  0.000000
      ESP Fit Center  230 is at  -1.571873 -1.392558  0.000000
      ESP Fit Center  231 is at   0.253127 -2.084689  0.000000
      ESP Fit Center  232 is at  -1.867737 -1.034051 -0.374984
      ESP Fit Center  233 is at  -1.165207 -1.871294 -0.374984
      ESP Fit Center  234 is at  -1.867737  0.058891 -1.413282
      ESP Fit Center  235 is at  -1.867737 -1.034051 -1.413282
      ESP Fit Center  236 is at  -1.165207 -1.871294 -1.413282
      ESP Fit Center  237 is at  -0.088869 -2.061081 -1.413282
      ESP Fit Center  238 is at   0.857647 -1.514610 -1.413282
      ESP Fit Center  239 is at  -1.165207 -1.068006 -2.253282
      ESP Fit Center  240 is at  -0.061172 -1.426729 -2.253282
      ESP Fit Center  241 is at  -0.366320 -0.487580 -2.574133
      ESP Fit Center  242 is at  -1.124294 -1.169965  2.208574
      ESP Fit Center  243 is at  -0.020259 -1.528688  2.208574
      ESP Fit Center  244 is at  -1.826824 -1.136010  1.368574
      ESP Fit Center  245 is at  -1.124294 -1.973253  1.368574
      ESP Fit Center  246 is at  -0.047956 -2.163040  1.368574
      ESP Fit Center  247 is at   0.898560 -1.616569  1.368574
      ESP Fit Center  248 is at  -1.826824 -1.136010  0.330276
      ESP Fit Center  249 is at  -1.124294 -1.973253  0.330276
      ESP Fit Center  250 is at  -0.047956 -2.163040  0.330276
      ESP Fit Center  251 is at   3.057416 -0.983238  1.050000
      ESP Fit Center  252 is at   2.161933 -1.964613  1.230272
      ESP Fit Center  253 is at   3.454560 -1.025464  0.390272
      ESP Fit Center  254 is at   1.057898 -2.409178  0.390272
      ESP Fit Center  255 is at   2.134236 -2.598965  0.390272
      ESP Fit Center  256 is at   3.080752 -2.052494  0.390272
      ESP Fit Center  257 is at   1.057898 -2.409178 -0.648026
      ESP Fit Center  258 is at   2.134236 -2.598965 -0.648026
      ESP Fit Center  259 is at   3.080752 -2.052494 -0.648026
      ESP Fit Center  260 is at   2.161933 -1.964613 -1.488026
      ESP Fit Center  261 is at   1.906966  0.330946  2.637962
      ESP Fit Center  262 is at   2.894445  0.330946  2.317111
      ESP Fit Center  263 is at   2.212114  1.270095  2.317111
      ESP Fit Center  264 is at   2.212114 -0.608203  2.317111
      ESP Fit Center  265 is at   3.504741  0.330946  1.477111
      ESP Fit Center  266 is at   3.130933  1.357976  1.477111
      ESP Fit Center  267 is at   3.130933 -0.696084  1.477111
      ESP Fit Center  268 is at   3.434071  1.054122  0.988615
      ESP Fit Center  269 is at   2.902564  1.974720  0.988615
      ESP Fit Center  270 is at   4.286543  1.054122  0.308791
      ESP Fit Center  271 is at   3.982466  2.089713  0.308791
      ESP Fit Center  272 is at   3.166778  2.796510  0.308791
      ESP Fit Center  273 is at   2.098454  2.950112  0.308791
      ESP Fit Center  274 is at   3.982466  0.018531  0.308791
      ESP Fit Center  275 is at   4.759629  1.054122 -0.673583
      ESP Fit Center  276 is at   4.523086  2.090485 -0.673583
      ESP Fit Center  277 is at   3.860307  2.921584 -0.673583
      ESP Fit Center  278 is at   2.902564  3.382809 -0.673583
      ESP Fit Center  279 is at   1.839548  3.382809 -0.673583
      ESP Fit Center  280 is at   0.881805  2.921584 -0.673583
      ESP Fit Center  281 is at   3.860307 -0.813340 -0.673583
      ESP Fit Center  282 is at   4.523086  0.017759 -0.673583
      ESP Fit Center  283 is at   4.759629  1.054122 -1.763935
      ESP Fit Center  284 is at   4.523086  2.090485 -1.763935
      ESP Fit Center  285 is at   3.860307  2.921584 -1.763935
      ESP Fit Center  286 is at   2.902564  3.382809 -1.763935
      ESP Fit Center  287 is at   1.839548  3.382809 -1.763935
      ESP Fit Center  288 is at   0.881805  2.921584 -1.763935
      ESP Fit Center  289 is at   2.902564 -1.274565 -1.763935
      ESP Fit Center  290 is at   3.860307 -0.813340 -1.763935
      ESP Fit Center  291 is at   4.523086  0.017759 -1.763935
      ESP Fit Center  292 is at   4.286543  1.054122 -2.746309
      ESP Fit Center  293 is at   3.982466  2.089713 -2.746309
      ESP Fit Center  294 is at   3.166778  2.796510 -2.746309
      ESP Fit Center  295 is at   3.982466  0.018531 -2.746309
      ESP Fit Center  296 is at   4.112054  0.513593 -2.993622
      ESP Fit Center  297 is at   3.738246 -0.513437 -2.993622
      ESP Fit Center  298 is at   4.112054  0.513593 -4.031920
      ESP Fit Center  299 is at   3.738246  1.540623 -4.031920
      ESP Fit Center  300 is at   2.791730  2.087094 -4.031920
      ESP Fit Center  301 is at   2.791730 -1.059908 -4.031920
      ESP Fit Center  302 is at   3.738246 -0.513437 -4.031920
      ESP Fit Center  303 is at   3.501758  0.513593 -4.871920
      ESP Fit Center  304 is at   2.819427 -0.425556 -4.871920
      ESP Fit Center  305 is at   0.607945 -1.948565 -2.196668
      ESP Fit Center  306 is at   1.684283 -2.138352 -2.196668
      ESP Fit Center  307 is at   2.630799 -1.591881 -2.196668
      ESP Fit Center  308 is at   0.607945 -1.948565 -3.234966
      ESP Fit Center  309 is at   1.684283 -2.138352 -3.234966
      ESP Fit Center  310 is at   2.630799 -1.591881 -3.234966
      ESP Fit Center  311 is at   1.711980 -1.504000 -4.074966
      ESP Fit Center  312 is at  -1.051114  2.711925 -3.305485
      ESP Fit Center  313 is at   1.132019  3.288952 -2.070090
      ESP Fit Center  314 is at   2.050838  3.376833 -2.910090
      ESP Fit Center  315 is at   1.104322  3.923304 -2.910090
      ESP Fit Center  316 is at   0.027984  3.733517 -2.910090
      ESP Fit Center  317 is at   2.424646  2.349803 -3.948388
      ESP Fit Center  318 is at   2.050838  3.376833 -3.948388
      ESP Fit Center  319 is at   1.104322  3.923304 -3.948388
      ESP Fit Center  320 is at   0.027984  3.733517 -3.948388
      ESP Fit Center  321 is at  -1.079233  2.704088 -2.061620
      ESP Fit Center  322 is at  -1.781763  1.866845 -2.061620
      ESP Fit Center  323 is at  -1.781763  0.773903 -2.061620
      ESP Fit Center  324 is at  -1.079233  2.704088 -3.099918
      ESP Fit Center  325 is at  -1.781763  1.866845 -3.099918
      ESP Fit Center  326 is at  -2.056275  1.241115 -3.323769
      ESP Fit Center  327 is at  -2.056275  0.161805 -3.323769
      ESP Fit Center  328 is at  -1.472756 -0.746169 -3.323769
      ESP Fit Center  329 is at  -0.490981 -1.194530 -3.323769
      ESP Fit Center  330 is at  -0.749887  3.030147 -4.306143
      ESP Fit Center  331 is at  -1.707630  2.568922 -4.306143
      ESP Fit Center  332 is at  -2.370409  1.737823 -4.306143
      ESP Fit Center  333 is at  -2.606952  0.701460 -4.306143
      ESP Fit Center  334 is at  -2.370409 -0.334903 -4.306143
      ESP Fit Center  335 is at  -1.707630 -1.166002 -4.306143
      ESP Fit Center  336 is at  -0.749887 -1.627227 -4.306143
      ESP Fit Center  337 is at   0.313129 -1.627227 -4.306143
      ESP Fit Center  338 is at   1.270872 -1.166002 -4.306143
      ESP Fit Center  339 is at  -1.707630  2.568922 -5.396495
      ESP Fit Center  340 is at  -2.370409  1.737823 -5.396495
      ESP Fit Center  341 is at  -2.606952  0.701460 -5.396495
      ESP Fit Center  342 is at  -2.370409 -0.334903 -5.396495
      ESP Fit Center  343 is at  -1.707630 -1.166002 -5.396495
      ESP Fit Center  344 is at  -0.749887 -1.627227 -5.396495
      ESP Fit Center  345 is at   0.313129 -1.627227 -5.396495
      ESP Fit Center  346 is at   1.270872 -1.166002 -5.396495
      ESP Fit Center  347 is at  -2.056275  1.241115 -6.378869
      ESP Fit Center  348 is at  -2.056275  0.161805 -6.378869
      ESP Fit Center  349 is at  -1.472756 -0.746169 -6.378869
      ESP Fit Center  350 is at  -0.490981 -1.194530 -6.378869
      ESP Fit Center  351 is at   0.577343 -1.040928 -6.378869
      ESP Fit Center  352 is at  -1.281394  0.701460 -7.058693
      ESP Fit Center  353 is at  -0.749887 -0.219138 -7.058693
      ESP Fit Center  354 is at   1.229797 -0.853738 -6.119400
      ESP Fit Center  355 is at   1.023404 -0.950127 -6.465856
      ESP Fit Center  356 is at  -0.755464  1.169845 -7.504154
      ESP Fit Center  357 is at  -0.755464  0.076903 -7.504154
      ESP Fit Center  358 is at  -0.052934 -0.760340 -7.504154
      ESP Fit Center  359 is at   1.023404 -0.950127 -7.504154
      ESP Fit Center  360 is at   1.969920 -0.403656 -7.504154
      ESP Fit Center  361 is at  -0.052934  0.042948 -8.344154
      ESP Fit Center  362 is at   1.051101 -0.315775 -8.344154
      ESP Fit Center  363 is at   2.288060  1.915471 -4.455871
      ESP Fit Center  364 is at   3.580687  0.976322 -5.295871
      ESP Fit Center  365 is at   3.206879  2.003352 -5.295871
      ESP Fit Center  366 is at   2.260363 -0.597179 -5.295871
      ESP Fit Center  367 is at   3.206879 -0.050708 -5.295871
      ESP Fit Center  368 is at   3.580687  0.976322 -6.334169
      ESP Fit Center  369 is at   2.260363 -0.597179 -6.334169
      ESP Fit Center  370 is at   3.206879 -0.050708 -6.334169
      ESP Fit Center  371 is at   2.970391  0.976322 -7.174169
      ESP Fit Center  372 is at   2.700877  2.715181 -5.417019
      ESP Fit Center  373 is at   0.137554  4.678715 -6.467019
      ESP Fit Center  374 is at  -0.922829  3.550673 -5.411294
      ESP Fit Center  375 is at  -0.922829  4.353961 -6.251294
      ESP Fit Center  376 is at  -1.625359  3.516718 -6.251294
      ESP Fit Center  377 is at  -1.625359  2.423776 -6.251294
      ESP Fit Center  378 is at  -0.922829  4.353961 -7.289592
      ESP Fit Center  379 is at  -1.625359  3.516718 -7.289592
      ESP Fit Center  380 is at  -1.625359  2.423776 -7.289592
      ESP Fit Center  381 is at  -0.922829  1.586533 -7.289592
      ESP Fit Center  382 is at   2.101110  3.322563 -4.242298
      ESP Fit Center  383 is at   1.418779  4.261712 -4.242298
      ESP Fit Center  384 is at   0.314744  3.902989 -4.242298
      ESP Fit Center  385 is at   2.711406  3.322563 -5.082298
      ESP Fit Center  386 is at   2.337598  4.349593 -5.082298
      ESP Fit Center  387 is at   1.391082  4.896064 -5.082298
      ESP Fit Center  388 is at   0.314744  4.706277 -5.082298
      ESP Fit Center  389 is at  -0.387786  3.869034 -5.082298
      ESP Fit Center  390 is at   3.137121  3.248532 -5.527438
      ESP Fit Center  391 is at   2.605614  4.169130 -5.527438
      ESP Fit Center  392 is at   3.989593  3.248532 -6.207262
      ESP Fit Center  393 is at   3.685516  4.284123 -6.207262
      ESP Fit Center  394 is at   2.869828  4.990920 -6.207262
      ESP Fit Center  395 is at   1.801504  5.144522 -6.207262
      ESP Fit Center  396 is at   3.685516  2.212941 -6.207262
      ESP Fit Center  397 is at   4.462679  3.248532 -7.189636
      ESP Fit Center  398 is at   4.226136  4.284895 -7.189636
      ESP Fit Center  399 is at   3.563357  5.115994 -7.189636
      ESP Fit Center  400 is at   2.605614  5.577219 -7.189636
      ESP Fit Center  401 is at   1.542598  5.577219 -7.189636
      ESP Fit Center  402 is at   0.584855  5.115994 -7.189636
      ESP Fit Center  403 is at   3.563357  1.381070 -7.189636
      ESP Fit Center  404 is at   4.226136  2.212169 -7.189636
      ESP Fit Center  405 is at   4.462679  3.248532 -8.279988
      ESP Fit Center  406 is at   4.226136  4.284895 -8.279988
      ESP Fit Center  407 is at   3.563357  5.115994 -8.279988
      ESP Fit Center  408 is at   2.605614  5.577219 -8.279988
      ESP Fit Center  409 is at   1.542598  5.577219 -8.279988
      ESP Fit Center  410 is at   0.584855  5.115994 -8.279988
      ESP Fit Center  411 is at   2.605614  0.919845 -8.279988
      ESP Fit Center  412 is at   3.563357  1.381070 -8.279988
      ESP Fit Center  413 is at   4.226136  2.212169 -8.279988
      ESP Fit Center  414 is at   3.989593  3.248532 -9.262362
      ESP Fit Center  415 is at   3.685516  4.284123 -9.262362
      ESP Fit Center  416 is at   2.869828  4.990920 -9.262362
      ESP Fit Center  417 is at   1.801504  5.144522 -9.262362
      ESP Fit Center  418 is at   3.685516  2.212941 -9.262362
      ESP Fit Center  419 is at   3.751196  2.693838 -9.484058
      ESP Fit Center  420 is at   3.377388  1.666808 -9.484058
      ESP Fit Center  421 is at   3.751196  2.693838-10.522356
      ESP Fit Center  422 is at   3.377388  3.720868-10.522356
      ESP Fit Center  423 is at   2.430872  4.267339-10.522356
      ESP Fit Center  424 is at   2.430872  1.120337-10.522356
      ESP Fit Center  425 is at   3.377388  1.666808-10.522356
      ESP Fit Center  426 is at   3.140900  2.693838-11.362356
      ESP Fit Center  427 is at   2.458569  3.632987-11.362356
      ESP Fit Center  428 is at   1.354534  2.113412-11.362356
      ESP Fit Center  429 is at   2.458569  1.754689-11.362356
      ESP Fit Center  430 is at   2.153421  2.693838-11.683207
      ESP Fit Center  431 is at  -0.331206  0.985013 -8.646184
      ESP Fit Center  432 is at   0.371324  0.147770 -8.646184
      ESP Fit Center  433 is at   1.447662 -0.042017 -8.646184
      ESP Fit Center  434 is at   2.394178  0.504454 -8.646184
      ESP Fit Center  435 is at  -0.331206  0.985013 -9.684482
      ESP Fit Center  436 is at   0.371324  0.147770 -9.684482
      ESP Fit Center  437 is at   1.447662 -0.042017 -9.684482
      ESP Fit Center  438 is at   2.394178  0.504454 -9.684482
      ESP Fit Center  439 is at   0.371324  0.951058-10.524482
      ESP Fit Center  440 is at   1.475359  0.592335-10.524482
      ESP Fit Center  441 is at  -1.464249  4.711485 -9.762780
      ESP Fit Center  442 is at  -0.637046  1.355393 -9.762780
      ESP Fit Center  443 is at  -1.083341  4.693373-10.812780
      ESP Fit Center  444 is at  -1.637361  3.831301-10.812780
      ESP Fit Center  445 is at   1.157624  3.318927-11.581433
      ESP Fit Center  446 is at   0.632624  4.228254-11.581433
      ESP Fit Center  447 is at   0.611582  5.313072 -8.551334
      ESP Fit Center  448 is at  -0.492453  4.954349 -8.551334
      ESP Fit Center  449 is at   1.530401  5.400953 -9.391334
      ESP Fit Center  450 is at   0.583885  5.947424 -9.391334
      ESP Fit Center  451 is at  -0.492453  5.757637 -9.391334
      ESP Fit Center  452 is at   1.904209  4.373923-10.429632
      ESP Fit Center  453 is at   1.530401  5.400953-10.429632
      ESP Fit Center  454 is at   0.583885  5.947424-10.429632
      ESP Fit Center  455 is at  -0.492453  5.757637-10.429632
      ESP Fit Center  456 is at  -1.194983  4.920394-10.429632
      ESP Fit Center  457 is at   1.293913  4.373923-11.269632
      ESP Fit Center  458 is at   0.611582  5.313072-11.269632
      ESP Fit Center  459 is at  -0.492453  4.954349-11.269632
      ESP Fit Center  460 is at   0.306434  4.373923-11.590483
      ESP Fit Center  461 is at  -1.722485  2.350040-10.189081
      ESP Fit Center  462 is at  -1.019955  1.512797-10.189081
      ESP Fit Center  463 is at  -1.722485  3.442982-11.227379
      ESP Fit Center  464 is at  -1.722485  2.350040-11.227379
      ESP Fit Center  465 is at  -1.019955  1.512797-11.227379
      ESP Fit Center  466 is at   0.056383  1.323010-11.227379
      ESP Fit Center  467 is at   1.002899  1.869481-11.227379
      ESP Fit Center  468 is at   0.766411  2.896511-12.067379
      ESP Fit Center  469 is at   0.084080  3.835660-12.067379
      ESP Fit Center  470 is at  -1.019955  3.476937-12.067379
      ESP Fit Center  471 is at  -1.019955  2.316085-12.067379
      ESP Fit Center  472 is at   0.084080  1.957362-12.067379
      ESP Fit Center  473 is at  -0.221068  2.896511-12.388230
      ESP Fit Center  474 is at  -1.511872  3.807192 -7.700947
      ESP Fit Center  475 is at  -1.511872  2.646340 -7.700947
      ESP Fit Center  476 is at  -1.511872  4.610480 -8.540947
      ESP Fit Center  477 is at  -2.214402  3.773237 -8.540947
      ESP Fit Center  478 is at  -2.214402  2.680295 -8.540947
      ESP Fit Center  479 is at  -1.511872  1.843052 -8.540947
      ESP Fit Center  480 is at  -0.435534  1.653265 -8.540947
      ESP Fit Center  481 is at  -2.214402  3.773237 -9.579245
      ESP Fit Center  482 is at  -2.214402  2.680295 -9.579245
      ESP Fit Center  483 is at  -1.511872  1.843052 -9.579245
      ESP Fit Center  484 is at  -1.215320  2.383946 10.298959
      ESP Fit Center  485 is at  -0.694659  1.482136 10.298959
      ESP Fit Center  486 is at  -1.402777  3.802031  9.633010
      ESP Fit Center  487 is at  -1.402777  0.965861  9.633010
      ESP Fit Center  488 is at   2.165828  2.383946  8.670684
      ESP Fit Center  489 is at   0.346661  4.665109  8.670684
      ESP Fit Center  490 is at  -0.694659  4.665109  8.670684
      ESP Fit Center  491 is at  -1.632857  4.213296  7.602584
      ESP Fit Center  492 is at   0.269853  2.639674 11.014115
      ESP Fit Center  493 is at   1.229853  2.639674 10.756884
      ESP Fit Center  494 is at   0.749853  3.471058 10.756884
      ESP Fit Center  495 is at  -0.210147  3.471058 10.756884
      ESP Fit Center  496 is at  -0.690147  2.639674 10.756884
      ESP Fit Center  497 is at  -0.210147  1.808290 10.756884
      ESP Fit Center  498 is at   0.749853  1.808290 10.756884
      ESP Fit Center  499 is at   1.932622  2.639674 10.054115
      ESP Fit Center  500 is at   1.615061  3.617025 10.054115
      ESP Fit Center  501 is at   0.783677  4.221061 10.054115
      ESP Fit Center  502 is at  -0.243971  4.221061 10.054115
      ESP Fit Center  503 is at  -1.075355  3.617025 10.054115
      ESP Fit Center  504 is at   1.615061  1.662323 10.054115
      ESP Fit Center  505 is at   2.189853  2.639674  9.094115
      ESP Fit Center  506 is at   1.932622  3.599674  9.094115
      ESP Fit Center  507 is at   1.229853  4.302443  9.094115
      ESP Fit Center  508 is at   0.269853  4.559674  9.094115
      ESP Fit Center  509 is at   1.471728  4.119570  8.381451
      ESP Fit Center  510 is at   0.640344  4.723606  8.381451
      ESP Fit Center  511 is at   2.046520  3.142219  7.421451
      ESP Fit Center  512 is at   1.789289  4.102219  7.421451
      ESP Fit Center  513 is at   1.086520  4.804988  7.421451
      ESP Fit Center  514 is at   0.126520  5.062219  7.421451
      ESP Fit Center  515 is at  -0.833480  4.804988  7.421451
      ESP Fit Center  516 is at   1.789289  3.142219  6.461451
      ESP Fit Center  517 is at   1.471728  4.119570  6.461451
      ESP Fit Center  518 is at   0.640344  4.723606  6.461451
      ESP Fit Center  519 is at  -0.387304  4.723606  6.461451
      ESP Fit Center  520 is at  -1.218688  4.119570  6.461451
      ESP Fit Center  521 is at   0.606520  3.973603  5.758682
      ESP Fit Center  522 is at  -0.353480  3.973603  5.758682
      ESP Fit Center  523 is at  -1.733191  3.251896  9.901784
      ESP Fit Center  524 is at  -2.213191  2.420512  9.901784
      ESP Fit Center  525 is at  -1.733191  1.589128  9.901784
      ESP Fit Center  526 is at  -1.767015  4.001899  9.199015
      ESP Fit Center  527 is at  -2.598399  3.397863  9.199015
      ESP Fit Center  528 is at  -2.915960  2.420512  9.199015
      ESP Fit Center  529 is at  -2.598399  1.443161  9.199015
      ESP Fit Center  530 is at  -1.767015  0.839125  9.199015
      ESP Fit Center  531 is at  -2.213191  4.083281  8.239015
      ESP Fit Center  532 is at  -2.915960  3.380512  8.239015
      ESP Fit Center  533 is at  -3.173191  2.420512  8.239015
      ESP Fit Center  534 is at  -2.915960  1.460512  8.239015
      ESP Fit Center  535 is at  -2.213191  0.757743  8.239015
      ESP Fit Center  536 is at  -1.767015  4.001899  7.279015
      ESP Fit Center  537 is at  -2.598399  3.397863  7.279015
      ESP Fit Center  538 is at  -2.915960  2.420512  7.279015
      ESP Fit Center  539 is at  -2.598399  1.443161  7.279015
      ESP Fit Center  540 is at  -2.213191  2.420512  6.576246
      ESP Fit Center  541 is at   1.309882  0.989823  9.875092
      ESP Fit Center  542 is at   1.847085 -0.024633  9.209143
      ESP Fit Center  543 is at   1.727419 -0.839527  8.246817
      ESP Fit Center  544 is at   0.789221 -1.291340  7.178717
      ESP Fit Center  545 is at   2.309546  0.955786  9.250991
      ESP Fit Center  546 is at   3.012315  0.955786  8.548222
      ESP Fit Center  547 is at   2.694754  1.933137  8.548222
      ESP Fit Center  548 is at   1.863370 -0.625601  8.548222
      ESP Fit Center  549 is at   2.694754 -0.021565  8.548222
      ESP Fit Center  550 is at   3.269546  0.955786  7.588222
      ESP Fit Center  551 is at   3.012315  1.915786  7.588222
      ESP Fit Center  552 is at   2.309546  2.618555  7.588222
      ESP Fit Center  553 is at   2.309546 -0.706983  7.588222
      ESP Fit Center  554 is at   3.012315 -0.004214  7.588222
      ESP Fit Center  555 is at   3.012315  0.955786  6.628222
      ESP Fit Center  556 is at   2.694754  1.933137  6.628222
      ESP Fit Center  557 is at   1.863370  2.537173  6.628222
      ESP Fit Center  558 is at   1.863370 -0.625601  6.628222
      ESP Fit Center  559 is at   2.694754 -0.021565  6.628222
      ESP Fit Center  560 is at   0.005830  0.273862 10.401065
      ESP Fit Center  561 is at   0.965830  0.273862 10.143834
      ESP Fit Center  562 is at  -0.954170  0.273862 10.143834
      ESP Fit Center  563 is at  -0.474170 -0.557522 10.143834
      ESP Fit Center  564 is at   0.485830 -0.557522 10.143834
      ESP Fit Center  565 is at  -1.656939  0.273862  9.441065
      ESP Fit Center  566 is at  -1.339378 -0.703489  9.441065
      ESP Fit Center  567 is at  -0.507994 -1.307525  9.441065
      ESP Fit Center  568 is at   0.519654 -1.307525  9.441065
      ESP Fit Center  569 is at   1.351038 -0.703489  9.441065
      ESP Fit Center  570 is at  -1.914170  0.273862  8.481065
      ESP Fit Center  571 is at  -1.656939 -0.686138  8.481065
      ESP Fit Center  572 is at  -0.954170 -1.388907  8.481065
      ESP Fit Center  573 is at   0.005830 -1.646138  8.481065
      ESP Fit Center  574 is at   0.965830 -1.388907  8.481065
      ESP Fit Center  575 is at  -2.112148  0.539182  7.941373
      ESP Fit Center  576 is at  -1.777679 -0.490208  7.941373
      ESP Fit Center  577 is at  -2.481225  1.061809  7.043203
      ESP Fit Center  578 is at  -2.481225  0.016555  7.043203
      ESP Fit Center  579 is at  -1.995472 -0.908971  7.043203
      ESP Fit Center  580 is at  -1.135245 -1.502742  7.043203
      ESP Fit Center  581 is at  -0.097612 -1.628734  7.043203
      ESP Fit Center  582 is at   0.879717 -1.258082  7.043203
      ESP Fit Center  583 is at  -2.481225  1.061809  6.046309
      ESP Fit Center  584 is at  -2.481225  0.016555  6.046309
      ESP Fit Center  585 is at  -1.995472 -0.908971  6.046309
      ESP Fit Center  586 is at  -1.135245 -1.502742  6.046309
      ESP Fit Center  587 is at  -0.097612 -1.628734  6.046309
      ESP Fit Center  588 is at   0.879717 -1.258082  6.046309
      ESP Fit Center  589 is at   1.561523  2.901894  5.876369
      ESP Fit Center  590 is at  -2.005446  2.087757  5.876369
      ESP Fit Center  591 is at   1.561523  2.901894  4.808269
      ESP Fit Center  592 is at   2.846931  0.978828  6.225748
      ESP Fit Center  593 is at   2.529370  1.956179  6.225748
      ESP Fit Center  594 is at   1.697986 -0.602559  6.225748
      ESP Fit Center  595 is at   2.529370  0.001477  6.225748
      ESP Fit Center  596 is at   3.104162  0.978828  5.265748
      ESP Fit Center  597 is at   2.846931  1.938828  5.265748
      ESP Fit Center  598 is at   2.144162  2.641597  5.265748
      ESP Fit Center  599 is at   2.144162 -0.683941  5.265748
      ESP Fit Center  600 is at   2.846931  0.018828  5.265748
      ESP Fit Center  601 is at   2.846931  0.978828  4.305748
      ESP Fit Center  602 is at   2.529370  1.956179  4.305748
      ESP Fit Center  603 is at   1.697986  2.560215  4.305748
      ESP Fit Center  604 is at   1.697986 -0.602559  4.305748
      ESP Fit Center  605 is at   2.529370  0.001477  4.305748
      ESP Fit Center  606 is at   2.144162  0.978828  3.602979
      ESP Fit Center  607 is at  -1.488509  3.105274  6.215069
      ESP Fit Center  608 is at   1.519468  3.087923  5.255069
      ESP Fit Center  609 is at   0.816699  3.790692  5.255069
      ESP Fit Center  610 is at  -0.143301  4.047923  5.255069
      ESP Fit Center  611 is at  -1.103301  3.790692  5.255069
      ESP Fit Center  612 is at  -1.806070  3.087923  5.255069
      ESP Fit Center  613 is at  -2.063301  2.127923  5.255069
      ESP Fit Center  614 is at   1.201907  3.105274  4.295069
      ESP Fit Center  615 is at   0.370523  3.709310  4.295069
      ESP Fit Center  616 is at  -1.781827 -1.136846  5.718677
      ESP Fit Center  617 is at  -2.011907 -1.548111  4.756351
      ESP Fit Center  618 is at  -2.011907 -1.548111  3.688251
      ESP Fit Center  619 is at  -1.781827 -1.136846  2.725925
      ESP Fit Center  620 is at   0.224508 -1.587430  5.963465
      ESP Fit Center  621 is at  -1.600700 -1.733397  5.260696
      ESP Fit Center  622 is at  -0.769316 -2.337433  5.260696
      ESP Fit Center  623 is at   0.258332 -2.337433  5.260696
      ESP Fit Center  624 is at   1.089716 -1.733397  5.260696
      ESP Fit Center  625 is at   1.664508 -0.756046  4.300696
      ESP Fit Center  626 is at  -1.918261 -1.716046  4.300696
      ESP Fit Center  627 is at  -1.215492 -2.418815  4.300696
      ESP Fit Center  628 is at  -0.255492 -2.676046  4.300696
      ESP Fit Center  629 is at   0.704508 -2.418815  4.300696
      ESP Fit Center  630 is at   1.407277 -1.716046  4.300696
      ESP Fit Center  631 is at  -1.600700 -1.733397  3.340696
      ESP Fit Center  632 is at  -0.769316 -2.337433  3.340696
      ESP Fit Center  633 is at   0.258332 -2.337433  3.340696
      ESP Fit Center  634 is at   1.089716 -1.733397  3.340696
      ESP Fit Center  635 is at  -0.735492 -1.587430  2.637927
      ESP Fit Center  636 is at   0.224508 -1.587430  2.637927
      ESP Fit Center  637 is at  -2.593343  0.326073  5.986195
      ESP Fit Center  638 is at  -2.147167  1.907460  5.283426
      ESP Fit Center  639 is at  -2.978551  1.303424  5.283426
      ESP Fit Center  640 is at  -3.296112  0.326073  5.283426
      ESP Fit Center  641 is at  -2.978551 -0.651278  5.283426
      ESP Fit Center  642 is at  -2.147167 -1.255314  5.283426
      ESP Fit Center  643 is at  -2.593343  1.988842  4.323426
      ESP Fit Center  644 is at  -3.296112  1.286073  4.323426
      ESP Fit Center  645 is at  -3.553343  0.326073  4.323426
      ESP Fit Center  646 is at  -3.296112 -0.633927  4.323426
      ESP Fit Center  647 is at  -2.593343 -1.336696  4.323426
      ESP Fit Center  648 is at  -3.296112  0.326073  3.363426
      ESP Fit Center  649 is at  -2.978551 -0.651278  3.363426
      ESP Fit Center  650 is at   2.040840  0.744164  3.463134
      ESP Fit Center  651 is at   1.790694  1.759044  3.463134
      ESP Fit Center  652 is at   1.097563  2.541428  3.463134
      ESP Fit Center  653 is at   1.790694 -0.270716  3.463134
      ESP Fit Center  654 is at   1.097563 -1.053100  2.466240
      ESP Fit Center  655 is at  -2.739966  2.269311  3.880893
      ESP Fit Center  656 is at  -2.398436  3.570019  1.850467
      ESP Fit Center  657 is at  -1.459201  3.450655  4.688687
      ESP Fit Center  658 is at  -1.939201  2.619271  4.688687
      ESP Fit Center  659 is at   0.366007  3.596622  3.985918
      ESP Fit Center  660 is at  -0.465377  4.200658  3.985918
      ESP Fit Center  661 is at  -1.493025  4.200658  3.985918
      ESP Fit Center  662 is at  -2.324409  3.596622  3.985918
      ESP Fit Center  663 is at  -2.641970  2.619271  3.985918
      ESP Fit Center  664 is at   0.683568  3.579271  3.025918
      ESP Fit Center  665 is at  -0.019201  4.282040  3.025918
      ESP Fit Center  666 is at  -0.979201  4.539271  3.025918
      ESP Fit Center  667 is at  -1.939201  4.282040  3.025918
      ESP Fit Center  668 is at  -2.641970  3.579271  3.025918
      ESP Fit Center  669 is at  -3.301371  2.357972  3.205636
      ESP Fit Center  670 is at  -3.618932  1.380621  3.205636
      ESP Fit Center  671 is at  -3.301371  0.403270  3.205636
      ESP Fit Center  672 is at  -3.618932  2.340621  2.245636
      ESP Fit Center  673 is at  -3.876163  1.380621  2.245636
      ESP Fit Center  674 is at  -3.618932  0.420621  2.245636
      ESP Fit Center  675 is at  -2.916163 -0.282148  2.245636
      ESP Fit Center  676 is at  -1.956163 -0.539379  2.245636
      ESP Fit Center  677 is at  -3.301371  2.357972  1.285636
      ESP Fit Center  678 is at  -3.618932  1.380621  1.285636
      ESP Fit Center  679 is at  -3.301371  0.403270  1.285636
      ESP Fit Center  680 is at  -2.469987 -0.200766  1.285636
      ESP Fit Center  681 is at  -2.916163  1.380621  0.582867
      ESP Fit Center  682 is at   0.425378  3.856183  2.542138
      ESP Fit Center  683 is at  -2.693932  2.149354  0.511712
      ESP Fit Center  684 is at   0.166555  3.051164 -1.116563
      ESP Fit Center  685 is at   1.668595  2.332177  2.821916
      ESP Fit Center  686 is at   1.188595  3.163561  2.821916
      ESP Fit Center  687 is at   2.371364  2.332177  2.119147
      ESP Fit Center  688 is at   2.053803  3.309528  2.119147
      ESP Fit Center  689 is at   1.222419  3.913564  2.119147
      ESP Fit Center  690 is at   2.371364  3.292177  1.159147
      ESP Fit Center  691 is at   1.668595  3.994946  1.159147
      ESP Fit Center  692 is at   1.222419  3.913564  0.199147
      ESP Fit Center  693 is at  -0.302887  4.660933  1.700335
      ESP Fit Center  694 is at  -1.330535  4.660933  1.700335
      ESP Fit Center  695 is at  -2.161919  4.056897  1.700335
      ESP Fit Center  696 is at   0.143289  4.742315  0.740335
      ESP Fit Center  697 is at  -0.816711  4.999546  0.740335
      ESP Fit Center  698 is at  -1.776711  4.742315  0.740335
      ESP Fit Center  699 is at  -2.479480  4.039546  0.740335
      ESP Fit Center  700 is at  -2.736711  3.079546  0.740335
      ESP Fit Center  701 is at   0.528497  4.056897 -0.219665
      ESP Fit Center  702 is at  -0.302887  4.660933 -0.219665
      ESP Fit Center  703 is at  -1.330535  4.660933 -0.219665
      ESP Fit Center  704 is at  -2.161919  4.056897 -0.219665
      ESP Fit Center  705 is at  -2.479480  3.079546 -0.219665
      ESP Fit Center  706 is at  -0.336711  3.910930 -0.922434
      ESP Fit Center  707 is at  -1.296711  3.910930 -0.922434
      ESP Fit Center  708 is at  -1.776711  3.079546 -0.922434
      ESP Fit Center  709 is at  -2.733525  1.779348  0.498447
      ESP Fit Center  710 is at  -2.733525  0.734094  0.498447
      ESP Fit Center  711 is at  -2.247772  2.704874 -0.498447
      ESP Fit Center  712 is at  -2.733525  1.779348 -0.498447
      ESP Fit Center  713 is at  -2.733525  0.734094 -0.498447
      ESP Fit Center  714 is at  -0.071963  2.922309 -1.396617
      ESP Fit Center  715 is at  -1.154327  2.922309 -1.396617
      ESP Fit Center  716 is at  -2.029979  2.286111 -1.396617
      ESP Fit Center  717 is at  -2.364448  1.256721 -1.396617
      ESP Fit Center  718 is at  -2.286320 -0.487580 -0.894133
      ESP Fit Center  719 is at  -2.029089 -1.447580 -0.894133
      ESP Fit Center  720 is at  -1.326320 -2.150349 -0.894133
      ESP Fit Center  721 is at  -0.366320 -2.407580 -0.894133
      ESP Fit Center  722 is at  -2.029089 -0.487580 -1.854133
      ESP Fit Center  723 is at  -1.711528 -1.464931 -1.854133
      ESP Fit Center  724 is at  -0.880144 -2.068967 -1.854133
      ESP Fit Center  725 is at   0.147504 -2.068967 -1.854133
      ESP Fit Center  726 is at  -1.326320 -0.487580 -2.556902
      ESP Fit Center  727 is at  -0.846320 -1.318964 -2.556902
      ESP Fit Center  728 is at  -0.805407 -1.420923  2.512194
      ESP Fit Center  729 is at  -1.988176 -0.589539  1.809425
      ESP Fit Center  730 is at  -1.670615 -1.566890  1.809425
      ESP Fit Center  731 is at  -0.839231 -2.170926  1.809425
      ESP Fit Center  732 is at   0.188417 -2.170926  1.809425
      ESP Fit Center  733 is at   1.019801 -1.566890  1.809425
      ESP Fit Center  734 is at  -2.245407 -0.589539  0.849425
      ESP Fit Center  735 is at  -1.988176 -1.549539  0.849425
      ESP Fit Center  736 is at  -1.285407 -2.252308  0.849425
      ESP Fit Center  737 is at  -0.325407 -2.509539  0.849425
      ESP Fit Center  738 is at   0.634593 -2.252308  0.849425
      ESP Fit Center  739 is at   1.260428 -1.857297  1.496376
      ESP Fit Center  740 is at   1.376785 -1.856848  1.533892
      ESP Fit Center  741 is at   2.336785 -1.856848  1.533892
      ESP Fit Center  742 is at   1.342961 -2.606851  0.831123
      ESP Fit Center  743 is at   2.370609 -2.606851  0.831123
      ESP Fit Center  744 is at   3.201993 -2.002815  0.831123
      ESP Fit Center  745 is at   0.896785 -2.688233 -0.128877
      ESP Fit Center  746 is at   1.856785 -2.945464 -0.128877
      ESP Fit Center  747 is at   2.816785 -2.688233 -0.128877
      ESP Fit Center  748 is at   3.519554 -1.985464 -0.128877
      ESP Fit Center  749 is at   1.342961 -2.606851 -1.088877
      ESP Fit Center  750 is at   2.370609 -2.606851 -1.088877
      ESP Fit Center  751 is at   3.201993 -2.002815 -1.088877
      ESP Fit Center  752 is at   2.866966  0.330946  2.620731
      ESP Fit Center  753 is at   2.386966  1.162330  2.620731
      ESP Fit Center  754 is at   2.386966 -0.500438  2.620731
      ESP Fit Center  755 is at   3.569735  0.330946  1.917962
      ESP Fit Center  756 is at   3.252174  1.308297  1.917962
      ESP Fit Center  757 is at   2.420790 -1.250441  1.917962
      ESP Fit Center  758 is at   3.252174 -0.646405  1.917962
      ESP Fit Center  759 is at   2.906813  1.982080  1.368104
      ESP Fit Center  760 is at   4.350955  1.054122  0.761140
      ESP Fit Center  761 is at   4.085699  2.044071  0.761140
      ESP Fit Center  762 is at   3.361005  2.768765  0.761140
      ESP Fit Center  763 is at   4.085699  0.064173  0.761140
      ESP Fit Center  764 is at   4.957919  1.054122 -0.147245
      ESP Fit Center  765 is at   4.734273  2.106294 -0.147245
      ESP Fit Center  766 is at   4.102005  2.976536 -0.147245
      ESP Fit Center  767 is at   3.170441  3.514375 -0.147245
      ESP Fit Center  768 is at   2.100655  3.626814 -0.147245
      ESP Fit Center  769 is at   4.102005 -0.868292 -0.147245
      ESP Fit Center  770 is at   4.734273  0.001950 -0.147245
      ESP Fit Center  771 is at   5.171056  1.054122 -1.218759
      ESP Fit Center  772 is at   4.981978  2.065599 -1.218759
      ESP Fit Center  773 is at   4.440281  2.940470 -1.218759
      ESP Fit Center  774 is at   3.619123  3.560579 -1.218759
      ESP Fit Center  775 is at   2.629407  3.842178 -1.218759
      ESP Fit Center  776 is at   1.604800  3.747234 -1.218759
      ESP Fit Center  777 is at   0.683679  3.288570 -1.218759
      ESP Fit Center  778 is at   3.619123 -1.452335 -1.218759
      ESP Fit Center  779 is at   4.440281 -0.832226 -1.218759
      ESP Fit Center  780 is at   4.981978  0.042645 -1.218759
      ESP Fit Center  781 is at   4.957919  1.054122 -2.290273
      ESP Fit Center  782 is at   4.734273  2.106294 -2.290273
      ESP Fit Center  783 is at   4.102005  2.976536 -2.290273
      ESP Fit Center  784 is at   3.170441  3.514375 -2.290273
      ESP Fit Center  785 is at   2.100655  3.626814 -2.290273
      ESP Fit Center  786 is at   3.170441 -1.406131 -2.290273
      ESP Fit Center  787 is at   4.102005 -0.868292 -2.290273
      ESP Fit Center  788 is at   4.734273  0.001950 -2.290273
      ESP Fit Center  789 is at   4.350955  1.054122 -3.198658
      ESP Fit Center  790 is at   4.085699  2.044071 -3.198658
      ESP Fit Center  791 is at   3.361005  2.768765 -3.198658
      ESP Fit Center  792 is at   3.152361 -1.354623 -3.342726
      ESP Fit Center  793 is at   4.434279  0.513593 -3.512771
      ESP Fit Center  794 is at   4.177048  1.473593 -3.512771
      ESP Fit Center  795 is at   3.474279 -1.149176 -3.512771
      ESP Fit Center  796 is at   4.177048 -0.446407 -3.512771
      ESP Fit Center  797 is at   4.177048  0.513593 -4.472771
      ESP Fit Center  798 is at   3.859487  1.490944 -4.472771
      ESP Fit Center  799 is at   3.028103  2.094980 -4.472771
      ESP Fit Center  800 is at   3.028103 -1.067794 -4.472771
      ESP Fit Center  801 is at   3.859487 -0.463758 -4.472771
      ESP Fit Center  802 is at   0.893008 -2.146238 -1.755817
      ESP Fit Center  803 is at   1.920656 -2.146238 -1.755817
      ESP Fit Center  804 is at  -0.255937 -1.524851 -2.715817
      ESP Fit Center  805 is at   0.446832 -2.227620 -2.715817
      ESP Fit Center  806 is at   1.406832 -2.484851 -2.715817
      ESP Fit Center  807 is at   2.366832 -2.227620 -2.715817
      ESP Fit Center  808 is at   3.069601 -1.524851 -2.715817
      ESP Fit Center  809 is at   0.893008 -2.146238 -3.675817
      ESP Fit Center  810 is at   1.920656 -2.146238 -3.675817
      ESP Fit Center  811 is at   2.752040 -1.542202 -3.675817
      ESP Fit Center  812 is at   1.886832 -1.396235 -4.378586
      ESP Fit Center  813 is at  -0.938099  3.148717 -2.771435
      ESP Fit Center  814 is at   0.346871  3.181187 -1.766470
      ESP Fit Center  815 is at   1.340695  3.931190 -2.469239
      ESP Fit Center  816 is at   0.313047  3.931190 -2.469239
      ESP Fit Center  817 is at  -0.518337  3.327154 -2.469239
      ESP Fit Center  818 is at   2.489640  3.309803 -3.429239
      ESP Fit Center  819 is at   1.786871  4.012572 -3.429239
      ESP Fit Center  820 is at   0.826871  4.269803 -3.429239
      ESP Fit Center  821 is at  -0.133129  4.012572 -3.429239
      ESP Fit Center  822 is at  -0.835898  3.309803 -3.429239
      ESP Fit Center  823 is at   2.489640  2.349803 -4.389239
      ESP Fit Center  824 is at  -0.794170  2.901761 -1.620769
      ESP Fit Center  825 is at  -1.240346  2.983143 -2.580769
      ESP Fit Center  826 is at  -1.943115  2.280374 -2.580769
      ESP Fit Center  827 is at  -2.200346  1.320374 -2.580769
      ESP Fit Center  828 is at  -1.943115  0.360374 -2.580769
      ESP Fit Center  829 is at  -2.198278  0.701460 -2.871420
      ESP Fit Center  830 is at  -1.933022 -0.288489 -2.871420
      ESP Fit Center  831 is at  -1.208328 -1.013183 -2.871420
      ESP Fit Center  832 is at  -1.511810  2.941749 -3.779805
      ESP Fit Center  833 is at  -2.311195  2.221980 -3.779805
      ESP Fit Center  834 is at  -2.748713  1.239299 -3.779805
      ESP Fit Center  835 is at  -2.748713  0.163621 -3.779805
      ESP Fit Center  836 is at  -2.311195 -0.819060 -3.779805
      ESP Fit Center  837 is at  -1.511810 -1.538829 -3.779805
      ESP Fit Center  838 is at  -0.488780 -1.871232 -3.779805
      ESP Fit Center  839 is at  -0.984635  3.394572 -4.851319
      ESP Fit Center  840 is at  -1.905756  2.935908 -4.851319
      ESP Fit Center  841 is at  -2.598987  2.175470 -4.851319
      ESP Fit Center  842 is at  -2.970704  1.215959 -4.851319
      ESP Fit Center  843 is at  -2.970704  0.186961 -4.851319
      ESP Fit Center  844 is at  -2.598987 -0.772550 -4.851319
      ESP Fit Center  845 is at  -1.905756 -1.532988 -4.851319
      ESP Fit Center  846 is at  -0.984635 -1.991652 -4.851319
      ESP Fit Center  847 is at   0.039972 -2.086596 -4.851319
      ESP Fit Center  848 is at   1.029688 -1.804997 -4.851319
      ESP Fit Center  849 is at   1.850846 -1.184888 -4.851319
      ESP Fit Center  850 is at  -2.311195  2.221980 -5.922833
      ESP Fit Center  851 is at  -2.748713  1.239299 -5.922833
      ESP Fit Center  852 is at  -2.748713  0.163621 -5.922833
      ESP Fit Center  853 is at  -2.311195 -0.819060 -5.922833
      ESP Fit Center  854 is at  -1.511810 -1.538829 -5.922833
      ESP Fit Center  855 is at  -0.488780 -1.871232 -5.922833
      ESP Fit Center  856 is at   0.581006 -1.758793 -5.922833
      ESP Fit Center  857 is at   1.512570 -1.220954 -5.922833
      ESP Fit Center  858 is at  -1.933022  1.691409 -6.831218
      ESP Fit Center  859 is at  -2.198278  0.701460 -6.831218
      ESP Fit Center  860 is at  -1.933022 -0.288489 -6.831218
      ESP Fit Center  861 is at  -1.208328 -1.013183 -6.831218
      ESP Fit Center  862 is at  -0.218379 -1.278439 -6.831218
      ESP Fit Center  863 is at  -1.289893  0.701460 -7.438182
      ESP Fit Center  864 is at   2.555194  0.216495 -7.615776
      ESP Fit Center  865 is at   0.745953 -1.296626 -6.985005
      ESP Fit Center  866 is at   1.705953 -1.039395 -6.985005
      ESP Fit Center  867 is at  -0.916816  0.623374 -7.945005
      ESP Fit Center  868 is at  -0.599255 -0.353977 -7.945005
      ESP Fit Center  869 is at   0.232129 -0.958013 -7.945005
      ESP Fit Center  870 is at   1.259777 -0.958013 -7.945005
      ESP Fit Center  871 is at   2.091161 -0.353977 -7.945005
      ESP Fit Center  872 is at   0.265953 -0.208010 -8.647774
      ESP Fit Center  873 is at   3.328120  1.953673 -4.855020
      ESP Fit Center  874 is at   3.902912  0.976322 -5.815020
      ESP Fit Center  875 is at   3.645681  1.936322 -5.815020
      ESP Fit Center  876 is at   1.982912 -0.943678 -5.815020
      ESP Fit Center  877 is at   2.942912 -0.686447 -5.815020
      ESP Fit Center  878 is at   3.645681  0.016322 -5.815020
      ESP Fit Center  879 is at   3.645681  0.976322 -6.775020
      ESP Fit Center  880 is at   2.496736 -0.605065 -6.775020
      ESP Fit Center  881 is at   3.328120 -0.001029 -6.775020
      ESP Fit Center  882 is at  -0.637766  4.551634 -5.810443
      ESP Fit Center  883 is at  -1.469150  3.947598 -5.810443
      ESP Fit Center  884 is at  -1.786711  2.970247 -5.810443
      ESP Fit Center  885 is at  -0.123942  4.890247 -6.770443
      ESP Fit Center  886 is at  -1.083942  4.633016 -6.770443
      ESP Fit Center  887 is at  -1.786711  3.930247 -6.770443
      ESP Fit Center  888 is at  -2.043942  2.970247 -6.770443
      ESP Fit Center  889 is at  -1.786711  2.010247 -6.770443
      ESP Fit Center  890 is at  -1.469150  1.992896 -7.730443
      ESP Fit Center  891 is at   1.593631  4.153947 -3.938678
      ESP Fit Center  892 is at   2.776400  3.322563 -4.641447
      ESP Fit Center  893 is at   2.458839  4.299914 -4.641447
      ESP Fit Center  894 is at   1.627455  4.903950 -4.641447
      ESP Fit Center  895 is at   0.599807  4.903950 -4.641447
      ESP Fit Center  896 is at  -0.231577  4.299914 -4.641447
      ESP Fit Center  897 is at   1.113631  5.242563 -5.601447
      ESP Fit Center  898 is at   0.153631  4.985332 -5.601447
      ESP Fit Center  899 is at   3.145620  3.248532 -5.147949
      ESP Fit Center  900 is at   4.054005  3.248532 -5.754913
      ESP Fit Center  901 is at   3.788749  4.238481 -5.754913
      ESP Fit Center  902 is at   3.064055  4.963175 -5.754913
      ESP Fit Center  903 is at   2.074106  5.228431 -5.754913
      ESP Fit Center  904 is at   3.788749  2.258583 -5.754913
      ESP Fit Center  905 is at   4.660969  3.248532 -6.663298
      ESP Fit Center  906 is at   4.437323  4.300704 -6.663298
      ESP Fit Center  907 is at   3.805055  5.170946 -6.663298
      ESP Fit Center  908 is at   2.873491  5.708785 -6.663298
      ESP Fit Center  909 is at   1.803705  5.821224 -6.663298
      ESP Fit Center  910 is at   0.780675  5.488821 -6.663298
      ESP Fit Center  911 is at   3.805055  1.326118 -6.663298
      ESP Fit Center  912 is at   4.437323  2.196360 -6.663298
      ESP Fit Center  913 is at   4.874106  3.248532 -7.734812
      ESP Fit Center  914 is at   4.685028  4.260009 -7.734812
      ESP Fit Center  915 is at   4.143331  5.134880 -7.734812
      ESP Fit Center  916 is at   3.322173  5.754989 -7.734812
      ESP Fit Center  917 is at   2.332457  6.036588 -7.734812
      ESP Fit Center  918 is at   1.307850  5.941644 -7.734812
      ESP Fit Center  919 is at   0.386729  5.482980 -7.734812
      ESP Fit Center  920 is at  -0.306502  4.722542 -7.734812
      ESP Fit Center  921 is at   3.322173  0.742075 -7.734812
      ESP Fit Center  922 is at   4.143331  1.362184 -7.734812
      ESP Fit Center  923 is at   4.685028  2.237055 -7.734812
      ESP Fit Center  924 is at   4.660969  3.248532 -8.806326
      ESP Fit Center  925 is at   4.437323  4.300704 -8.806326
      ESP Fit Center  926 is at   3.805055  5.170946 -8.806326
      ESP Fit Center  927 is at   2.873491  5.708785 -8.806326
      ESP Fit Center  928 is at   1.803705  5.821224 -8.806326
      ESP Fit Center  929 is at   3.805055  1.326118 -8.806326
      ESP Fit Center  930 is at   4.437323  2.196360 -8.806326
      ESP Fit Center  931 is at   4.054005  3.248532 -9.714711
      ESP Fit Center  932 is at   3.788749  4.238481 -9.714711
      ESP Fit Center  933 is at   3.064055  4.963175 -9.714711
      ESP Fit Center  934 is at   2.074106  5.228431 -9.714711
      ESP Fit Center  935 is at   2.816508  0.763368 -9.808817
      ESP Fit Center  936 is at   2.137133  0.885889-10.771143
      ESP Fit Center  937 is at   4.073421  2.693838-10.003207
      ESP Fit Center  938 is at   3.816190  3.653838-10.003207
      ESP Fit Center  939 is at   3.113421  1.031069-10.003207
      ESP Fit Center  940 is at   3.816190  1.733838-10.003207
      ESP Fit Center  941 is at   3.816190  2.693838-10.963207
      ESP Fit Center  942 is at   3.498629  3.671189-10.963207
      ESP Fit Center  943 is at   2.667245  4.275225-10.963207
      ESP Fit Center  944 is at   2.667245  1.112451-10.963207
      ESP Fit Center  945 is at   3.498629  1.716487-10.963207
      ESP Fit Center  946 is at   3.113421  2.693838-11.665976
      ESP Fit Center  947 is at   2.633421  3.525222-11.665976
      ESP Fit Center  948 is at   1.673421  3.525222-11.665976
      ESP Fit Center  949 is at   1.673421  1.862454-11.665976
      ESP Fit Center  950 is at   2.633421  1.862454-11.665976
      ESP Fit Center  951 is at   2.153421  2.693838-11.923207
      ESP Fit Center  952 is at  -0.492558  0.571484 -9.165333
      ESP Fit Center  953 is at   0.210211 -0.131285 -9.165333
      ESP Fit Center  954 is at   1.170211 -0.388516 -9.165333
      ESP Fit Center  955 is at   2.130211 -0.131285 -9.165333
      ESP Fit Center  956 is at   2.832980  0.571484 -9.165333
      ESP Fit Center  957 is at  -0.174997  0.554133-10.125333
      ESP Fit Center  958 is at   0.656387 -0.049903-10.125333
      ESP Fit Center  959 is at   1.684035 -0.049903-10.125333
      ESP Fit Center  960 is at   2.515419  0.554133-10.125333
      ESP Fit Center  961 is at   0.690211  0.700100-10.828102
      ESP Fit Center  962 is at   1.650211  0.700100-10.828102
      ESP Fit Center  963 is at  -1.351234  5.148277 -9.228730
      ESP Fit Center  964 is at  -2.000487  4.334140-10.296830
      ESP Fit Center  965 is at  -2.232203  3.318927-10.296830
      ESP Fit Center  966 is at  -2.000487  2.303714-10.296830
      ESP Fit Center  967 is at   1.686148  4.333383-11.259156
      ESP Fit Center  968 is at  -1.121154  4.737012-11.259156
      ESP Fit Center  969 is at   0.628284  4.220737-11.925105
      ESP Fit Center  970 is at  -0.173566  5.205307 -8.247714
      ESP Fit Center  971 is at   0.820258  5.955310 -8.950483
      ESP Fit Center  972 is at  -0.207390  5.955310 -8.950483
      ESP Fit Center  973 is at  -1.038774  5.351274 -8.950483
      ESP Fit Center  974 is at   1.969203  5.333923 -9.910483
      ESP Fit Center  975 is at   1.266434  6.036692 -9.910483
      ESP Fit Center  976 is at   0.306434  6.293923 -9.910483
      ESP Fit Center  977 is at  -0.653566  6.036692 -9.910483
      ESP Fit Center  978 is at  -1.356335  5.333923 -9.910483
      ESP Fit Center  979 is at   1.651642  5.351274-10.870483
      ESP Fit Center  980 is at   0.820258  5.955310-10.870483
      ESP Fit Center  981 is at  -0.207390  5.955310-10.870483
      ESP Fit Center  982 is at  -1.038774  5.351274-10.870483
      ESP Fit Center  983 is at   0.786434  5.205307-11.573252
      ESP Fit Center  984 is at  -0.173566  5.205307-11.573252
      ESP Fit Center  985 is at  -2.141068  2.896511-10.708230
      ESP Fit Center  986 is at  -1.883837  1.936511-10.708230
      ESP Fit Center  987 is at  -1.181068  1.233742-10.708230
      ESP Fit Center  988 is at  -0.221068  0.976511-10.708230
      ESP Fit Center  989 is at  -1.566276  3.873862-11.668230
      ESP Fit Center  990 is at  -1.883837  2.896511-11.668230
      ESP Fit Center  991 is at  -1.566276  1.919160-11.668230
      ESP Fit Center  992 is at  -0.734892  1.315124-11.668230
      ESP Fit Center  993 is at   0.292756  1.315124-11.668230
      ESP Fit Center  994 is at   1.124140  1.919160-11.668230
      ESP Fit Center  995 is at   0.738932  2.896511-12.370999
      ESP Fit Center  996 is at   0.258932  3.727895-12.370999
      ESP Fit Center  997 is at  -0.701068  3.727895-12.370999
      ESP Fit Center  998 is at  -1.181068  2.896511-12.370999
      ESP Fit Center  999 is at  -0.701068  2.065127-12.370999
      ESP Fit Center 1000 is at   0.258932  2.065127-12.370999
      ESP Fit Center 1001 is at  -0.221068  2.896511-12.628230
      ESP Fit Center 1002 is at  -1.226809  4.808153 -8.100096
      ESP Fit Center 1003 is at  -2.058193  4.204117 -8.100096
      ESP Fit Center 1004 is at  -2.375754  3.226766 -8.100096
      ESP Fit Center 1005 is at  -2.058193  2.249415 -8.100096
      ESP Fit Center 1006 is at  -1.226809  1.645379 -8.100096
      ESP Fit Center 1007 is at  -1.672985  4.889535 -9.060096
      ESP Fit Center 1008 is at  -2.375754  4.186766 -9.060096
      ESP Fit Center 1009 is at  -2.632985  3.226766 -9.060096
      ESP Fit Center 1010 is at  -2.375754  2.266766 -9.060096
      ESP Fit Center 1011 is at  -1.672985  1.563997 -9.060096
      ESP Fit Center 1012 is at  -2.375754  3.226766-10.020096
      ESP Fit Center 1013 is at  -2.058193  2.249415-10.020096
      ESP Fit Center 1014 is at  -1.424251  3.826814 10.045822
      ESP Fit Center 1015 is at  -1.424251  0.941078 10.045822
      ESP Fit Center 1016 is at   0.381074  4.815879  9.169879
      ESP Fit Center 1017 is at  -0.729072  4.815879  9.169879
      ESP Fit Center 1018 is at  -1.729279  4.334205  9.169879
      ESP Fit Center 1019 is at   2.320476  3.417191  8.136634
      ESP Fit Center 1020 is at  -1.207244  4.878421  8.136634
      ESP Fit Center 1021 is at  -1.729279  4.334205  7.103389
      ESP Fit Center 1022 is at  -2.005852  2.921827  6.227446
      ESP Fit Center 1023 is at   0.269853  2.639674 11.254115
      ESP Fit Center 1024 is at   1.349853  2.639674 10.964730
      ESP Fit Center 1025 is at   0.809853  3.574981 10.964730
      ESP Fit Center 1026 is at  -0.270147  3.574981 10.964730
      ESP Fit Center 1027 is at  -0.810147  2.639674 10.964730
      ESP Fit Center 1028 is at  -0.270147  1.704367 10.964730
      ESP Fit Center 1029 is at   0.809853  1.704367 10.964730
      ESP Fit Center 1030 is at   2.140468  2.639674 10.174115
      ESP Fit Center 1031 is at   1.843514  3.651005 10.174115
      ESP Fit Center 1032 is at   1.046935  4.341245 10.174115
      ESP Fit Center 1033 is at   0.003637  4.491249 10.174115
      ESP Fit Center 1034 is at  -0.955139  4.053390 10.174115
      ESP Fit Center 1035 is at   1.843514  1.628343 10.174115
      ESP Fit Center 1036 is at   2.429853  2.639674  9.094115
      ESP Fit Center 1037 is at   2.182438  3.643476  9.094115
      ESP Fit Center 1038 is at   1.496873  4.417319  9.094115
      ESP Fit Center 1039 is at   0.903602  4.843790  8.501451
      ESP Fit Center 1040 is at   2.039105  4.146021  7.421451
      ESP Fit Center 1041 is at   1.353540  4.919864  7.421451
      ESP Fit Center 1042 is at   0.386879  5.286470  7.421451
      ESP Fit Center 1043 is at  -0.639427  5.161854  7.421451
      ESP Fit Center 1044 is at   1.997135  3.142219  6.341451
      ESP Fit Center 1045 is at   1.700181  4.153550  6.341451
      ESP Fit Center 1046 is at   0.903602  4.843790  6.341451
      ESP Fit Center 1047 is at  -0.139696  4.993794  6.341451
      ESP Fit Center 1048 is at  -1.098472  4.555935  6.341451
[...]
 1285 Fit      -0.014077
 1286 Fit       0.003915
 1287 Fit      -0.007214
 1288 Fit      -0.015170
 1289 Fit      -0.019098
 1290 Fit      -0.012621
 1291 Fit      -0.011419
 1292 Fit      -0.009610
 1293 Fit      -0.007650
 1294 Fit      -0.004301
 1295 Fit      -0.008023
 1296 Fit      -0.011804
 1297 Fit      -0.000700
 1298 Fit       0.001939
 1299 Fit      -0.002675
 1300 Fit      -0.003491
 1301 Fit      -0.000162
 1302 Fit      -0.002359
 1303 Fit       0.003463
 1304 Fit       0.003958
 1305 Fit       0.008529
 1306 Fit       0.002942
 1307 Fit       0.003669
 1308 Fit       0.013432
 1309 Fit       0.003307
 1310 Fit       0.005419
 1311 Fit       0.006113
 1312 Fit       0.004186
 1313 Fit      -0.002274
 1314 Fit       0.000971
 1315 Fit      -0.009422
 1316 Fit      -0.007240
 1317 Fit      -0.004643
 1318 Fit      -0.006793
 1319 Fit       0.002655
 1320 Fit       0.003399
 1321 Fit       0.003901
 1322 Fit       0.001456
 1323 Fit      -0.003940
 1324 Fit      -0.011477
 1325 Fit      -0.012714
 1326 Fit      -0.003995
 1327 Fit      -0.013507
 1328 Fit      -0.014844
 1329 Fit      -0.013623
 1330 Fit      -0.011571
 1331 Fit      -0.010003
 1332 Fit      -0.008564
 1333 Fit      -0.004963
 1334 Fit      -0.003777
 1335 Fit      -0.012851
 1336 Fit      -0.017666
 1337 Fit      -0.018869
 1338 Fit      -0.017747
 1339 Fit      -0.016178
 1340 Fit      -0.015512
 1341 Fit      -0.015746
 1342 Fit      -0.015506
 1343 Fit      -0.012931
 1344 Fit      -0.010546
 1345 Fit      -0.016857
 1346 Fit      -0.019075
 1347 Fit      -0.018446
 1348 Fit      -0.017064
 1349 Fit      -0.016444
 1350 Fit      -0.016728
 1351 Fit      -0.016735
 1352 Fit      -0.014830
 1353 Fit      -0.010087
 1354 Fit      -0.002361
 1355 Fit      -0.013183
 1356 Fit      -0.014099
 1357 Fit      -0.013220
 1358 Fit      -0.012488
 1359 Fit      -0.012024
 1360 Fit      -0.010552
 1361 Fit      -0.006798
 1362 Fit      -0.000763
 1363 Fit      -0.005104
 1364 Fit      -0.004948
 1365 Fit      -0.003326
 1366 Fit       0.000150
 1367 Fit       0.006897
 1368 Fit      -0.001303
 1369 Fit       0.002517
 1370 Fit       0.000034
 1371 Fit       0.002273
 1372 Fit       0.011597
 1373 Fit       0.008031
 1374 Fit       0.007115
 1375 Fit       0.007067
 1376 Fit       0.006936
 1377 Fit       0.004926
 1378 Fit       0.006635
 1379 Fit      -0.001104
 1380 Fit      -0.000364
 1381 Fit       0.003639
 1382 Fit       0.003219
 1383 Fit       0.002053
 1384 Fit      -0.001325
 1385 Fit      -0.000626
 1386 Fit      -0.004531
 1387 Fit      -0.001689
 1388 Fit      -0.007192
 1389 Fit      -0.000839
 1390 Fit       0.001846
 1391 Fit       0.000760
 1392 Fit      -0.004066
 1393 Fit       0.005685
 1394 Fit       0.002913
 1395 Fit       0.002512
 1396 Fit       0.002688
 1397 Fit       0.001863
 1398 Fit      -0.002595
 1399 Fit      -0.004423
 1400 Fit      -0.001917
 1401 Fit       0.003817
 1402 Fit      -0.007958
 1403 Fit      -0.008157
 1404 Fit      -0.006574
 1405 Fit      -0.003119
 1406 Fit      -0.002402
 1407 Fit      -0.015937
 1408 Fit      -0.015418
 1409 Fit      -0.014903
 1410 Fit      -0.014657
 1411 Fit      -0.013433
 1412 Fit      -0.009882
 1413 Fit      -0.014294
 1414 Fit      -0.018953
 1415 Fit      -0.018189
 1416 Fit      -0.018153
 1417 Fit      -0.019045
 1418 Fit      -0.019681
 1419 Fit      -0.018341
 1420 Fit      -0.013934
 1421 Fit      -0.006328
 1422 Fit      -0.008301
 1423 Fit      -0.015673
 1424 Fit      -0.018837
 1425 Fit      -0.016486
 1426 Fit      -0.016118
 1427 Fit      -0.016765
 1428 Fit      -0.018379
 1429 Fit      -0.019519
 1430 Fit      -0.018211
 1431 Fit      -0.013500
 1432 Fit      -0.008581
 1433 Fit      -0.014362
 1434 Fit      -0.016538
 1435 Fit      -0.009349
 1436 Fit      -0.010007
 1437 Fit      -0.011559
 1438 Fit      -0.013286
 1439 Fit      -0.012782
 1440 Fit      -0.006198
 1441 Fit      -0.008631
 1442 Fit      -0.001489
 1443 Fit      -0.003751
 1444 Fit      -0.001547
 1445 Fit       0.004241
 1446 Fit       0.008589
 1447 Fit       0.007018
 1448 Fit      -0.000925
 1449 Fit       0.001758
 1450 Fit      -0.000339
 1451 Fit       0.004780
 1452 Fit       0.004448
 1453 Fit       0.004079
 1454 Fit       0.005796
 1455 Fit       0.005056
 1456 Fit       0.007188
 1457 Fit       0.006877
 1458 Fit       0.008766
 1459 Fit       0.007485
 1460 Fit       0.008104
 1461 Fit       0.011758
 1462 Fit       0.011954
 1463 Fit       0.009876
 1464 Fit       0.005668
 1465 Fit       0.009853
 1466 Fit       0.009170
 1467 Fit       0.007114
 1468 Fit       0.009204
 1469 Fit      -0.000832
 1470 Fit       0.000129
 1471 Fit       0.005030
 1472 Fit       0.008864
 1473 Fit       0.001096
 1474 Fit       0.002235
 1475 Fit       0.004768
 1476 Fit       0.001490
 1477 Fit       0.003377
 1478 Fit      -0.012685
 1479 Fit      -0.005374
 1480 Fit      -0.002370
 1481 Fit      -0.004271
 1482 Fit      -0.001488
 1483 Fit      -0.000070
 1484 Fit       0.000148
 1485 Fit       0.001301
 1486 Fit       0.001166
 1487 Fit       0.001659
 1488 Fit       0.001387
 1489 Fit       0.002429
 1490 Fit       0.001919
 1491 Fit       0.003306
 1492 Fit       0.004941
 1493 Fit       0.007370
 1494 Fit       0.002148
 1495 Fit       0.003439
 1496 Fit       0.004912
 1497 Fit       0.006418
 1498 Fit       0.007839
 1499 Fit       0.008775
 1500 Fit       0.006644
 1501 Fit       0.004258
 1502 Fit       0.004020
 1503 Fit       0.005516
 1504 Fit       0.007052
 1505 Fit       0.007641
 1506 Fit       0.006121
 1507 Fit      -0.001787
 1508 Fit       0.002313
 1509 Fit       0.003962
 1510 Fit       0.004280
 1511 Fit       0.005596
 1512 Fit       0.001532
 1513 Fit       0.002944
 1514 Fit       0.003622
 1515 Fit       0.004467
 1516 Fit       0.007464
 1517 Fit       0.002787
 1518 Fit       0.004495
 1519 Fit       0.006061
 1520 Fit       0.004799
 1521 Fit       0.004094
 1522 Fit       0.008477
 1523 Fit       0.007080
 1524 Fit       0.006204
 1525 Fit       0.005366
 1526 Fit       0.004543
 1527 Fit       0.004278
 1528 Fit       0.009296
 1529 Fit       0.005026
 1530 Fit       0.005933
 1531 Fit       0.007765
 1532 Fit       0.008769
 1533 Fit       0.007783
 1534 Fit       0.006608
 1535 Fit       0.006237
 1536 Fit       0.007627
 1537 Fit       0.008968
 1538 Fit       0.009254
 1539 Fit       0.008238
 1540 Fit       0.007194
 1541 Fit       0.006090
 1542 Fit       0.005094
 1543 Fit       0.010206
 1544 Fit       0.009632
 1545 Fit       0.008163
 1546 Fit       0.007050
 1547 Fit       0.006054
 1548 Fit       0.007205
 1549 Fit       0.006661
 1550 Fit       0.005901
 1551 Fit       0.010938
 1552 Fit       0.009337
 1553 Fit       0.008842
 1554 Fit       0.008509
 1555 Fit       0.007922
 1556 Fit       0.006994
 1557 Fit       0.011084
 1558 Fit       0.010965
 1559 Fit       0.010871
 1560 Fit       0.010512
 1561 Fit       0.004416
 1562 Fit       0.004375
 1563 Fit       0.004498
 1564 Fit       0.003907
 1565 Fit       0.003429
 1566 Fit       0.004595
 1567 Fit       0.004680
 1568 Fit       0.003843
 1569 Fit       0.001817
 1570 Fit      -0.000847
 1571 Fit       0.004909
 1572 Fit       0.004526
 1573 Fit       0.002811
 1574 Fit      -0.001400
 1575 Fit       0.005519
 1576 Fit       0.003622
 1577 Fit      -0.001803
 1578 Fit       0.010890
 1579 Fit       0.010414
 1580 Fit       0.008737
 1581 Fit       0.006054
 1582 Fit      -0.005695
 1583 Fit       0.001773
 1584 Fit      -0.001300
 1585 Fit       0.009159
 1586 Fit       0.010349
 1587 Fit       0.007803
 1588 Fit       0.008720
 1589 Fit       0.009604
 1590 Fit       0.010167
 1591 Fit       0.005496
 1592 Fit       0.007406
 1593 Fit       0.008740
 1594 Fit       0.009706
 1595 Fit       0.010677
 1596 Fit       0.004902
 1597 Fit       0.007289
 1598 Fit       0.008465
 1599 Fit       0.009407
 1600 Fit       0.006810
 1601 Fit       0.006549
 1602 Fit       0.007504
 1603 Fit       0.003801
 1604 Fit       0.003705
 1605 Fit       0.004478
 1606 Fit       0.005636
 1607 Fit       0.007245
 1608 Fit      -0.001582
 1609 Fit      -0.001062
 1610 Fit       0.000355
 1611 Fit       0.002078
 1612 Fit       0.003998
 1613 Fit      -0.007014
 1614 Fit      -0.003255
 1615 Fit      -0.010850
 1616 Fit      -0.012583
 1617 Fit      -0.012191
 1618 Fit      -0.010010
 1619 Fit      -0.007147
 1620 Fit      -0.010615
 1621 Fit      -0.012708
 1622 Fit      -0.013276
 1623 Fit      -0.012166
 1624 Fit      -0.009633
 1625 Fit      -0.005955
 1626 Fit       0.011012
 1627 Fit      -0.000692
 1628 Fit       0.006868
 1629 Fit       0.008048
 1630 Fit       0.008921
 1631 Fit       0.010085
 1632 Fit       0.004658
 1633 Fit       0.006748
 1634 Fit       0.005585
 1635 Fit       0.006317
 1636 Fit       0.007552
 1637 Fit       0.003977
 1638 Fit       0.004801
 1639 Fit       0.002334
 1640 Fit       0.003181
 1641 Fit       0.001291
 1642 Fit       0.010394
 1643 Fit       0.007504
 1644 Fit       0.011273
 1645 Fit       0.013279
 1646 Fit       0.014558
 1647 Fit      -0.006916
 1648 Fit       0.000003
 1649 Fit       0.002631
 1650 Fit       0.000328
 1651 Fit       0.004031
 1652 Fit       0.003142
 1653 Fit      -0.006890
 1654 Fit      -0.003738
 1655 Fit      -0.001910
 1656 Fit      -0.000635
 1657 Fit       0.000103
 1658 Fit       0.001328
 1659 Fit       0.002286
 1660 Fit       0.002750
 1661 Fit       0.003192
 1662 Fit       0.002690
 1663 Fit       0.003370
 1664 Fit       0.003822
 1665 Fit       0.003513
 1666 Fit       0.002356
 1667 Fit       0.003902
 1668 Fit       0.003485
 1669 Fit       0.000556
 1670 Fit       0.000396
 1671 Fit      -0.001106
 1672 Fit      -0.003210
 1673 Fit      -0.006369
 1674 Fit       0.008447
 1675 Fit       0.005909
 1676 Fit       0.003983
 1677 Fit       0.002127
 1678 Fit       0.000384
 1679 Fit       0.006885
 1680 Fit       0.004816
 1681 Fit       0.003287
 1682 Fit       0.004563
 1683 Fit      -0.000617
 1684 Fit      -0.001669
 1685 Fit       0.010036
 1686 Fit       0.010202
 1687 Fit       0.011581
 1688 Fit       0.008857
 1689 Fit       0.013760
 1690 Fit       0.012285
 1691 Fit       0.011106
 1692 Fit       0.010846
 1693 Fit       0.012420
 1694 Fit       0.012821
 1695 Fit       0.012565
 1696 Fit       0.011840
 1697 Fit       0.011053
 1698 Fit       0.012795
 1699 Fit       0.012936
 1700 Fit       0.012303
 1701 Fit       0.009229
 1702 Fit       0.008081
 1703 Fit       0.006958
 1704 Fit       0.006409
 1705 Fit       0.006051
 1706 Fit       0.005681
 1707 Fit       0.004206
 1708 Fit       0.003268
 1709 Fit       0.002590
 1710 Fit      -0.000445
 1711 Fit      -0.002347
 1712 Fit      -0.003898
 1713 Fit       0.011289
 1714 Fit       0.005573
 1715 Fit       0.000081
 1716 Fit       0.000064
 1717 Fit       0.002164
 1718 Fit       0.004524
 1719 Fit       0.007989
 1720 Fit      -0.000435
 1721 Fit       0.001782
 1722 Fit      -0.005734
 1723 Fit       0.013023
 1724 Fit       0.007498
 1725 Fit       0.008731
 1726 Fit       0.009035
 1727 Fit       0.008594
 1728 Fit      -0.000120
 1729 Fit       0.003408
 1730 Fit       0.004989
 1731 Fit       0.004924
 1732 Fit       0.003213
 1733 Fit      -0.000706
 1734 Fit      -0.002480
 1735 Fit       0.000419
 1736 Fit      -0.000116
 1737 Fit      -0.004313
 1738 Fit      -0.008523
 1739 Fit      -0.006228
 1740 Fit      -0.009697
 1741 Fit      -0.010981
 1742 Fit      -0.008532
 1743 Fit      -0.012717
 1744 Fit      -0.015732
 1745 Fit      -0.015002
 1746 Fit      -0.004099
 1747 Fit       0.000367
 1748 Fit       0.008667
 1749 Fit      -0.007166
 1750 Fit      -0.000922
 1751 Fit       0.006341
 1752 Fit       0.009649
 1753 Fit      -0.007025
 1754 Fit      -0.001634
 1755 Fit       0.001875
 1756 Fit       0.005066
 1757 Fit       0.009040
 1758 Fit      -0.003943
 1759 Fit      -0.000744
 1760 Fit       0.003031
 1761 Fit       0.003350
 1762 Fit       0.004108
 1763 Fit       0.003601
 1764 Fit       0.002102
 1765 Fit       0.003649
 1766 Fit       0.005164
 1767 Fit       0.006543
 1768 Fit       0.003433
 1769 Fit       0.006115
 1770 Fit       0.002029
 1771 Fit       0.002083
 1772 Fit      -0.000895
 1773 Fit       0.006229
 1774 Fit       0.004508
 1775 Fit       0.001964
 1776 Fit       0.007811
 1777 Fit       0.006145
 1778 Fit       0.003615
 1779 Fit      -0.000585
 1780 Fit       0.008506
 1781 Fit       0.006558
 1782 Fit       0.003364
 1783 Fit      -0.002749
 1784 Fit       0.009129
 1785 Fit       0.005767
 1786 Fit       0.000297
 1787 Fit      -0.001281
 1788 Fit       0.000808
 1789 Fit       0.001179
 1790 Fit       0.001444
 1791 Fit       0.001104
 1792 Fit      -0.004477
 1793 Fit      -0.004515
 1794 Fit      -0.002834
 1795 Fit      -0.010787
 1796 Fit      -0.010561
 1797 Fit      -0.009631
 1798 Fit      -0.008221
 1799 Fit      -0.005364
 1800 Fit      -0.009331
 1801 Fit      -0.015141
 1802 Fit      -0.014573
 1803 Fit      -0.013567
 1804 Fit      -0.012746
 1805 Fit      -0.012018
 1806 Fit      -0.010714
 1807 Fit      -0.004534
 1808 Fit      -0.010922
 1809 Fit      -0.014241
 1810 Fit      -0.016362
 1811 Fit      -0.015622
 1812 Fit      -0.014499
 1813 Fit      -0.013604
 1814 Fit      -0.013064
 1815 Fit      -0.012584
 1816 Fit      -0.011895
 1817 Fit      -0.011606
 1818 Fit      -0.000890
 1819 Fit      -0.008336
 1820 Fit      -0.013322
 1821 Fit      -0.015855
 1822 Fit      -0.013933
 1823 Fit      -0.013206
 1824 Fit      -0.012012
 1825 Fit      -0.010867
 1826 Fit      -0.009645
 1827 Fit      -0.007887
 1828 Fit       0.001269
 1829 Fit      -0.005604
 1830 Fit      -0.010593
 1831 Fit      -0.013308
 1832 Fit      -0.007992
 1833 Fit      -0.007821
 1834 Fit      -0.006601
 1835 Fit      -0.004068
 1836 Fit      -0.006714
 1837 Fit       0.003205
 1838 Fit      -0.001474
 1839 Fit      -0.000471
 1840 Fit      -0.001531
 1841 Fit      -0.001420
 1842 Fit       0.000436
 1843 Fit      -0.000662
 1844 Fit       0.002554
 1845 Fit       0.002583
 1846 Fit       0.003190
 1847 Fit       0.007487
 1848 Fit       0.006838
 1849 Fit       0.003692
 1850 Fit       0.001099
 1851 Fit       0.002540
 1852 Fit       0.001773
 1853 Fit      -0.001100
 1854 Fit      -0.010715
 1855 Fit      -0.007270
 1856 Fit      -0.007815
 1857 Fit      -0.003094
 1858 Fit      -0.001091
 1859 Fit      -0.001176
 1860 Fit      -0.003785
 1861 Fit       0.004474
 1862 Fit      -0.001524
 1863 Fit      -0.011844
 1864 Fit      -0.014809
 1865 Fit      -0.014981
 1866 Fit      -0.010068
 1867 Fit      -0.012843
 1868 Fit      -0.011567
 1869 Fit      -0.008991
 1870 Fit      -0.006141
 1871 Fit      -0.002995
 1872 Fit      -0.008103
 1873 Fit      -0.012365
 1874 Fit      -0.014255
 1875 Fit      -0.014192
 1876 Fit      -0.013057
 1877 Fit      -0.011828
 1878 Fit      -0.010984
 1879 Fit      -0.010210
 1880 Fit      -0.008520
 1881 Fit      -0.009363
 1882 Fit      -0.013321
 1883 Fit      -0.015207
 1884 Fit      -0.015338
 1885 Fit      -0.014547
 1886 Fit      -0.013698
 1887 Fit      -0.013277
 1888 Fit      -0.013184
 1889 Fit      -0.012819
 1890 Fit      -0.011412
 1891 Fit      -0.008543
 1892 Fit      -0.004433
 1893 Fit      -0.008626
 1894 Fit      -0.012553
 1895 Fit      -0.013703
 1896 Fit      -0.013330
 1897 Fit      -0.012646
 1898 Fit      -0.012275
 1899 Fit      -0.012056
 1900 Fit      -0.011255
 1901 Fit      -0.009119
 1902 Fit      -0.005398
 1903 Fit      -0.007249
 1904 Fit      -0.009017
 1905 Fit      -0.008868
 1906 Fit      -0.008262
 1907 Fit      -0.007422
 1908 Fit      -0.005702
 1909 Fit      -0.002534
 1910 Fit       0.002997
 1911 Fit      -0.001614
 1912 Fit      -0.002014
 1913 Fit      -0.000598
 1914 Fit       0.000441
 1915 Fit       0.001885
 1916 Fit       0.001157
 1917 Fit       0.002379
 1918 Fit       0.002860
 1919 Fit       0.008182
 1920 Fit       0.007256
 1921 Fit       0.007155
 1922 Fit       0.006994
 1923 Fit       0.001093
 1924 Fit       0.003941
 1925 Fit       0.003921
 1926 Fit       0.001476
 1927 Fit      -0.000698
 1928 Fit      -0.003118
 1929 Fit      -0.003935
 1930 Fit      -0.004113
 1931 Fit      -0.003184
 1932 Fit      -0.000804
 1933 Fit      -0.002075
 1934 Fit       0.001237
 1935 Fit       0.002908
 1936 Fit       0.001696
 1937 Fit       0.004720
 1938 Fit       0.001885
 1939 Fit       0.001724
 1940 Fit       0.001987
 1941 Fit       0.001230
 1942 Fit      -0.002477
 1943 Fit      -0.001215
 1944 Fit      -0.000647
 1945 Fit      -0.005195
 1946 Fit      -0.005951
 1947 Fit      -0.004511
 1948 Fit       0.000874
 1949 Fit      -0.011516
 1950 Fit      -0.011659
 1951 Fit      -0.011174
 1952 Fit      -0.010437
 1953 Fit      -0.008833
 1954 Fit      -0.005750
 1955 Fit      -0.009003
 1956 Fit      -0.014835
 1957 Fit      -0.014630
 1958 Fit      -0.014455
 1959 Fit      -0.014599
 1960 Fit      -0.014571
 1961 Fit      -0.013500
 1962 Fit      -0.010749
 1963 Fit      -0.006279
 1964 Fit      -0.010669
 1965 Fit      -0.013992
 1966 Fit      -0.014779
 1967 Fit      -0.014601
 1968 Fit      -0.014700
 1969 Fit      -0.015276
 1970 Fit      -0.015927
 1971 Fit      -0.015856
 1972 Fit      -0.014290
 1973 Fit      -0.010964
 1974 Fit      -0.006177
 1975 Fit      -0.003299
 1976 Fit      -0.009023
 1977 Fit      -0.012795
 1978 Fit      -0.014493
 1979 Fit      -0.011459
 1980 Fit      -0.011656
 1981 Fit      -0.012275
 1982 Fit      -0.013287
 1983 Fit      -0.013885
 1984 Fit      -0.012830
 1985 Fit      -0.005368
 1986 Fit      -0.009231
 1987 Fit      -0.010987
 1988 Fit      -0.005493
 1989 Fit      -0.006488
 1990 Fit      -0.007712
 1991 Fit      -0.008585
 1992 Fit      -0.007342
 1993 Fit      -0.002134
 1994 Fit      -0.004304
 1995 Fit      -0.001460
 1996 Fit       0.000140
 1997 Fit       0.007512
 1998 Fit       0.006412
 1999 Fit       0.000603
 2000 Fit       0.000251
 2001 Fit       0.002533
 2002 Fit       0.001216
 2003 Fit       0.004186
 2004 Fit       0.003850
 2005 Fit       0.003692
 2006 Fit       0.005410
 2007 Fit       0.004604
 2008 Fit       0.005933
 2009 Fit       0.005724
 2010 Fit       0.007698
 2011 Fit       0.006446
 2012 Fit       0.006861
 2013 Fit       0.003299
 2014 Fit       0.009037
 2015 Fit       0.008650
 2016 Fit       0.007030
 2017 Fit       0.004251
 2018 Fit       0.008361
 2019 Fit       0.007605
 2020 Fit       0.006158
 2021 Fit      -0.002295
 2022 Fit      -0.000644
 2023 Fit       0.005973
 2024 Fit       0.000677
 2025 Fit       0.001543
 2026 Fit       0.002371
 2027 Fit       0.003375
 2028 Fit       0.005262
 2029 Fit       0.008340
 2030 Fit       0.001043
 2031 Fit       0.001857
 2032 Fit       0.004053
 2033 Fit       0.001744
 2034 Fit       0.003359
 2035 Fit      -0.007497
 2036 Fit      -0.005246
 2037 Fit      -0.002453
 2038 Fit      -0.001118
 2039 Fit      -0.002386
 2040 Fit      -0.000975
 2041 Fit       0.000064
 2042 Fit       0.000398
 2043 Fit       0.001516
 2044 Fit       0.001024
 2045 Fit       0.001265
 2046 Fit       0.001196
 2047 Fit       0.002119
 2048 Fit       0.001766
 2049 Fit       0.002808
 2050 Fit       0.003901
 2051 Fit       0.005279
 2052 Fit       0.006980
 2053 Fit       0.002360
 2054 Fit       0.003319
 2055 Fit       0.004462
 2056 Fit       0.005635
 2057 Fit       0.006709
 2058 Fit       0.007414
 2059 Fit       0.007926
 2060 Fit       0.005714
 2061 Fit       0.004002
 2062 Fit       0.003710
 2063 Fit       0.004739
 2064 Fit       0.005916
 2065 Fit       0.006431
 2066 Fit       0.005212
 2067 Fit      -0.001497
 2068 Fit       0.001889
 2069 Fit       0.002742
 2070 Fit       0.002241
 2071 Fit       0.000589
 2072 Fit       0.001955
 2073 Fit       0.002483
 2074 Fit       0.002722
 2075 Fit       0.004098
 2076 Fit       0.001528
 2077 Fit       0.002264
 2078 Fit       0.002862
 Job cpu time:       0 days  0 hours  4 minutes 59.4 seconds.
 Normal termination of Gaussian 16 at Sat Jul  8 20:46:34 2023.
