 Copyright (c) 1988-2019, Gaussian, Inc.  All Rights Reserved.
  
 This is part of the Gaussian(R) 16 program.  It is based on
 the Gaussian(R) 09 system (copyright 2009, Gaussian, Inc.),
 the Gaussian(R) 03 system (copyright 2003, Gaussian, Inc.),
 the Gaussian(R) 98 system (copyright 1998, Gaussian, Inc.),
 the Gaussian(R) 94 system (copyright 1995, Gaussian, Inc.),
 the Gaussian 92(TM) system (copyright 1992, Gaussian, Inc.),
 the Gaussian 90(TM) system (copyright 1990, Gaussian, Inc.),
 the Gaussian 88(TM) system (copyright 1988, Gaussian, Inc.),
 the Gaussian 86(TM) system (copyright 1986, Carnegie Mellon
 University), and the Gaussian 82(TM) system (copyright 1983,
 Carnegie Mellon University). Gaussian is a federally registered
 trademark of Gaussian, Inc.
 Cite this work as:
 Gaussian 16, Revision C.01,
 M. J. Frisch, G. W. Trucks, H. B. Schlegel, G. E. Scuseria, 
 M. A. Robb, J. R. Cheeseman, G. Scalmani, V. Barone, 
 G. A. Petersson, H. Nakatsuji, X. Li, M. Caricato, A. V. Marenich, 
 J. Bloino, B. G. Janesko, R. Gomperts, B. Mennucci, H. P. Hratchian, 
 J. V. Ortiz, A. F. Izmaylov, J. L. Sonnenberg, D. Williams-Young, 
 F. Ding, F. Lipparini, F. Egidi, J. Goings, B. Peng, A. Petrone, 
 T. Henderson, D. Ranasinghe, V. G. Zakrzewski, J. Gao, N. Rega, 
 G. Zheng, W. Liang, M. Hada, M. Ehara, K. Toyota, R. Fukuda, 
 J. Hasegawa, M. Ishida, T. Nakajima, Y. Honda, O. Kitao, H. Nakai, 
 T. Vreven, K. Throssell, J. A. Montgomery, Jr., J. E. Peralta, 
 F. Ogliaro, M. J. Bearpark, J. J. Heyd, E. N. Brothers, K. N. Kudin, 
 V. N. Staroverov, T. A. Keith, R. Kobayashi, J. Normand, 
 K. Raghavachari, A. P. Rendell, J. C. Burant, S. S. Iyengar, 
 J. Tomasi, M. Cossi, J. M. Millam, M. Klene, C. Adamo, R. Cammi, 
 J. W. Ochterski, R. L. Martin, K. Morokuma, O. Farkas, 
 J. B. Foresman, and D. J. Fox, Gaussian, Inc., Wallingford CT, 2019.
 
 ******************************************
 Gaussian 16:  EM64L-G16RevC.01  3-Jul-2019
                 8-Jul-2023 
 ******************************************
 ----------------------------------------------------------------------
 #P HF/6-31G(d) SCF(Conver=8,XQC,MaxConventionalCycles=64,MaxCycle=128)
  NoSymm Test Pop=mk IOp(6/33=2) GFInput GFPrint
 ----------------------------------------------------------------------
 1/38=1,172=1/1;
 2/12=2,15=1,17=6,18=5,40=1/2;
 3/5=1,6=6,7=1,11=9,24=110,25=1,30=1/1,2,3;
 4//1;
 5/5=2,6=8,7=128,8=3,13=1,38=5,85=64/2,8;
 6/7=2,8=2,9=2,10=2,15=8,20=1,28=1,33=2/1,2;
 99/5=1,9=1/99;
 -------------------------------------------------
 MEP step - Input generated by PyRED DVE-DMDS-OPLS
 -------------------------------------------------
 Symbolic Z-matrix:
 Charge =  0 Multiplicity = 1
 C                    -4.23527   4.29419  -3.18401 
 H                    -4.87036   3.54636  -3.64605 
 H                    -4.17281   4.0763   -2.12362 
 H                    -4.71496   5.26056  -3.30843 
 C                    -2.84257   4.31807  -3.7985 
 H                    -2.89729   4.53955  -4.86296 
 H                    -2.25144   5.09819  -3.33523 
 O                    -2.13505   3.12477  -3.59275 
 C                    -2.4122    2.08662  -4.48512 
 H                    -2.11407   2.37217  -5.49453 
 H                    -3.47179   1.84916  -4.50143 
 C                    -1.64171   0.85055  -4.0685 
 H                    -1.72483   0.10874  -4.8552 
 H                    -0.59047   1.10215  -3.95502 
 O                    -2.15483   0.26909  -2.9054 
 C                    -1.59079   0.66238  -1.68201 
 H                    -2.38321   0.67421  -0.94462 
 H                    -1.182     1.66257  -1.74225 
 C                    -0.52982  -0.34206  -1.25285 
 H                     0.2526   -0.41391  -2.00506 
 H                    -0.98293  -1.32083  -1.16085 
 O                     0.        0.        0. 
 C                     1.1452    0.80797   0. 
 H                     1.09853   1.42684   0.8859 
 H                     1.14305   1.46584  -0.8669 
 C                     2.43903   0.        0. 
 H                     3.27001   0.67426  -0.17847 
 H                     2.43936  -0.71594  -0.81397 
 S                     2.87187  -0.82245   1.56288 
 C                     1.68775  -2.19863   1.67337 
 H                     1.72417  -2.51094   2.70961 
 H                     0.69596  -1.81533   1.48373 
 C                     1.96569  -3.38541   0.74877 
 H                     2.12107  -3.04838  -0.26786 
 H                     1.09514  -4.03152   0.729 
 S                     3.42778  -4.3848    1.16654 
 C                     2.77606  -5.46761   2.47487 
 H                     2.16207  -4.88701   3.15249 
 H                     3.63931  -5.80071   3.03644 
 C                     2.00656  -6.67354   1.94103 
 H                     1.17407  -6.35151   1.32995 
 H                     2.65962  -7.28073   1.32706 
 S                     1.39713  -7.66996   3.33906 
 C                     0.74445  -9.13646   2.48407 
 H                     1.52201  -9.54084   1.84603 
 H                     0.57403  -9.86002   3.27238 
 C                    -0.542    -8.9086    1.69581 
 H                    -1.32615  -8.52304   2.33702 
 H                    -0.39576  -8.20657   0.8824 
 H                    -0.88314  -9.84523   1.2638 
 
 ITRead=  0  0  0  0  0  0  0  0  0  0  0  0  0  0  0  0  0  0  0  0
 ITRead=  0  0  0  0  0  0  0  0  0  0  0  0  0  0  0  0  0  0  0  0
 ITRead=  0  0  0  0  0  0  0  0  0  0
 MicOpt= -1 -1 -1 -1 -1 -1 -1 -1 -1 -1 -1 -1 -1 -1 -1 -1 -1 -1 -1 -1
 MicOpt= -1 -1 -1 -1 -1 -1 -1 -1 -1 -1 -1 -1 -1 -1 -1 -1 -1 -1 -1 -1
 MicOpt= -1 -1 -1 -1 -1 -1 -1 -1 -1 -1
 NAtoms=     50 NQM=       50 NQMF=       0 NMMI=      0 NMMIF=      0
                NMic=       0 NMicF=      0.
                          Input orientation:                          
 ---------------------------------------------------------------------
 Center     Atomic      Atomic             Coordinates (Angstroms)
 Number     Number       Type             X           Y           Z
 ---------------------------------------------------------------------
      1          6           0       -4.235265    4.294189   -3.184008
      2          1           0       -4.870358    3.546356   -3.646053
      3          1           0       -4.172811    4.076297   -2.123621
      4          1           0       -4.714963    5.260564   -3.308426
      5          6           0       -2.842573    4.318068   -3.798499
      6          1           0       -2.897285    4.539554   -4.862956
      7          1           0       -2.251445    5.098186   -3.335235
      8          8           0       -2.135052    3.124767   -3.592754
      9          6           0       -2.412196    2.086624   -4.485121
     10          1           0       -2.114065    2.372170   -5.494530
     11          1           0       -3.471785    1.849160   -4.501426
     12          6           0       -1.641712    0.850554   -4.068501
     13          1           0       -1.724826    0.108743   -4.855201
     14          1           0       -0.590465    1.102145   -3.955024
     15          8           0       -2.154834    0.269090   -2.905403
     16          6           0       -1.590787    0.662384   -1.682011
     17          1           0       -2.383205    0.674207   -0.944617
     18          1           0       -1.182003    1.662569   -1.742249
     19          6           0       -0.529819   -0.342059   -1.252852
     20          1           0        0.252600   -0.413906   -2.005060
     21          1           0       -0.982933   -1.320828   -1.160850
     22          8           0        0.000000    0.000000    0.000000
     23          6           0        1.145196    0.807971    0.000000
     24          1           0        1.098528    1.426835    0.885897
     25          1           0        1.143053    1.465841   -0.866902
     26          6           0        2.439027    0.000000    0.000000
     27          1           0        3.270011    0.674264   -0.178468
     28          1           0        2.439356   -0.715935   -0.813965
     29         16           0        2.871874   -0.822447    1.562879
     30          6           0        1.687750   -2.198634    1.673374
     31          1           0        1.724171   -2.510941    2.709606
     32          1           0        0.695963   -1.815330    1.483734
     33          6           0        1.965694   -3.385413    0.748768
     34          1           0        2.121068   -3.048382   -0.267859
     35          1           0        1.095140   -4.031516    0.728996
     36         16           0        3.427777   -4.384798    1.166544
     37          6           0        2.776055   -5.467610    2.474875
     38          1           0        2.162070   -4.887007    3.152491
     39          1           0        3.639308   -5.800706    3.036443
     40          6           0        2.006560   -6.673541    1.941029
     41          1           0        1.174068   -6.351509    1.329953
     42          1           0        2.659617   -7.280727    1.327061
     43         16           0        1.397134   -7.669956    3.339056
     44          6           0        0.744452   -9.136461    2.484069
     45          1           0        1.522013   -9.540837    1.846028
     46          1           0        0.574028   -9.860023    3.272382
     47          6           0       -0.541998   -8.908599    1.695812
     48          1           0       -1.326149   -8.523044    2.337023
     49          1           0       -0.395759   -8.206573    0.882400
     50          1           0       -0.883142   -9.845228    1.263798
 ---------------------------------------------------------------------
 Stoichiometry    C14H30O3S3
 Framework group  C1[X(C14H30O3S3)]
 Standard basis: 6-31G(d) (6D, 7F)
   372 basis functions,   752 primitive gaussians,   372 cartesian basis functions
    93 alpha electrons       93 beta electrons
 Requested convergence on RMS density matrix=1.00D-08 within  64 cycles.
 Requested convergence on MAX density matrix=1.00D-06.
 Requested convergence on             energy=1.00D-06.
 SCF Done:  E(RHF) =  -1964.68712942     A.U. after   13 cycles
            NFock= 13  Conv=0.48D-08     -V/T= 2.0006
 Mulliken charges:
     1  C   -0.499376
     2  H    0.165685
     3  H    0.176498
     4  H    0.159065
     5  C    0.013333
     6  H    0.139674
     7  H    0.171623
     8  O   -0.630856
     9  C    0.012163
    10  H    0.135665
    11  H    0.155961
    12  C   -0.003398
    13  H    0.169025
    14  H    0.150079
    15  O   -0.640257
    16  C   -0.010304
    17  H    0.177788
    18  H    0.178569
    19  C   -0.010274
    20  H    0.138614
    21  H    0.177001
    22  O   -0.636031
    23  C    0.014112
    24  H    0.192093
    25  H    0.148902
    26  C   -0.501325
    27  H    0.197850
    28  H    0.190037
    29  S    0.128892
    30  C   -0.482471
    31  H    0.199621
    32  H    0.240036
    33  C   -0.475594
    34  H    0.200886
    35  H    0.193557
    36  S    0.140484
    37  C   -0.501314
    38  H    0.204419
    39  H    0.219336
    40  C   -0.450951
    41  H    0.190170
    42  H    0.200575
    43  S    0.110416
    44  C   -0.475393
    45  H    0.190199
    46  H    0.199563
    47  C   -0.475859
    48  H    0.179452
    49  H    0.164551
    50  H    0.167509
 Sum of Mulliken charges =  -0.00000
 Dipole moment (field-independent basis, Debye):
    X=             -2.7174    Y=              1.2648    Z=             -4.5061  Tot=              5.4120
 Quadrupole moment (field-independent basis, Debye-Ang):
   XX=           -162.3496   YY=           -128.2776   ZZ=           -145.9652
   XY=              4.9872   XZ=             -3.8654   YZ=             -0.5824
 Traceless Quadrupole moment (field-independent basis, Debye-Ang):
   XX=            -16.8188   YY=             17.2532   ZZ=             -0.4344
   XY=              4.9872   XZ=             -3.8654   YZ=             -0.5824
 Octapole moment (field-independent basis, Debye-Ang**2):
  XXX=           -275.9467  YYY=            776.0653  ZZZ=            -89.3737  XYY=           -133.0948
  XXY=            380.0901  XXZ=            -33.0580  XZZ=           -114.8343  YZZ=            389.3790
  YYZ=            -49.0813  XYZ=             46.4882
 Hexadecapole moment (field-independent basis, Debye-Ang**3):
 XXXX=          -5144.3503 YYYY=         -16661.9164 ZZZZ=          -5445.7179 XXXY=           2921.3144
 XXXZ=          -2019.3496 YYYX=           2883.8633 YYYZ=           3714.9070 ZZZX=          -1857.1183
 ZZZY=           3872.8448 XXYY=          -4074.9359 XXZZ=          -1717.1426 YYZZ=          -4378.7347
 XXYZ=           1211.1382 YYXZ=           -707.8450 ZZXY=            905.3275
 Merz-Kollman atomic radii used.
 Atom Element Radius
    1     6    1.50
    2     1    1.20
    3     1    1.20
    4     1    1.20
    5     6    1.50
    6     1    1.20
    7     1    1.20
    8     8    1.40
    9     6    1.50
   10     1    1.20
   11     1    1.20
   12     6    1.50
   13     1    1.20
   14     1    1.20
   15     8    1.40
   16     6    1.50
   17     1    1.20
   18     1    1.20
   19     6    1.50
   20     1    1.20
   21     1    1.20
   22     8    1.40
   23     6    1.50
   24     1    1.20
   25     1    1.20
   26     6    1.50
   27     1    1.20
   28     1    1.20
   29    16    1.75
   30     6    1.50
   31     1    1.20
   32     1    1.20
   33     6    1.50
   34     1    1.20
   35     1    1.20
   36    16    1.75
   37     6    1.50
   38     1    1.20
   39     1    1.20
   40     6    1.50
   41     1    1.20
   42     1    1.20
   43    16    1.75
   44     6    1.50
   45     1    1.20
   46     1    1.20
   47     6    1.50
   48     1    1.20
   49     1    1.20
   50     1    1.20
 Generate VDW surfaces: Layer= 4 Dens= 1 Start= 1.400 Inc= 0.200
            Electrostatic Properties Using The SCF Density.


       Atomic Center    1 is at  -4.235265  4.294189 -3.184008
       Atomic Center    2 is at  -4.870358  3.546356 -3.646053
       Atomic Center    3 is at  -4.172811  4.076297 -2.123621
       Atomic Center    4 is at  -4.714963  5.260564 -3.308426
       Atomic Center    5 is at  -2.842573  4.318068 -3.798499
       Atomic Center    6 is at  -2.897285  4.539554 -4.862956
       Atomic Center    7 is at  -2.251445  5.098186 -3.335235
       Atomic Center    8 is at  -2.135052  3.124767 -3.592754
       Atomic Center    9 is at  -2.412196  2.086624 -4.485121
       Atomic Center   10 is at  -2.114065  2.372170 -5.494530
       Atomic Center   11 is at  -3.471785  1.849160 -4.501426
       Atomic Center   12 is at  -1.641712  0.850554 -4.068501
       Atomic Center   13 is at  -1.724826  0.108743 -4.855201
       Atomic Center   14 is at  -0.590465  1.102145 -3.955024
       Atomic Center   15 is at  -2.154834  0.269090 -2.905403
       Atomic Center   16 is at  -1.590787  0.662384 -1.682011
       Atomic Center   17 is at  -2.383205  0.674207 -0.944617
       Atomic Center   18 is at  -1.182003  1.662569 -1.742249
       Atomic Center   19 is at  -0.529819 -0.342059 -1.252852
       Atomic Center   20 is at   0.252600 -0.413906 -2.005060
       Atomic Center   21 is at  -0.982933 -1.320828 -1.160850
       Atomic Center   22 is at   0.000000  0.000000  0.000000
       Atomic Center   23 is at   1.145196  0.807971  0.000000
       Atomic Center   24 is at   1.098528  1.426835  0.885897
       Atomic Center   25 is at   1.143053  1.465841 -0.866902
       Atomic Center   26 is at   2.439027  0.000000  0.000000
       Atomic Center   27 is at   3.270011  0.674264 -0.178468
       Atomic Center   28 is at   2.439356 -0.715935 -0.813965
       Atomic Center   29 is at   2.871874 -0.822447  1.562879
       Atomic Center   30 is at   1.687750 -2.198634  1.673374
       Atomic Center   31 is at   1.724171 -2.510941  2.709606
       Atomic Center   32 is at   0.695963 -1.815330  1.483734
       Atomic Center   33 is at   1.965694 -3.385413  0.748768
       Atomic Center   34 is at   2.121068 -3.048382 -0.267859
       Atomic Center   35 is at   1.095140 -4.031516  0.728996
       Atomic Center   36 is at   3.427777 -4.384798  1.166544
       Atomic Center   37 is at   2.776055 -5.467610  2.474875
       Atomic Center   38 is at   2.162070 -4.887007  3.152491
       Atomic Center   39 is at   3.639308 -5.800706  3.036443
       Atomic Center   40 is at   2.006560 -6.673541  1.941029
       Atomic Center   41 is at   1.174068 -6.351509  1.329953
       Atomic Center   42 is at   2.659617 -7.280727  1.327061
       Atomic Center   43 is at   1.397134 -7.669956  3.339056
       Atomic Center   44 is at   0.744452 -9.136461  2.484069
       Atomic Center   45 is at   1.522013 -9.540837  1.846028
       Atomic Center   46 is at   0.574028 -9.860023  3.272382
       Atomic Center   47 is at  -0.541998 -8.908599  1.695812
       Atomic Center   48 is at  -1.326149 -8.523044  2.337023
       Atomic Center   49 is at  -0.395759 -8.206573  0.882400
       Atomic Center   50 is at  -0.883142 -9.845228  1.263798
      ESP Fit Center   51 is at  -3.479769  5.948494 -2.134008
      ESP Fit Center   52 is at  -5.980250  4.806563 -2.134008
      ESP Fit Center   53 is at  -5.980250  3.781815 -2.134008
      ESP Fit Center   54 is at  -5.426230  2.919743 -2.134008
      ESP Fit Center   55 is at  -4.760265  5.203516 -5.002661
      ESP Fit Center   56 is at  -5.669245  2.965930 -2.286904
      ESP Fit Center   57 is at  -6.371775  4.092827 -3.126904
      ESP Fit Center   58 is at  -6.371775  2.999885 -3.126904
      ESP Fit Center   59 is at  -5.669245  2.162642 -3.126904
      ESP Fit Center   60 is at  -4.592907  1.972855 -3.126904
      ESP Fit Center   61 is at  -6.371775  4.092827 -4.165202
      ESP Fit Center   62 is at  -6.371775  2.999885 -4.165202
      ESP Fit Center   63 is at  -5.669245  2.162642 -4.165202
      ESP Fit Center   64 is at  -5.669245  4.126782 -5.005202
      ESP Fit Center   65 is at  -5.669245  2.965930 -5.005202
      ESP Fit Center   66 is at  -4.870358  3.546356 -5.326053
      ESP Fit Center   67 is at  -4.172811  4.076297 -0.443621
      ESP Fit Center   68 is at  -3.185332  4.076297 -0.764472
      ESP Fit Center   69 is at  -3.867663  5.015446 -0.764472
      ESP Fit Center   70 is at  -4.971698  4.656723 -0.764472
      ESP Fit Center   71 is at  -4.971698  3.495871 -0.764472
      ESP Fit Center   72 is at  -3.867663  3.137148 -0.764472
      ESP Fit Center   73 is at  -2.575036  4.076297 -1.604472
      ESP Fit Center   74 is at  -2.948844  5.103327 -1.604472
      ESP Fit Center   75 is at  -3.895360  5.649798 -1.604472
      ESP Fit Center   76 is at  -5.674228  4.622768 -1.604472
      ESP Fit Center   77 is at  -5.674228  3.529826 -1.604472
      ESP Fit Center   78 is at  -4.971698  2.692583 -1.604472
      ESP Fit Center   79 is at  -3.895360  2.502796 -1.604472
      ESP Fit Center   80 is at  -2.948844  3.049267 -1.604472
      ESP Fit Center   81 is at  -4.409815  6.199713 -1.949277
      ESP Fit Center   82 is at  -5.513850  5.840990 -1.949277
      ESP Fit Center   83 is at  -3.490996  6.287594 -2.789277
      ESP Fit Center   84 is at  -4.437512  6.834065 -2.789277
      ESP Fit Center   85 is at  -5.513850  6.644278 -2.789277
      ESP Fit Center   86 is at  -6.216380  5.807035 -2.789277
      ESP Fit Center   87 is at  -4.437512  6.834065 -3.827575
      ESP Fit Center   88 is at  -5.513850  6.644278 -3.827575
      ESP Fit Center   89 is at  -6.216380  5.807035 -3.827575
      ESP Fit Center   90 is at  -6.216380  4.714093 -3.827575
      ESP Fit Center   91 is at  -4.409815  6.199713 -4.667575
      ESP Fit Center   92 is at  -5.513850  5.840990 -4.667575
      ESP Fit Center   93 is at  -4.714963  5.260564 -4.988426
      ESP Fit Center   94 is at  -1.023920  4.318068 -4.848499
      ESP Fit Center   95 is at  -1.312624  5.301306 -4.848499
      ESP Fit Center   96 is at  -1.299510  4.539554 -5.382105
      ESP Fit Center   97 is at  -1.673318  5.566584 -5.382105
      ESP Fit Center   98 is at  -2.619834  6.113055 -5.382105
      ESP Fit Center   99 is at  -3.696172  5.923268 -5.382105
      ESP Fit Center  100 is at  -4.398702  5.086025 -5.382105
      ESP Fit Center  101 is at  -4.398702  3.993083 -5.382105
      ESP Fit Center  102 is at  -1.909806  4.539554 -6.222105
      ESP Fit Center  103 is at  -2.592137  5.478703 -6.222105
      ESP Fit Center  104 is at  -3.696172  5.119980 -6.222105
      ESP Fit Center  105 is at  -3.696172  3.959128 -6.222105
      ESP Fit Center  106 is at  -2.897285  4.539554 -6.542956
      ESP Fit Center  107 is at  -2.251445  5.098186 -1.655235
      ESP Fit Center  108 is at  -1.263966  5.098186 -1.976086
      ESP Fit Center  109 is at  -1.946297  6.037335 -1.976086
      ESP Fit Center  110 is at  -3.050332  5.678612 -1.976086
      ESP Fit Center  111 is at  -0.653670  5.098186 -2.816086
      ESP Fit Center  112 is at  -1.027478  6.125216 -2.816086
      ESP Fit Center  113 is at  -1.973994  6.671687 -2.816086
      ESP Fit Center  114 is at  -3.050332  6.481900 -2.816086
      ESP Fit Center  115 is at  -0.653670  5.098186 -3.854384
      ESP Fit Center  116 is at  -1.027478  6.125216 -3.854384
      ESP Fit Center  117 is at  -1.973994  6.671687 -3.854384
      ESP Fit Center  118 is at  -3.050332  6.481900 -3.854384
      ESP Fit Center  119 is at  -1.946297  6.037335 -4.694384
      ESP Fit Center  120 is at  -2.135052  3.124767 -1.632754
      ESP Fit Center  121 is at  -1.645052  3.973472 -1.895344
      ESP Fit Center  122 is at  -0.437642  3.124767 -2.612754
      ESP Fit Center  123 is at  -0.761819  4.122479 -2.612754
      ESP Fit Center  124 is at  -3.508285  2.127055 -2.612754
      ESP Fit Center  125 is at  -0.175052  3.124767 -3.592754
      ESP Fit Center  126 is at  -0.437642  4.104767 -3.592754
      ESP Fit Center  127 is at  -0.437642  3.124767 -4.572754
      ESP Fit Center  128 is at  -0.761819  4.122479 -4.572754
      ESP Fit Center  129 is at  -0.516290  2.372170 -6.013679
      ESP Fit Center  130 is at  -0.890098  3.399200 -6.013679
      ESP Fit Center  131 is at  -3.615482  2.918641 -6.013679
      ESP Fit Center  132 is at  -0.890098  1.345140 -6.013679
      ESP Fit Center  133 is at  -1.126586  2.372170 -6.853679
      ESP Fit Center  134 is at  -1.808917  3.311319 -6.853679
      ESP Fit Center  135 is at  -2.912952  2.952596 -6.853679
      ESP Fit Center  136 is at  -2.912952  1.791744 -6.853679
      ESP Fit Center  137 is at  -1.808917  1.433021 -6.853679
      ESP Fit Center  138 is at  -2.114065  2.372170 -7.174530
      ESP Fit Center  139 is at  -4.270672  1.268734 -3.142277
      ESP Fit Center  140 is at  -4.973202  1.302689 -3.982277
      ESP Fit Center  141 is at  -4.270672  0.465446 -3.982277
      ESP Fit Center  142 is at  -4.973202  2.395631 -5.020575
      ESP Fit Center  143 is at  -4.973202  1.302689 -5.020575
      ESP Fit Center  144 is at  -4.270672  0.465446 -5.020575
      ESP Fit Center  145 is at  -4.270672  2.429586 -5.860575
      ESP Fit Center  146 is at  -4.270672  1.268734 -5.860575
      ESP Fit Center  147 is at  -0.448776 -0.877712 -4.068501
      ESP Fit Center  148 is at  -0.591712  0.850554 -5.887154
      ESP Fit Center  149 is at  -2.523713 -1.274971 -4.336052
      ESP Fit Center  150 is at  -1.447375 -1.464758 -4.336052
      ESP Fit Center  151 is at  -0.500859 -0.918287 -4.336052
      ESP Fit Center  152 is at  -0.127051  0.108743 -5.374350
      ESP Fit Center  153 is at  -3.226243 -0.437728 -5.374350
      ESP Fit Center  154 is at  -2.523713 -1.274971 -5.374350
      ESP Fit Center  155 is at  -1.447375 -1.464758 -5.374350
      ESP Fit Center  156 is at  -0.500859 -0.918287 -5.374350
      ESP Fit Center  157 is at  -0.737347  0.108743 -6.214350
      ESP Fit Center  158 is at  -2.523713  0.689169 -6.214350
      ESP Fit Center  159 is at  -2.523713 -0.471683 -6.214350
      ESP Fit Center  160 is at  -1.419678 -0.830406 -6.214350
      ESP Fit Center  161 is at  -1.724826  0.108743 -6.535201
      ESP Fit Center  162 is at   1.007310  1.102145 -3.435875
      ESP Fit Center  163 is at   0.633502  2.129175 -3.435875
      ESP Fit Center  164 is at   1.007310  1.102145 -4.474173
      ESP Fit Center  165 is at   0.633502  2.129175 -4.474173
      ESP Fit Center  166 is at  -0.313014  2.675646 -4.474173
      ESP Fit Center  167 is at   0.633502  0.075115 -4.474173
      ESP Fit Center  168 is at   0.397014  1.102145 -5.314173
      ESP Fit Center  169 is at  -0.285317  2.041294 -5.314173
      ESP Fit Center  170 is at  -3.852244  0.269090 -1.925403
      ESP Fit Center  171 is at  -3.528067 -0.728622 -1.925403
      ESP Fit Center  172 is at  -2.679362 -1.345243 -1.925403
      ESP Fit Center  173 is at  -3.852244  1.249090 -2.905403
      ESP Fit Center  174 is at  -4.114834  0.269090 -2.905403
      ESP Fit Center  175 is at  -3.852244 -0.710910 -2.905403
      ESP Fit Center  176 is at  -3.134834 -1.428320 -2.905403
      ESP Fit Center  177 is at  -2.154834 -1.690910 -2.905403
      ESP Fit Center  178 is at  -3.852244  0.269090 -3.885403
      ESP Fit Center  179 is at  -3.528067 -0.728622 -3.885403
      ESP Fit Center  180 is at  -2.679362 -1.345243 -3.885403
      ESP Fit Center  181 is at  -1.630306 -1.345243 -3.885403
      ESP Fit Center  182 is at  -3.162660  2.054942 -1.682011
      ESP Fit Center  183 is at  -2.383205  0.674207  0.735383
      ESP Fit Center  184 is at  -2.078057  1.613356  0.414532
      ESP Fit Center  185 is at  -3.182092  1.254633  0.414532
      ESP Fit Center  186 is at  -3.182092  0.093781  0.414532
      ESP Fit Center  187 is at  -2.078057 -0.264942  0.414532
      ESP Fit Center  188 is at  -3.182092  2.057921 -0.425468
      ESP Fit Center  189 is at  -3.884622  1.220678 -0.425468
      ESP Fit Center  190 is at  -3.884622  0.127736 -0.425468
      ESP Fit Center  191 is at  -3.182092 -0.709507 -0.425468
      ESP Fit Center  192 is at  -3.182092  2.057921 -1.463766
      ESP Fit Center  193 is at  -3.884622  1.220678 -1.463766
      ESP Fit Center  194 is at  -3.884622  0.127736 -1.463766
      ESP Fit Center  195 is at  -3.182092 -0.709507 -1.463766
      ESP Fit Center  196 is at  -0.876855  2.601718 -0.383100
      ESP Fit Center  197 is at   0.041964  2.689599 -1.223100
      ESP Fit Center  198 is at  -0.904552  3.236070 -1.223100
      ESP Fit Center  199 is at  -1.980890  3.046283 -1.223100
      ESP Fit Center  200 is at   0.041964  2.689599 -2.261398
      ESP Fit Center  201 is at   0.225677 -1.996364 -0.202852
      ESP Fit Center  202 is at   0.663117 -2.070325 -1.252852
      ESP Fit Center  203 is at   1.850375 -0.413906 -2.524209
      ESP Fit Center  204 is at   1.476567  0.613124 -2.524209
      ESP Fit Center  205 is at   0.530051  1.159595 -2.524209
      ESP Fit Center  206 is at   0.530051 -1.987407 -2.524209
      ESP Fit Center  207 is at   1.476567 -1.440936 -2.524209
      ESP Fit Center  208 is at   1.240079 -0.413906 -3.364209
      ESP Fit Center  209 is at  -0.546287 -0.994332 -3.364209
      ESP Fit Center  210 is at   0.557748 -1.353055 -3.364209
      ESP Fit Center  211 is at   0.252600 -0.413906 -3.685060
      ESP Fit Center  212 is at  -1.781820 -1.901254  0.198299
      ESP Fit Center  213 is at  -0.677785 -2.259977  0.198299
      ESP Fit Center  214 is at  -2.484350 -1.867299 -0.641701
      ESP Fit Center  215 is at  -1.781820 -2.704542 -0.641701
      ESP Fit Center  216 is at  -0.705482 -2.894329 -0.641701
      ESP Fit Center  217 is at   0.241034 -2.347858 -0.641701
      ESP Fit Center  218 is at  -2.484350 -1.867299 -1.679999
      ESP Fit Center  219 is at  -1.781820 -2.704542 -1.679999
      ESP Fit Center  220 is at  -0.705482 -2.894329 -1.679999
      ESP Fit Center  221 is at   0.241034 -2.347858 -1.679999
      ESP Fit Center  222 is at  -1.781820 -1.901254 -2.519999
      ESP Fit Center  223 is at  -0.677785 -2.259977 -2.519999
      ESP Fit Center  224 is at   0.000000  0.000000  1.960000
      ESP Fit Center  225 is at  -0.490000  0.848705  1.697410
      ESP Fit Center  226 is at  -0.980000  0.000000  1.697410
      ESP Fit Center  227 is at  -1.373233  0.997712  0.980000
      ESP Fit Center  228 is at  -1.697410  0.000000  0.980000
      ESP Fit Center  229 is at  -1.373233 -0.997712  0.980000
      ESP Fit Center  230 is at   2.338132  2.536237  0.000000
      ESP Fit Center  231 is at   1.398323  2.892660  0.000000
      ESP Fit Center  232 is at   0.400526  2.771505  0.000000
      ESP Fit Center  233 is at  -0.426677  2.200529  0.000000
      ESP Fit Center  234 is at   1.098528  1.426835  2.565897
      ESP Fit Center  235 is at   2.086007  1.426835  2.245046
      ESP Fit Center  236 is at   1.403676  2.365984  2.245046
      ESP Fit Center  237 is at   0.299641  2.007261  2.245046
      ESP Fit Center  238 is at   0.299641  0.846409  2.245046
      ESP Fit Center  239 is at   2.322495  2.453865  1.405046
      ESP Fit Center  240 is at   1.375979  3.000336  1.405046
      ESP Fit Center  241 is at   0.299641  2.810549  1.405046
      ESP Fit Center  242 is at  -0.402889  1.973306  1.405046
      ESP Fit Center  243 is at   1.375979  3.000336  0.366748
      ESP Fit Center  244 is at   0.299641  2.810549  0.366748
      ESP Fit Center  245 is at   2.367020  2.492871 -0.347753
      ESP Fit Center  246 is at   1.420504  3.039342 -0.347753
      ESP Fit Center  247 is at   0.344166  2.849555 -0.347753
      ESP Fit Center  248 is at   2.367020  2.492871 -1.386051
      ESP Fit Center  249 is at   1.420504  3.039342 -1.386051
      ESP Fit Center  250 is at   0.344166  2.849555 -1.386051
      ESP Fit Center  251 is at   2.130532  1.465841 -2.226051
      ESP Fit Center  252 is at   1.448201  2.404990 -2.226051
      ESP Fit Center  253 is at   1.143053  1.465841 -2.546902
      ESP Fit Center  254 is at   2.964027  0.909327 -1.818653
      ESP Fit Center  255 is at   3.575159  1.613413  1.180681
      ESP Fit Center  256 is at   4.867786  0.674264  0.340681
      ESP Fit Center  257 is at   4.493978  1.701294  0.340681
      ESP Fit Center  258 is at   3.547462  2.247765  0.340681
      ESP Fit Center  259 is at   4.867786  0.674264 -0.697617
      ESP Fit Center  260 is at   4.493978  1.701294 -0.697617
      ESP Fit Center  261 is at   3.547462  2.247765 -0.697617
      ESP Fit Center  262 is at   4.493978 -0.352766 -0.697617
      ESP Fit Center  263 is at   4.257490  0.674264 -1.537617
      ESP Fit Center  264 is at   3.575159  1.613413 -1.537617
      ESP Fit Center  265 is at   3.270011  0.674264 -1.858468
      ESP Fit Center  266 is at   4.037131 -0.715935 -1.333114
      ESP Fit Center  267 is at   3.663323 -1.742965 -1.333114
      ESP Fit Center  268 is at   3.426835 -0.715935 -2.173114
      ESP Fit Center  269 is at   2.744504  0.223214 -2.173114
      ESP Fit Center  270 is at   2.744504 -1.655084 -2.173114
      ESP Fit Center  271 is at   2.439356 -0.715935 -2.493965
      ESP Fit Center  272 is at   2.871874 -0.822447  4.012879
      ESP Fit Center  273 is at   3.934889 -0.822447  3.770253
      ESP Fit Center  274 is at   3.403382  0.098151  3.770253
      ESP Fit Center  275 is at   2.340366  0.098151  3.770253
      ESP Fit Center  276 is at   1.808859 -0.822447  3.770253
      ESP Fit Center  277 is at   3.403382 -1.743045  3.770253
      ESP Fit Center  278 is at   4.787361 -0.822447  3.090429
      ESP Fit Center  279 is at   4.483284  0.213144  3.090429
      ESP Fit Center  280 is at   3.667596  0.919941  3.090429
      ESP Fit Center  281 is at   2.599272  1.073543  3.090429
      ESP Fit Center  282 is at   1.617497  0.625182  3.090429
      ESP Fit Center  283 is at   1.033978 -0.282792  3.090429
      ESP Fit Center  284 is at   3.667596 -2.564835  3.090429
      ESP Fit Center  285 is at   4.483284 -1.858038  3.090429
      ESP Fit Center  286 is at   5.260447 -0.822447  2.108055
      ESP Fit Center  287 is at   5.023904  0.213916  2.108055
      ESP Fit Center  288 is at   4.361125  1.045015  2.108055
      ESP Fit Center  289 is at   3.403382  1.506240  2.108055
      ESP Fit Center  290 is at   2.340366  1.506240  2.108055
      ESP Fit Center  291 is at   0.719844  0.213916  2.108055
      ESP Fit Center  292 is at   5.023904 -1.858810  2.108055
      ESP Fit Center  293 is at   5.260447 -0.822447  1.017703
      ESP Fit Center  294 is at   5.023904  0.213916  1.017703
      ESP Fit Center  295 is at   5.023904 -1.858810  1.017703
      ESP Fit Center  296 is at   4.787361 -0.822447  0.035329
      ESP Fit Center  297 is at   4.483284 -1.858038  0.035329
      ESP Fit Center  298 is at  -0.057235 -2.711008  2.723374
      ESP Fit Center  299 is at   1.724171 -2.510941  4.389606
      ESP Fit Center  300 is at   2.711650 -2.510941  4.068755
      ESP Fit Center  301 is at   2.029319 -1.571792  4.068755
      ESP Fit Center  302 is at   0.925284 -1.930515  4.068755
      ESP Fit Center  303 is at   0.925284 -3.091367  4.068755
      ESP Fit Center  304 is at   2.029319 -3.450090  4.068755
      ESP Fit Center  305 is at   0.222754 -1.964470  3.228755
      ESP Fit Center  306 is at   0.222754 -3.057412  3.228755
      ESP Fit Center  307 is at  -0.102924 -1.234904  2.842883
      ESP Fit Center  308 is at  -0.102924 -2.395756  2.842883
      ESP Fit Center  309 is at  -0.102924 -0.431616  2.002883
      ESP Fit Center  310 is at  -0.805454 -1.268859  2.002883
      ESP Fit Center  311 is at  -0.805454 -2.361801  2.002883
      ESP Fit Center  312 is at  -0.805454 -2.361801  0.964585
      ESP Fit Center  313 is at  -0.102924 -2.395756  0.124585
      ESP Fit Center  314 is at   0.774729 -2.010967 -0.301232
      ESP Fit Center  315 is at   0.220709 -2.873039 -0.301232
      ESP Fit Center  316 is at   0.619651 -2.501911 -0.787008
      ESP Fit Center  317 is at   3.108547 -3.048382 -1.627008
      ESP Fit Center  318 is at   1.322181 -2.467956 -1.627008
      ESP Fit Center  319 is at   1.322181 -3.628808 -1.627008
      ESP Fit Center  320 is at   2.426216 -3.987531 -1.627008
      ESP Fit Center  321 is at   2.121068 -3.048382 -1.947859
      ESP Fit Center  322 is at   0.296253 -4.611942  2.088145
      ESP Fit Center  323 is at  -0.406277 -3.485045  1.248145
      ESP Fit Center  324 is at  -0.406277 -4.577987  1.248145
      ESP Fit Center  325 is at  -0.406277 -3.485045  0.209847
      ESP Fit Center  326 is at  -0.406277 -4.577987  0.209847
      ESP Fit Center  327 is at   0.296253 -5.415230  0.209847
      ESP Fit Center  328 is at   0.296253 -3.451090 -0.630153
      ESP Fit Center  329 is at   0.296253 -4.611942 -0.630153
      ESP Fit Center  330 is at   1.400288 -4.970665 -0.630153
      ESP Fit Center  331 is at   4.490792 -4.384798  3.373918
      ESP Fit Center  332 is at   3.959285 -3.464200  3.373918
      ESP Fit Center  333 is at   5.343264 -4.384798  2.694094
      ESP Fit Center  334 is at   5.039187 -3.349207  2.694094
      ESP Fit Center  335 is at   4.223499 -2.642410  2.694094
      ESP Fit Center  336 is at   5.816350 -4.384798  1.711720
      ESP Fit Center  337 is at   5.579807 -3.348435  1.711720
      ESP Fit Center  338 is at   4.917028 -2.517336  1.711720
      ESP Fit Center  339 is at   4.917028 -6.252260  1.711720
      ESP Fit Center  340 is at   5.579807 -5.421161  1.711720
      ESP Fit Center  341 is at   5.816350 -4.384798  0.621368
      ESP Fit Center  342 is at   5.579807 -3.348435  0.621368
      ESP Fit Center  343 is at   4.917028 -2.517336  0.621368
      ESP Fit Center  344 is at   4.917028 -6.252260  0.621368
      ESP Fit Center  345 is at   5.579807 -5.421161  0.621368
      ESP Fit Center  346 is at   5.343264 -4.384798 -0.361006
      ESP Fit Center  347 is at   5.039187 -3.349207 -0.361006
      ESP Fit Center  348 is at   4.223499 -2.642410 -0.361006
      ESP Fit Center  349 is at   2.173400 -5.832427 -0.361006
      ESP Fit Center  350 is at   3.155175 -6.280788 -0.361006
      ESP Fit Center  351 is at   4.223499 -6.127186 -0.361006
      ESP Fit Center  352 is at   5.039187 -5.420389 -0.361006
      ESP Fit Center  353 is at   4.490792 -4.384798 -1.040830
      ESP Fit Center  354 is at   3.959285 -3.464200 -1.040830
      ESP Fit Center  355 is at   2.896269 -5.305396 -1.040830
      ESP Fit Center  356 is at   3.959285 -5.305396 -1.040830
      ESP Fit Center  357 is at   3.427777 -4.384798 -1.283456
      ESP Fit Center  358 is at   2.162070 -4.887007  4.832491
      ESP Fit Center  359 is at   3.149549 -4.887007  4.511640
      ESP Fit Center  360 is at   2.467218 -3.947858  4.511640
      ESP Fit Center  361 is at   1.363183 -4.306581  4.511640
      ESP Fit Center  362 is at   1.363183 -5.467433  4.511640
      ESP Fit Center  363 is at   0.660653 -4.340536  3.671640
      ESP Fit Center  364 is at   0.660653 -4.340536  2.633342
      ESP Fit Center  365 is at   3.639308 -5.800706  4.716443
      ESP Fit Center  366 is at   4.626787 -5.800706  4.395592
      ESP Fit Center  367 is at   3.944456 -4.861557  4.395592
      ESP Fit Center  368 is at   3.944456 -6.739855  4.395592
      ESP Fit Center  369 is at   5.237083 -5.800706  3.555592
      ESP Fit Center  370 is at   4.863275 -4.773676  3.555592
      ESP Fit Center  371 is at   3.916759 -7.374207  3.555592
      ESP Fit Center  372 is at   4.863275 -6.827736  3.555592
      ESP Fit Center  373 is at   5.237083 -5.800706  2.517294
      ESP Fit Center  374 is at   3.916759 -7.374207  2.517294
      ESP Fit Center  375 is at   4.863275 -6.827736  2.517294
      ESP Fit Center  376 is at   1.481560 -7.582868  0.122376
      ESP Fit Center  377 is at   2.006560 -6.673541 -0.158971
      ESP Fit Center  378 is at  -0.327349 -5.805038  1.849102
      ESP Fit Center  379 is at  -0.327349 -5.805038  0.810804
      ESP Fit Center  380 is at   0.375181 -5.771083 -0.029196
      ESP Fit Center  381 is at   0.375181 -6.931935 -0.029196
      ESP Fit Center  382 is at   1.479216 -7.290658 -0.029196
      ESP Fit Center  383 is at   1.174068 -6.351509 -0.350047
      ESP Fit Center  384 is at   4.257392 -7.280727  1.846210
      ESP Fit Center  385 is at   3.883584 -8.307757  1.846210
      ESP Fit Center  386 is at   4.257392 -7.280727  0.807912
      ESP Fit Center  387 is at   2.937068 -8.854228  0.807912
      ESP Fit Center  388 is at   3.883584 -8.307757  0.807912
      ESP Fit Center  389 is at   3.647096 -7.280727 -0.032088
      ESP Fit Center  390 is at   1.860730 -7.861153 -0.032088
      ESP Fit Center  391 is at   2.964765 -8.219876 -0.032088
      ESP Fit Center  392 is at   2.659617 -7.280727 -0.352939
      ESP Fit Center  393 is at   1.397134 -7.669956  5.789056
      ESP Fit Center  394 is at   2.460149 -7.669956  5.546430
      ESP Fit Center  395 is at   1.928642 -6.749358  5.546430
      ESP Fit Center  396 is at   0.865626 -6.749358  5.546430
      ESP Fit Center  397 is at   0.334119 -7.669956  5.546430
      ESP Fit Center  398 is at   0.865626 -8.590554  5.546430
      ESP Fit Center  399 is at   1.928642 -8.590554  5.546430
      ESP Fit Center  400 is at   3.312621 -7.669956  4.866606
      ESP Fit Center  401 is at   3.008544 -6.634365  4.866606
      ESP Fit Center  402 is at   2.192856 -5.927568  4.866606
      ESP Fit Center  403 is at   1.124532 -5.773966  4.866606
      ESP Fit Center  404 is at   0.142757 -6.222327  4.866606
      ESP Fit Center  405 is at  -0.440762 -7.130301  4.866606
      ESP Fit Center  406 is at  -0.440762 -8.209611  4.866606
      ESP Fit Center  407 is at   0.142757 -9.117585  4.866606
      ESP Fit Center  408 is at   1.124532 -9.565946  4.866606
      ESP Fit Center  409 is at   2.192856 -9.412344  4.866606
      ESP Fit Center  410 is at   3.008544 -8.705547  4.866606
      ESP Fit Center  411 is at   3.785707 -7.669956  3.884232
      ESP Fit Center  412 is at  -0.092117 -5.802494  3.884232
      ESP Fit Center  413 is at  -0.754896 -6.633593  3.884232
      ESP Fit Center  414 is at  -0.991439 -7.669956  3.884232
      ESP Fit Center  415 is at   2.886385 -9.537418  3.884232
      ESP Fit Center  416 is at   3.549164 -8.706319  3.884232
      ESP Fit Center  417 is at   3.785707 -7.669956  2.793880
      ESP Fit Center  418 is at  -0.092117 -5.802494  2.793880
      ESP Fit Center  419 is at  -0.754896 -6.633593  2.793880
      ESP Fit Center  420 is at   3.549164 -8.706319  2.793880
      ESP Fit Center  421 is at   2.274401-10.119699  3.534069
      ESP Fit Center  422 is at   0.485631-10.936603  1.434069
      ESP Fit Center  423 is at   3.119788 -9.540837  2.365177
      ESP Fit Center  424 is at   1.799464-11.114338  2.365177
      ESP Fit Center  425 is at   2.745980-10.567867  2.365177
      ESP Fit Center  426 is at   3.119788 -9.540837  1.326879
      ESP Fit Center  427 is at   0.723126-10.924551  1.326879
      ESP Fit Center  428 is at   1.799464-11.114338  1.326879
      ESP Fit Center  429 is at   2.745980-10.567867  1.326879
      ESP Fit Center  430 is at   2.509492 -9.540837  0.486879
      ESP Fit Center  431 is at   1.827161 -8.601688  0.486879
      ESP Fit Center  432 is at   0.723126-10.121263  0.486879
      ESP Fit Center  433 is at   1.827161-10.479986  0.486879
      ESP Fit Center  434 is at   1.522013 -9.540837  0.166028
      ESP Fit Center  435 is at   0.574028 -9.860023  4.952382
      ESP Fit Center  436 is at   1.561507 -9.860023  4.631531
      ESP Fit Center  437 is at  -0.224859 -9.279597  4.631531
      ESP Fit Center  438 is at  -0.224859-10.440449  4.631531
      ESP Fit Center  439 is at   0.879176-10.799172  4.631531
      ESP Fit Center  440 is at  -0.927389 -9.313552  3.791531
      ESP Fit Center  441 is at  -0.927389-10.406494  3.791531
      ESP Fit Center  442 is at  -0.224859-11.243737  3.791531
      ESP Fit Center  443 is at   0.851479-11.433524  3.791531
      ESP Fit Center  444 is at   1.797995-10.887053  3.791531
      ESP Fit Center  445 is at  -0.224859-11.243737  2.753233
      ESP Fit Center  446 is at   0.851479-11.433524  2.753233
      ESP Fit Center  447 is at  -1.732963-10.283045  2.745812
      ESP Fit Center  448 is at  -0.800819-10.708741  2.745812
      ESP Fit Center  449 is at  -1.286668 -6.945065  1.695812
      ESP Fit Center  450 is at  -2.286983 -8.396225  0.645812
      ESP Fit Center  451 is at  -1.591998 -8.908599 -0.122841
      ESP Fit Center  452 is at  -1.326149 -8.523044  4.017023
      ESP Fit Center  453 is at  -2.125036 -7.942618  3.696172
      ESP Fit Center  454 is at  -2.125036 -9.103470  3.696172
      ESP Fit Center  455 is at  -1.021001 -9.462193  3.696172
      ESP Fit Center  456 is at  -1.048698 -6.949543  2.856172
      ESP Fit Center  457 is at  -2.125036 -7.139330  2.856172
      ESP Fit Center  458 is at  -2.827566 -7.976573  2.856172
      ESP Fit Center  459 is at  -2.827566 -9.069515  2.856172
      ESP Fit Center  460 is at  -2.125036 -9.906758  2.856172
      ESP Fit Center  461 is at  -2.125036 -7.139330  1.817874
      ESP Fit Center  462 is at  -2.827566 -7.976573  1.817874
      ESP Fit Center  463 is at  -2.827566 -9.069515  1.817874
      ESP Fit Center  464 is at  -1.194646 -6.822859  1.401549
      ESP Fit Center  465 is at   1.202016 -8.206573  0.363251
      ESP Fit Center  466 is at  -1.194646 -6.822859  0.363251
      ESP Fit Center  467 is at  -1.897176 -7.660102  0.363251
      ESP Fit Center  468 is at   0.591720 -8.206573 -0.476749
      ESP Fit Center  469 is at  -0.090611 -7.267424 -0.476749
      ESP Fit Center  470 is at  -1.194646 -7.626147 -0.476749
      ESP Fit Center  471 is at  -1.194646 -8.786999 -0.476749
      ESP Fit Center  472 is at  -0.090611 -9.145722 -0.476749
      ESP Fit Center  473 is at  -0.395759 -8.206573 -0.797600
      ESP Fit Center  474 is at  -1.682029-10.425654  2.622947
      ESP Fit Center  475 is at  -2.384559-10.391699  1.782947
      ESP Fit Center  476 is at  -1.682029-11.228942  1.782947
      ESP Fit Center  477 is at  -0.605691-11.418729  1.782947
      ESP Fit Center  478 is at  -2.384559 -9.298757  0.744649
      ESP Fit Center  479 is at  -2.384559-10.391699  0.744649
      ESP Fit Center  480 is at  -1.682029-11.228942  0.744649
      ESP Fit Center  481 is at  -0.605691-11.418729  0.744649
      ESP Fit Center  482 is at   0.340825-10.872258  0.744649
      ESP Fit Center  483 is at   0.104337 -9.845228 -0.095351
      ESP Fit Center  484 is at  -1.682029 -9.264802 -0.095351
      ESP Fit Center  485 is at  -1.682029-10.425654 -0.095351
      ESP Fit Center  486 is at  -0.577994-10.784377 -0.095351
      ESP Fit Center  487 is at  -0.883142 -9.845228 -0.416202
      ESP Fit Center  488 is at  -3.455782  6.001018 -1.687632
      ESP Fit Center  489 is at  -6.035653  4.822831 -1.687632
      ESP Fit Center  490 is at  -6.035653  3.765547 -1.687632
      ESP Fit Center  491 is at  -6.575092  4.294189 -2.649958
      ESP Fit Center  492 is at  -6.035653  4.822831 -4.680384
      ESP Fit Center  493 is at  -4.755925  5.195999 -5.346333
      ESP Fit Center  494 is at  -6.533127  3.546356 -2.686053
      ESP Fit Center  495 is at  -6.215566  2.569005 -2.686053
      ESP Fit Center  496 is at  -5.384182  1.964969 -2.686053
      ESP Fit Center  497 is at  -6.790358  3.546356 -3.646053
      ESP Fit Center  498 is at  -6.533127  2.586356 -3.646053
      ESP Fit Center  499 is at  -5.830358  1.883587 -3.646053
      ESP Fit Center  500 is at  -6.215566  4.523707 -4.606053
      ESP Fit Center  501 is at  -6.533127  3.546356 -4.606053
      ESP Fit Center  502 is at  -6.215566  2.569005 -4.606053
      ESP Fit Center  503 is at  -5.350358  4.377740 -5.308822
      ESP Fit Center  504 is at  -5.830358  3.546356 -5.308822
      ESP Fit Center  505 is at  -5.350358  2.714972 -5.308822
      ESP Fit Center  506 is at  -4.870358  3.546356 -5.566053
      ESP Fit Center  507 is at  -4.172811  4.076297 -0.203621
      ESP Fit Center  508 is at  -3.212811  4.076297 -0.460852
      ESP Fit Center  509 is at  -3.692811  4.907681 -0.460852
      ESP Fit Center  510 is at  -4.652811  4.907681 -0.460852
      ESP Fit Center  511 is at  -5.132811  4.076297 -0.460852
      ESP Fit Center  512 is at  -4.652811  3.244913 -0.460852
      ESP Fit Center  513 is at  -3.692811  3.244913 -0.460852
      ESP Fit Center  514 is at  -2.510042  4.076297 -1.163621
      ESP Fit Center  515 is at  -2.827603  5.053648 -1.163621
      ESP Fit Center  516 is at  -3.658987  5.657684 -1.163621
      ESP Fit Center  517 is at  -4.686635  5.657684 -1.163621
      ESP Fit Center  518 is at  -5.518019  5.053648 -1.163621
      ESP Fit Center  519 is at  -5.835580  4.076297 -1.163621
      ESP Fit Center  520 is at  -5.518019  3.098946 -1.163621
      ESP Fit Center  521 is at  -4.686635  2.494910 -1.163621
      ESP Fit Center  522 is at  -3.658987  2.494910 -1.163621
      ESP Fit Center  523 is at  -2.827603  3.098946 -1.163621
      ESP Fit Center  524 is at  -5.194963  6.091948 -1.645657
      ESP Fit Center  525 is at  -4.201139  6.841951 -2.348426
      ESP Fit Center  526 is at  -5.228787  6.841951 -2.348426
      ESP Fit Center  527 is at  -6.060171  6.237915 -2.348426
      ESP Fit Center  528 is at  -6.377732  5.260564 -2.348426
      ESP Fit Center  529 is at  -3.754963  6.923333 -3.308426
      ESP Fit Center  530 is at  -4.714963  7.180564 -3.308426
      ESP Fit Center  531 is at  -5.674963  6.923333 -3.308426
      ESP Fit Center  532 is at  -6.377732  6.220564 -3.308426
      ESP Fit Center  533 is at  -6.634963  5.260564 -3.308426
      ESP Fit Center  534 is at  -4.201139  6.841951 -4.268426
      ESP Fit Center  535 is at  -5.228787  6.841951 -4.268426
      ESP Fit Center  536 is at  -6.060171  6.237915 -4.268426
      ESP Fit Center  537 is at  -6.377732  5.260564 -4.268426
      ESP Fit Center  538 is at  -4.234963  6.091948 -4.971195
      ESP Fit Center  539 is at  -5.194963  6.091948 -4.971195
      ESP Fit Center  540 is at  -5.674963  5.260564 -4.971195
      ESP Fit Center  541 is at  -1.801252  4.318068 -1.636174
      ESP Fit Center  542 is at  -3.363233  6.599231 -4.332549
      ESP Fit Center  543 is at  -0.966177  4.318068 -5.294875
      ESP Fit Center  544 is at  -1.234516  4.539554 -5.822956
      ESP Fit Center  545 is at  -1.552077  5.516905 -5.822956
      ESP Fit Center  546 is at  -2.383461  6.120941 -5.822956
      ESP Fit Center  547 is at  -3.411109  6.120941 -5.822956
      ESP Fit Center  548 is at  -4.242493  5.516905 -5.822956
      ESP Fit Center  549 is at  -4.560054  4.539554 -5.822956
      ESP Fit Center  550 is at  -4.242493  3.562203 -5.822956
      ESP Fit Center  551 is at  -1.937285  4.539554 -6.525725
      ESP Fit Center  552 is at  -2.417285  5.370938 -6.525725
      ESP Fit Center  553 is at  -3.377285  5.370938 -6.525725
      ESP Fit Center  554 is at  -3.857285  4.539554 -6.525725
      ESP Fit Center  555 is at  -3.377285  3.708170 -6.525725
      ESP Fit Center  556 is at  -2.897285  4.539554 -6.782956
      ESP Fit Center  557 is at  -2.251445  5.098186 -1.415235
      ESP Fit Center  558 is at  -1.291445  5.098186 -1.672466
      ESP Fit Center  559 is at  -1.771445  5.929570 -1.672466
      ESP Fit Center  560 is at  -2.731445  5.929570 -1.672466
      ESP Fit Center  561 is at  -0.588676  5.098186 -2.375235
      ESP Fit Center  562 is at  -0.906237  6.075537 -2.375235
      ESP Fit Center  563 is at  -1.737621  6.679573 -2.375235
      ESP Fit Center  564 is at  -2.765269  6.679573 -2.375235
      ESP Fit Center  565 is at  -0.331445  5.098186 -3.335235
      ESP Fit Center  566 is at  -0.588676  6.058186 -3.335235
      ESP Fit Center  567 is at  -1.291445  6.760955 -3.335235
      ESP Fit Center  568 is at  -2.251445  7.018186 -3.335235
      ESP Fit Center  569 is at  -3.211445  6.760955 -3.335235
      ESP Fit Center  570 is at  -0.588676  5.098186 -4.295235
      ESP Fit Center  571 is at  -0.906237  6.075537 -4.295235
      ESP Fit Center  572 is at  -1.737621  6.679573 -4.295235
      ESP Fit Center  573 is at  -2.765269  6.679573 -4.295235
      ESP Fit Center  574 is at  -1.649102  3.966457 -1.574584
      ESP Fit Center  575 is at  -0.718218  4.154157 -2.196137
      ESP Fit Center  576 is at  -3.551886  2.095377 -2.196137
      ESP Fit Center  577 is at   0.048787  3.124767 -3.094307
      ESP Fit Center  578 is at  -0.201359  4.139647 -3.094307
      ESP Fit Center  579 is at   0.048787  3.124767 -4.091201
      ESP Fit Center  580 is at  -0.201359  4.139647 -4.091201
      ESP Fit Center  581 is at  -0.718218  4.154157 -4.989371
      ESP Fit Center  582 is at  -0.304085  3.101837 -5.019171
      ESP Fit Center  583 is at  -0.194065  2.372170 -5.494530
      ESP Fit Center  584 is at  -0.451296  3.332170 -5.494530
      ESP Fit Center  585 is at  -1.154065  4.034939 -5.494530
      ESP Fit Center  586 is at  -0.451296  2.372170 -6.454530
      ESP Fit Center  587 is at  -0.768857  3.349521 -6.454530
      ESP Fit Center  588 is at  -1.600241  3.953557 -6.454530
      ESP Fit Center  589 is at  -3.459273  3.349521 -6.454530
      ESP Fit Center  590 is at  -3.776834  2.372170 -6.454530
      ESP Fit Center  591 is at  -0.768857  1.394819 -6.454530
      ESP Fit Center  592 is at  -1.154065  2.372170 -7.157299
      ESP Fit Center  593 is at  -1.634065  3.203554 -7.157299
      ESP Fit Center  594 is at  -2.594065  3.203554 -7.157299
      ESP Fit Center  595 is at  -3.074065  2.372170 -7.157299
      ESP Fit Center  596 is at  -2.594065  1.540786 -7.157299
      ESP Fit Center  597 is at  -1.634065  1.540786 -7.157299
      ESP Fit Center  598 is at  -2.114065  2.372170 -7.414530
      ESP Fit Center  599 is at  -4.431785  1.849160 -2.838657
      ESP Fit Center  600 is at  -4.816993  0.871809 -3.541426
      ESP Fit Center  601 is at  -5.391785  1.849160 -4.501426
      ESP Fit Center  602 is at  -5.134554  0.889160 -4.501426
      ESP Fit Center  603 is at  -4.431785  0.186391 -4.501426
      ESP Fit Center  604 is at  -4.816993  2.826511 -5.461426
      ESP Fit Center  605 is at  -5.134554  1.849160 -5.461426
      ESP Fit Center  606 is at  -4.816993  0.871809 -5.461426
      ESP Fit Center  607 is at  -3.985609  0.267773 -5.461426
      ESP Fit Center  608 is at  -4.431785  1.849160 -6.164195
      ESP Fit Center  609 is at  -3.951785  1.017776 -6.164195
      ESP Fit Center  610 is at  -3.749823 -0.164659 -4.602551
      ESP Fit Center  611 is at  -0.600391  0.850554 -6.230826
      ESP Fit Center  612 is at  -3.387595 -0.851257 -4.855201
      ESP Fit Center  613 is at  -2.684826 -1.554026 -4.855201
      ESP Fit Center  614 is at  -1.724826 -1.811257 -4.855201
      ESP Fit Center  615 is at  -0.764826 -1.554026 -4.855201
      ESP Fit Center  616 is at  -0.062057 -0.851257 -4.855201
      ESP Fit Center  617 is at  -0.062057  0.108743 -5.815201
      ESP Fit Center  618 is at  -3.387595  0.108743 -5.815201
      ESP Fit Center  619 is at  -3.070034 -0.868608 -5.815201
      ESP Fit Center  620 is at  -2.238650 -1.472644 -5.815201
      ESP Fit Center  621 is at  -1.211002 -1.472644 -5.815201
      ESP Fit Center  622 is at  -0.379618 -0.868608 -5.815201
      ESP Fit Center  623 is at  -0.764826  0.108743 -6.517970
      ESP Fit Center  624 is at  -1.244826  0.940127 -6.517970
      ESP Fit Center  625 is at  -2.684826  0.108743 -6.517970
      ESP Fit Center  626 is at  -2.204826 -0.722641 -6.517970
      ESP Fit Center  627 is at  -1.244826 -0.722641 -6.517970
      ESP Fit Center  628 is at  -1.724826  0.108743 -6.775201
      ESP Fit Center  629 is at   1.072304  1.102145 -2.995024
      ESP Fit Center  630 is at   0.754743  2.079496 -2.995024
      ESP Fit Center  631 is at   1.329535  1.102145 -3.955024
      ESP Fit Center  632 is at   1.072304  2.062145 -3.955024
      ESP Fit Center  633 is at   0.369535  2.764914 -3.955024
      ESP Fit Center  634 is at   0.369535 -0.560624 -3.955024
      ESP Fit Center  635 is at   1.072304  0.142145 -3.955024
      ESP Fit Center  636 is at   1.072304  1.102145 -4.915024
      ESP Fit Center  637 is at   0.754743  2.079496 -4.915024
      ESP Fit Center  638 is at  -0.076641  2.683532 -4.915024
      ESP Fit Center  639 is at   0.754743  0.124794 -4.915024
      ESP Fit Center  640 is at   0.369535  1.102145 -5.617793
      ESP Fit Center  641 is at  -0.110465  1.933529 -5.617793
      ESP Fit Center  642 is at  -3.571668 -0.760300 -1.508786
      ESP Fit Center  643 is at  -3.789461  1.717243 -2.406956
      ESP Fit Center  644 is at  -4.275214  0.791717 -2.406956
      ESP Fit Center  645 is at  -4.275214 -0.253537 -2.406956
      ESP Fit Center  646 is at  -3.789461 -1.179063 -2.406956
      ESP Fit Center  647 is at  -2.929234 -1.772834 -2.406956
      ESP Fit Center  648 is at  -4.275214 -0.253537 -3.403850
      ESP Fit Center  649 is at  -3.789461 -1.179063 -3.403850
      ESP Fit Center  650 is at  -2.929234 -1.772834 -3.403850
      ESP Fit Center  651 is at  -1.891601 -1.898826 -3.403850
      ESP Fit Center  652 is at  -0.914272 -1.528174 -3.403850
      ESP Fit Center  653 is at  -3.571668 -0.760300 -4.302020
      ESP Fit Center  654 is at  -3.049645  2.491734 -1.147961
      ESP Fit Center  655 is at  -3.049645 -1.166966 -1.147961
      ESP Fit Center  656 is at  -2.383205  0.674207  0.975383
      ESP Fit Center  657 is at  -1.903205  1.505591  0.718152
      ESP Fit Center  658 is at  -2.863205  1.505591  0.718152
      ESP Fit Center  659 is at  -3.343205  0.674207  0.718152
      ESP Fit Center  660 is at  -2.863205 -0.157177  0.718152
      ESP Fit Center  661 is at  -2.897029  2.255594  0.015383
      ESP Fit Center  662 is at  -3.728413  1.651558  0.015383
      ESP Fit Center  663 is at  -4.045974  0.674207  0.015383
      ESP Fit Center  664 is at  -3.728413 -0.303144  0.015383
      ESP Fit Center  665 is at  -2.897029 -0.907180  0.015383
      ESP Fit Center  666 is at  -3.343205  2.336976 -0.944617
      ESP Fit Center  667 is at  -4.045974  1.634207 -0.944617
      ESP Fit Center  668 is at  -4.303205  0.674207 -0.944617
      ESP Fit Center  669 is at  -4.045974 -0.285793 -0.944617
      ESP Fit Center  670 is at  -3.343205 -0.988562 -0.944617
      ESP Fit Center  671 is at  -0.702003  2.493953 -0.079480
      ESP Fit Center  672 is at  -1.662003  2.493953 -0.079480
      ESP Fit Center  673 is at  -0.668179  3.243956 -0.782249
      ESP Fit Center  674 is at  -1.695827  3.243956 -0.782249
      ESP Fit Center  675 is at  -0.222003  3.325338 -1.742249
      ESP Fit Center  676 is at   0.163205  2.639920 -2.702249
      ESP Fit Center  677 is at  -2.330207 -0.870701  0.243524
      ESP Fit Center  678 is at   1.212600 -2.076675 -2.005060
      ESP Fit Center  679 is at   1.915369 -0.413906 -2.965060
      ESP Fit Center  680 is at   1.597808  0.563445 -2.965060
      ESP Fit Center  681 is at   0.766424 -1.995293 -2.965060
      ESP Fit Center  682 is at   1.597808 -1.391257 -2.965060
      ESP Fit Center  683 is at   1.212600 -0.413906 -3.667829
      ESP Fit Center  684 is at  -0.227400 -1.245290 -3.667829
      ESP Fit Center  685 is at   0.732600 -1.245290 -3.667829
      ESP Fit Center  686 is at  -1.942933 -1.320828  0.501919
      ESP Fit Center  687 is at  -1.462933 -2.152212  0.501919
      ESP Fit Center  688 is at  -2.645702 -1.320828 -0.200850
      ESP Fit Center  689 is at  -2.328141 -2.298179 -0.200850
      ESP Fit Center  690 is at  -1.496757 -2.902215 -0.200850
      ESP Fit Center  691 is at  -0.469109 -2.902215 -0.200850
      ESP Fit Center  692 is at  -2.902933 -1.320828 -1.160850
      ESP Fit Center  693 is at  -2.645702 -2.280828 -1.160850
      ESP Fit Center  694 is at  -1.942933 -2.983597 -1.160850
      ESP Fit Center  695 is at  -0.982933 -3.240828 -1.160850
      ESP Fit Center  696 is at  -0.022933 -2.983597 -1.160850
      ESP Fit Center  697 is at  -2.328141 -2.298179 -2.120850
      ESP Fit Center  698 is at  -1.496757 -2.902215 -2.120850
      ESP Fit Center  699 is at  -0.469109 -2.902215 -2.120850
      ESP Fit Center  700 is at  -1.462933 -2.152212 -2.823619
      ESP Fit Center  701 is at   0.000000  0.000000  2.240000
      ESP Fit Center  702 is at  -0.485950  0.841690  2.018170
      ESP Fit Center  703 is at  -0.971900  0.000000  2.018170
      ESP Fit Center  704 is at  -1.416834  1.029390  1.396617
      ESP Fit Center  705 is at  -1.751303  0.000000  1.396617
      ESP Fit Center  706 is at  -1.416834 -1.029390  1.396617
      ESP Fit Center  707 is at   2.604054  2.637321  0.534050
      ESP Fit Center  708 is at   1.098528  1.426835  2.805897
      ESP Fit Center  709 is at   1.578528  2.258219  2.548666
      ESP Fit Center  710 is at   0.618528  2.258219  2.548666
      ESP Fit Center  711 is at   0.138528  1.426835  2.548666
      ESP Fit Center  712 is at   0.618528  0.595451  2.548666
      ESP Fit Center  713 is at   2.443736  2.404186  1.845897
      ESP Fit Center  714 is at   1.612352  3.008222  1.845897
      ESP Fit Center  715 is at   0.584704  3.008222  1.845897
      ESP Fit Center  716 is at  -0.246680  2.404186  1.845897
      ESP Fit Center  717 is at  -0.564241  1.426835  1.845897
      ESP Fit Center  718 is at   2.761297  2.386835  0.885897
      ESP Fit Center  719 is at   2.058528  3.089604  0.885897
      ESP Fit Center  720 is at   1.098528  3.346835  0.885897
      ESP Fit Center  721 is at   0.138528  3.089604  0.885897
      ESP Fit Center  722 is at  -0.564241  2.386835  0.885897
      ESP Fit Center  723 is at   2.805822  2.425841 -0.866902
      ESP Fit Center  724 is at   2.103053  3.128610 -0.866902
      ESP Fit Center  725 is at   1.143053  3.385841 -0.866902
      ESP Fit Center  726 is at   0.183053  3.128610 -0.866902
      ESP Fit Center  727 is at   2.488261  2.443192 -1.826902
      ESP Fit Center  728 is at   1.656877  3.047228 -1.826902
      ESP Fit Center  729 is at   0.629229  3.047228 -1.826902
      ESP Fit Center  730 is at   2.103053  1.465841 -2.529671
      ESP Fit Center  731 is at   1.623053  2.297225 -2.529671
      ESP Fit Center  732 is at   0.663053  2.297225 -2.529671
      ESP Fit Center  733 is at   1.143053  1.465841 -2.786902
      ESP Fit Center  734 is at   2.959687  0.901810 -2.162325
      ESP Fit Center  735 is at   4.615219  1.651615  0.781532
      ESP Fit Center  736 is at   3.783835  2.255651  0.781532
      ESP Fit Center  737 is at   5.190011  0.674264 -0.178468
      ESP Fit Center  738 is at   4.932780  1.634264 -0.178468
      ESP Fit Center  739 is at   4.230011  2.337033 -0.178468
      ESP Fit Center  740 is at   3.270011  2.594264 -0.178468
      ESP Fit Center  741 is at   4.932780  0.674264 -1.138468
      ESP Fit Center  742 is at   4.615219  1.651615 -1.138468
      ESP Fit Center  743 is at   3.783835  2.255651 -1.138468
      ESP Fit Center  744 is at   4.615219 -0.303087 -1.138468
      ESP Fit Center  745 is at   4.230011  0.674264 -1.841237
      ESP Fit Center  746 is at   3.750011  1.505648 -1.841237
      ESP Fit Center  747 is at   4.102125 -1.675935 -0.813965
      ESP Fit Center  748 is at   4.102125 -0.715935 -1.773965
      ESP Fit Center  749 is at   3.784564 -1.693286 -1.773965
      ESP Fit Center  750 is at   3.399356 -0.715935 -2.476734
      ESP Fit Center  751 is at   2.919356  0.115449 -2.476734
      ESP Fit Center  752 is at   1.959356 -1.547319 -2.476734
      ESP Fit Center  753 is at   2.919356 -1.547319 -2.476734
      ESP Fit Center  754 is at   2.439356 -0.715935 -2.733965
      ESP Fit Center  755 is at   2.871874 -0.822447  4.362879
      ESP Fit Center  756 is at   3.943388 -0.822447  4.149742
      ESP Fit Center  757 is at   3.407631  0.105511  4.149742
      ESP Fit Center  758 is at   2.336117  0.105511  4.149742
      ESP Fit Center  759 is at   1.800360 -0.822447  4.149742
      ESP Fit Center  760 is at   3.407631 -1.750405  4.149742
      ESP Fit Center  761 is at   4.851773 -0.822447  3.542778
      ESP Fit Center  762 is at   4.586517  0.167502  3.542778
      ESP Fit Center  763 is at   3.861823  0.892196  3.542778
      ESP Fit Center  764 is at   2.871874  1.157452  3.542778
      ESP Fit Center  765 is at   1.881925  0.892196  3.542778
      ESP Fit Center  766 is at   1.157231  0.167502  3.542778
      ESP Fit Center  767 is at   0.891975 -0.822447  3.542778
      ESP Fit Center  768 is at   3.861823 -2.537090  3.542778
      ESP Fit Center  769 is at   4.586517 -1.812396  3.542778
      ESP Fit Center  770 is at   5.458737 -0.822447  2.634393
      ESP Fit Center  771 is at   5.235091  0.229725  2.634393
      ESP Fit Center  772 is at   4.602823  1.099967  2.634393
      ESP Fit Center  773 is at   3.671259  1.637806  2.634393
      ESP Fit Center  774 is at   2.601473  1.750245  2.634393
      ESP Fit Center  775 is at   0.779058  0.698073  2.634393
      ESP Fit Center  776 is at   0.341540 -0.284608  2.634393
      ESP Fit Center  777 is at   5.235091 -1.874619  2.634393
      ESP Fit Center  778 is at   5.671874 -0.822447  1.562879
      ESP Fit Center  779 is at   5.482796  0.189030  1.562879
      ESP Fit Center  780 is at   4.941099  1.063901  1.562879
      ESP Fit Center  781 is at   4.119941  1.684010  1.562879
      ESP Fit Center  782 is at   3.130225  1.965609  1.562879
      ESP Fit Center  783 is at   5.482796 -1.833924  1.562879
      ESP Fit Center  784 is at   5.458737 -0.822447  0.491365
      ESP Fit Center  785 is at   5.235091  0.229725  0.491365
      ESP Fit Center  786 is at   5.235091 -1.874619  0.491365
      ESP Fit Center  787 is at   4.851773 -0.822447 -0.417020
      ESP Fit Center  788 is at   4.586517 -1.812396 -0.417020
      ESP Fit Center  789 is at   0.458972 -0.780549  3.169750
      ESP Fit Center  790 is at  -0.420361 -3.213847  2.207424
      ESP Fit Center  791 is at   1.724171 -2.510941  4.629606
      ESP Fit Center  792 is at   2.684171 -2.510941  4.372375
      ESP Fit Center  793 is at   2.204171 -1.679557  4.372375
      ESP Fit Center  794 is at   1.244171 -1.679557  4.372375
      ESP Fit Center  795 is at   0.764171 -2.510941  4.372375
      ESP Fit Center  796 is at   1.244171 -3.342325  4.372375
      ESP Fit Center  797 is at   2.204171 -3.342325  4.372375
      ESP Fit Center  798 is at   0.378963 -1.533590  3.669606
      ESP Fit Center  799 is at   0.061402 -2.510941  3.669606
      ESP Fit Center  800 is at   0.378963 -3.488292  3.669606
      ESP Fit Center  801 is at   0.215963 -0.983946  3.146503
      ESP Fit Center  802 is at  -0.264037 -1.815330  3.146503
      ESP Fit Center  803 is at   0.182139 -0.233943  2.443734
      ESP Fit Center  804 is at  -0.649245 -0.837979  2.443734
      ESP Fit Center  805 is at  -0.966806 -1.815330  2.443734
      ESP Fit Center  806 is at  -0.649245 -2.792681  2.443734
      ESP Fit Center  807 is at  -1.224037 -1.815330  1.483734
      ESP Fit Center  808 is at  -0.966806 -2.775330  1.483734
      ESP Fit Center  809 is at  -0.649245 -2.792681  0.523734
      ESP Fit Center  810 is at   0.165306 -2.856771 -0.747608
      ESP Fit Center  811 is at   0.458299 -3.048382 -1.227859
      ESP Fit Center  812 is at   3.081068 -3.048382 -1.930628
      ESP Fit Center  813 is at   1.641068 -2.216998 -1.930628
      ESP Fit Center  814 is at   1.161068 -3.048382 -1.930628
      ESP Fit Center  815 is at   1.641068 -3.879766 -1.930628
      ESP Fit Center  816 is at   2.601068 -3.879766 -1.930628
      ESP Fit Center  817 is at   2.121068 -3.048382 -2.187859
      ESP Fit Center  818 is at   0.135140 -4.031516  2.391765
      ESP Fit Center  819 is at  -0.567629 -4.031516  1.688996
      ESP Fit Center  820 is at  -0.250068 -5.008867  1.688996
      ESP Fit Center  821 is at  -0.567629 -3.071516  0.728996
      ESP Fit Center  822 is at  -0.824860 -4.031516  0.728996
      ESP Fit Center  823 is at  -0.567629 -4.991516  0.728996
      ESP Fit Center  824 is at  -0.250068 -3.054165 -0.231004
      ESP Fit Center  825 is at  -0.567629 -4.031516 -0.231004
      ESP Fit Center  826 is at  -0.250068 -5.008867 -0.231004
      ESP Fit Center  827 is at   0.135140 -4.031516 -0.933773
      ESP Fit Center  828 is at   0.615140 -4.862900 -0.933773
      ESP Fit Center  829 is at   3.963534 -3.456840  3.753407
      ESP Fit Center  830 is at   5.407676 -4.384798  3.146443
      ESP Fit Center  831 is at   5.142420 -3.394849  3.146443
      ESP Fit Center  832 is at   4.417726 -2.670155  3.146443
      ESP Fit Center  833 is at   6.014640 -4.384798  2.238058
      ESP Fit Center  834 is at   5.790994 -3.332626  2.238058
      ESP Fit Center  835 is at   5.158726 -2.462384  2.238058
      ESP Fit Center  836 is at   5.790994 -5.436970  2.238058
      ESP Fit Center  837 is at   6.227777 -4.384798  1.166544
      ESP Fit Center  838 is at   6.038699 -3.373321  1.166544
      ESP Fit Center  839 is at   5.497002 -2.498450  1.166544
      ESP Fit Center  840 is at   4.675844 -6.891255  1.166544
      ESP Fit Center  841 is at   5.497002 -6.271146  1.166544
      ESP Fit Center  842 is at   6.038699 -5.396275  1.166544
      ESP Fit Center  843 is at   6.014640 -4.384798  0.095030
      ESP Fit Center  844 is at   5.790994 -3.332626  0.095030
      ESP Fit Center  845 is at   5.158726 -2.462384  0.095030
      ESP Fit Center  846 is at   4.227162 -6.845051  0.095030
      ESP Fit Center  847 is at   5.158726 -6.307212  0.095030
      ESP Fit Center  848 is at   5.790994 -5.436970  0.095030
      ESP Fit Center  849 is at   5.407676 -4.384798 -0.813355
      ESP Fit Center  850 is at   5.142420 -3.394849 -0.813355
      ESP Fit Center  851 is at   4.417726 -2.670155 -0.813355
      ESP Fit Center  852 is at   1.713134 -5.374747 -0.813355
      ESP Fit Center  853 is at   2.437828 -6.099441 -0.813355
      ESP Fit Center  854 is at   3.427777 -6.364697 -0.813355
      ESP Fit Center  855 is at   4.417726 -6.099441 -0.813355
      ESP Fit Center  856 is at   5.142420 -5.374747 -0.813355
      ESP Fit Center  857 is at   4.499291 -4.384798 -1.420319
      ESP Fit Center  858 is at   3.963534 -3.456840 -1.420319
      ESP Fit Center  859 is at   2.892020 -5.312756 -1.420319
      ESP Fit Center  860 is at   3.963534 -5.312756 -1.420319
      ESP Fit Center  861 is at   3.427777 -4.384798 -1.633456
      ESP Fit Center  862 is at   3.555538 -3.760781  3.971251
      ESP Fit Center  863 is at   2.162070 -4.887007  5.072491
      ESP Fit Center  864 is at   3.122070 -4.887007  4.815260
      ESP Fit Center  865 is at   2.642070 -4.055623  4.815260
      ESP Fit Center  866 is at   1.682070 -4.055623  4.815260
      ESP Fit Center  867 is at   1.202070 -4.887007  4.815260
      ESP Fit Center  868 is at   0.816862 -3.909656  4.112491
      ESP Fit Center  869 is at   0.499301 -4.887007  4.112491
      ESP Fit Center  870 is at   0.499301 -3.927007  3.152491
      ESP Fit Center  871 is at   0.242070 -4.887007  3.152491
      ESP Fit Center  872 is at   3.639308 -5.800706  4.956443
      ESP Fit Center  873 is at   4.599308 -5.800706  4.699212
      ESP Fit Center  874 is at   4.119308 -4.969322  4.699212
      ESP Fit Center  875 is at   4.119308 -6.632090  4.699212
      ESP Fit Center  876 is at   5.302077 -5.800706  3.996443
      ESP Fit Center  877 is at   4.984516 -4.823355  3.996443
      ESP Fit Center  878 is at   4.153132 -4.219319  3.996443
      ESP Fit Center  879 is at   4.153132 -7.382093  3.996443
      ESP Fit Center  880 is at   4.984516 -6.778057  3.996443
      ESP Fit Center  881 is at   5.559308 -5.800706  3.036443
      ESP Fit Center  882 is at   4.599308 -7.463475  3.036443
      ESP Fit Center  883 is at   5.302077 -6.760706  3.036443
      ESP Fit Center  884 is at   4.984516 -6.778057  2.076443
      ESP Fit Center  885 is at   1.485900 -7.575351 -0.221296
      ESP Fit Center  886 is at   2.006560 -6.673541 -0.458971
      ESP Fit Center  887 is at  -0.171140 -5.374158  2.289953
      ESP Fit Center  888 is at  -0.488701 -5.391509  1.329953
      ESP Fit Center  889 is at  -0.745932 -6.351509  1.329953
      ESP Fit Center  890 is at  -0.488701 -6.351509  0.369953
      ESP Fit Center  891 is at   0.214068 -6.351509 -0.332816
      ESP Fit Center  892 is at   0.694068 -7.182893 -0.332816
      ESP Fit Center  893 is at   1.174068 -6.351509 -0.590047
      ESP Fit Center  894 is at   4.004825 -8.258078  2.287061
      ESP Fit Center  895 is at   4.579617 -7.280727  1.327061
      ESP Fit Center  896 is at   3.619617 -8.943496  1.327061
      ESP Fit Center  897 is at   4.322386 -8.240727  1.327061
      ESP Fit Center  898 is at   4.322386 -7.280727  0.367061
      ESP Fit Center  899 is at   3.173441 -8.862114  0.367061
      ESP Fit Center  900 is at   4.004825 -8.258078  0.367061
      ESP Fit Center  901 is at   3.619617 -7.280727 -0.335708
      ESP Fit Center  902 is at   2.179617 -8.112111 -0.335708
      ESP Fit Center  903 is at   3.139617 -8.112111 -0.335708
      ESP Fit Center  904 is at   2.659617 -7.280727 -0.592939
      ESP Fit Center  905 is at   1.397134 -7.669956  6.139056
      ESP Fit Center  906 is at   2.468648 -7.669956  5.925919
      ESP Fit Center  907 is at   1.932891 -6.741998  5.925919
      ESP Fit Center  908 is at   0.861377 -6.741998  5.925919
      ESP Fit Center  909 is at   0.325620 -7.669956  5.925919
      ESP Fit Center  910 is at   0.861377 -8.597914  5.925919
      ESP Fit Center  911 is at   1.932891 -8.597914  5.925919
      ESP Fit Center  912 is at   3.377033 -7.669956  5.318955
      ESP Fit Center  913 is at   3.111777 -6.680007  5.318955
      ESP Fit Center  914 is at   2.387083 -5.955313  5.318955
      ESP Fit Center  915 is at   1.397134 -5.690057  5.318955
      ESP Fit Center  916 is at   0.407185 -5.955313  5.318955
      ESP Fit Center  917 is at  -0.317509 -6.680007  5.318955
      ESP Fit Center  918 is at  -0.582765 -7.669956  5.318955
      ESP Fit Center  919 is at  -0.317509 -8.659905  5.318955
      ESP Fit Center  920 is at   0.407185 -9.384599  5.318955
      ESP Fit Center  921 is at   1.397134 -9.649855  5.318955
      ESP Fit Center  922 is at   2.387083 -9.384599  5.318955
      ESP Fit Center  923 is at   3.111777 -8.659905  5.318955
      ESP Fit Center  924 is at   3.983997 -7.669956  4.410570
      ESP Fit Center  925 is at   0.103703 -5.429667  4.410570
      ESP Fit Center  926 is at  -0.695682 -6.149436  4.410570
      ESP Fit Center  927 is at  -1.133200 -7.132117  4.410570
      ESP Fit Center  928 is at  -1.133200 -8.207795  4.410570
      ESP Fit Center  929 is at   2.196519-10.130209  4.410570
      ESP Fit Center  930 is at   3.128083 -9.592370  4.410570
      ESP Fit Center  931 is at   3.760351 -8.722128  4.410570
      ESP Fit Center  932 is at   4.197134 -7.669956  3.339056
      ESP Fit Center  933 is at  -0.290243 -5.435508  3.339056
      ESP Fit Center  934 is at  -0.983474 -6.195946  3.339056
      ESP Fit Center  935 is at   3.466359 -9.556304  3.339056
      ESP Fit Center  936 is at   4.008056 -8.681433  3.339056
      ESP Fit Center  937 is at  -0.695682 -6.149436  2.267542
      ESP Fit Center  938 is at   3.760351 -8.722128  2.267542
      ESP Fit Center  939 is at   2.203310-10.965811  3.018119
      ESP Fit Center  940 is at   0.223792-11.417624  1.950019
      ESP Fit Center  941 is at   2.867221-10.518188  2.806028
      ESP Fit Center  942 is at   3.442013 -9.540837  1.846028
      ESP Fit Center  943 is at   1.522013-11.460837  1.846028
      ESP Fit Center  944 is at   2.482013-11.203606  1.846028
      ESP Fit Center  945 is at   3.184782-10.500837  1.846028
      ESP Fit Center  946 is at   3.184782 -9.540837  0.886028
      ESP Fit Center  947 is at   1.008189-11.122224  0.886028
      ESP Fit Center  948 is at   2.035837-11.122224  0.886028
      ESP Fit Center  949 is at   2.867221-10.518188  0.886028
      ESP Fit Center  950 is at   2.482013 -9.540837  0.183259
      ESP Fit Center  951 is at   2.002013 -8.709453  0.183259
      ESP Fit Center  952 is at   1.042013-10.372221  0.183259
      ESP Fit Center  953 is at   2.002013-10.372221  0.183259
      ESP Fit Center  954 is at   1.522013 -9.540837 -0.073972
      ESP Fit Center  955 is at   0.574028 -9.860023  5.192382
      ESP Fit Center  956 is at  -0.385972 -9.860023  4.935151
      ESP Fit Center  957 is at   0.094028-10.691407  4.935151
      ESP Fit Center  958 is at   1.054028-10.691407  4.935151
      ESP Fit Center  959 is at  -1.088741 -9.860023  4.232382
      ESP Fit Center  960 is at  -0.771180-10.837374  4.232382
      ESP Fit Center  961 is at   0.060204-11.441410  4.232382
      ESP Fit Center  962 is at   1.087852-11.441410  4.232382
      ESP Fit Center  963 is at   1.919236-10.837374  4.232382
      ESP Fit Center  964 is at  -1.088741-10.820023  3.272382
      ESP Fit Center  965 is at  -0.385972-11.522792  3.272382
      ESP Fit Center  966 is at   0.574028-11.780023  3.272382
      ESP Fit Center  967 is at   1.534028-11.522792  3.272382
      ESP Fit Center  968 is at   0.060204-11.441410  2.312382
      ESP Fit Center  969 is at  -1.770776-10.326684  3.192188
      ESP Fit Center  970 is at  -2.650109 -9.923812  2.229862
      ESP Fit Center  971 is at  -2.000856 -7.079249  1.161762
      ESP Fit Center  972 is at  -2.881825 -8.908599  1.161762
      ESP Fit Center  973 is at  -2.342386 -8.379957  0.199436
      ESP Fit Center  974 is at  -1.583319 -8.908599 -0.466513
      ESP Fit Center  975 is at  -0.021338 -9.810409 -0.466513
      ESP Fit Center  976 is at  -1.326149 -8.523044  4.257023
      ESP Fit Center  977 is at  -1.806149 -7.691660  3.999792
      ESP Fit Center  978 is at  -2.286149 -8.523044  3.999792
      ESP Fit Center  979 is at  -1.806149 -9.354428  3.999792
      ESP Fit Center  980 is at  -1.839973 -6.941657  3.297023
      ESP Fit Center  981 is at  -2.671357 -7.545693  3.297023
      ESP Fit Center  982 is at  -2.988918 -8.523044  3.297023
      ESP Fit Center  983 is at  -2.671357 -9.500395  3.297023
      ESP Fit Center  984 is at  -1.326149 -6.603044  2.337023
      ESP Fit Center  985 is at  -2.286149 -6.860275  2.337023
      ESP Fit Center  986 is at  -2.988918 -7.563044  2.337023
      ESP Fit Center  987 is at  -3.246149 -8.523044  2.337023
      ESP Fit Center  988 is at  -2.988918 -9.483044  2.337023
      ESP Fit Center  989 is at  -2.671357 -7.545693  1.377023
      ESP Fit Center  990 is at  -2.988918 -8.523044  1.377023
      ESP Fit Center  991 is at  -1.355759 -6.543804  0.882400
      ESP Fit Center  992 is at   1.267010 -8.206573 -0.077600
      ESP Fit Center  993 is at  -0.909583 -6.625186 -0.077600
      ESP Fit Center  994 is at  -1.740967 -7.229222 -0.077600
      ESP Fit Center  995 is at  -2.058528 -8.206573 -0.077600
      ESP Fit Center  996 is at   0.564241 -8.206573 -0.780369
      ESP Fit Center  997 is at   0.084241 -7.375189 -0.780369
      ESP Fit Center  998 is at  -0.875759 -7.375189 -0.780369
      ESP Fit Center  999 is at  -1.355759 -8.206573 -0.780369
      ESP Fit Center 1000 is at  -0.875759 -9.037957 -0.780369
      ESP Fit Center 1001 is at   0.084241 -9.037957 -0.780369
      ESP Fit Center 1002 is at  -0.395759 -8.206573 -1.037600
      ESP Fit Center 1003 is at  -2.228350-10.822579  2.223798
      ESP Fit Center 1004 is at  -1.396966-11.426615  2.223798
      ESP Fit Center 1005 is at  -0.369318-11.426615  2.223798
      ESP Fit Center 1006 is at  -2.803142 -9.845228  1.263798
      ESP Fit Center 1007 is at  -2.545911-10.805228  1.263798
      ESP Fit Center 1008 is at  -1.843142-11.507997  1.263798
      ESP Fit Center 1009 is at  -0.883142-11.765228  1.263798
      ESP Fit Center 1010 is at   0.076858-11.507997  1.263798
      ESP Fit Center 1011 is at  -2.545911 -9.845228  0.303798
      ESP Fit Center 1012 is at  -2.228350-10.822579  0.303798
      ESP Fit Center 1013 is at  -1.396966-11.426615  0.303798
      ESP Fit Center 1014 is at  -0.369318-11.426615  0.303798
      ESP Fit Center 1015 is at   0.462066-10.822579  0.303798
      ESP Fit Center 1016 is at  -1.843142 -9.845228 -0.398971
      ESP Fit Center 1017 is at  -1.363142-10.676612 -0.398971
      ESP Fit Center 1018 is at  -0.403142-10.676612 -0.398971
      ESP Fit Center 1019 is at  -0.883142 -9.845228 -0.656202
      ESP Fit Center 1020 is at  -3.442160  6.030848 -1.274820
      ESP Fit Center 1021 is at  -4.506971  6.183945 -1.274820
      ESP Fit Center 1022 is at  -5.485517  5.737057 -1.274820
      ESP Fit Center 1023 is at  -6.067118  4.832070 -1.274820
      ESP Fit Center 1024 is at  -6.729740  4.294189 -2.150763
      ESP Fit Center 1025 is at  -6.482709  3.211877 -2.150763
      ESP Fit Center 1026 is at  -4.790338  1.862256 -2.150763
      ESP Fit Center 1027 is at  -6.935265  4.294189 -3.184008
      ESP Fit Center 1028 is at  -6.067118  4.832070 -5.093196
      ESP Fit Center 1029 is at  -5.268510  4.294189 -5.678483
      ESP Fit Center 1030 is at  -6.665200  3.019343 -2.566053
      ESP Fit Center 1031 is at  -6.095350  2.132640 -2.566053
      ESP Fit Center 1032 is at  -5.136574  1.694781 -2.566053
      ESP Fit Center 1033 is at  -6.967592  4.063278 -3.646053
      ESP Fit Center 1034 is at  -6.967592  3.029434 -3.646053
      ESP Fit Center 1035 is at  -6.487141  2.114011 -3.646053
      ESP Fit Center 1036 is at  -5.636305  1.526721 -3.646053
      ESP Fit Center 1037 is at  -6.665200  4.073369 -4.726053
      ESP Fit Center 1038 is at  -6.665200  3.019343 -4.726053
      ESP Fit Center 1039 is at  -6.095350  2.132640 -4.726053
      ESP Fit Center 1040 is at  -5.950358  3.546356 -5.516668
      ESP Fit Center 1041 is at  -5.410358  2.611049 -5.516668
      ESP Fit Center 1042 is at  -4.870358  3.546356 -5.806053
      ESP Fit Center 1043 is at  -4.172811  4.076297  0.036379
      ESP Fit Center 1044 is at  -3.092811  4.076297 -0.253006
      ESP Fit Center 1045 is at  -3.632811  5.011604 -0.253006
      ESP Fit Center 1046 is at  -4.712811  5.011604 -0.253006
      ESP Fit Center 1047 is at  -5.252811  4.076297 -0.253006
      ESP Fit Center 1048 is at  -4.712811  3.140990 -0.253006
[...]
 1313 Fit       0.011276
 1314 Fit       0.000704
 1315 Fit      -0.002872
 1316 Fit      -0.006567
 1317 Fit      -0.003894
 1318 Fit       0.001286
 1319 Fit       0.005744
 1320 Fit      -0.001578
 1321 Fit       0.003010
 1322 Fit      -0.016920
 1323 Fit      -0.008223
 1324 Fit      -0.000474
 1325 Fit      -0.000289
 1326 Fit       0.007621
 1327 Fit       0.007104
 1328 Fit       0.012471
 1329 Fit       0.007844
 1330 Fit       0.003467
 1331 Fit       0.011812
 1332 Fit       0.008944
 1333 Fit       0.009951
 1334 Fit       0.009513
 1335 Fit       0.011408
 1336 Fit       0.010928
 1337 Fit       0.011622
 1338 Fit       0.013926
 1339 Fit       0.010344
 1340 Fit       0.008979
 1341 Fit      -0.011496
 1342 Fit      -0.013372
 1343 Fit      -0.022496
 1344 Fit      -0.018158
 1345 Fit      -0.027261
 1346 Fit      -0.035712
 1347 Fit      -0.008215
 1348 Fit      -0.020668
 1349 Fit      -0.027967
 1350 Fit      -0.036721
 1351 Fit      -0.000306
 1352 Fit      -0.006548
 1353 Fit      -0.013349
 1354 Fit      -0.021192
 1355 Fit      -0.025454
 1356 Fit      -0.030720
 1357 Fit      -0.006620
 1358 Fit      -0.012143
 1359 Fit      -0.016714
 1360 Fit      -0.020067
 1361 Fit      -0.020557
 1362 Fit      -0.020157
 1363 Fit      -0.012108
 1364 Fit      -0.016244
 1365 Fit      -0.018618
 1366 Fit      -0.017328
 1367 Fit      -0.013615
 1368 Fit      -0.005893
 1369 Fit      -0.000137
 1370 Fit      -0.007689
 1371 Fit      -0.013565
 1372 Fit      -0.017376
 1373 Fit      -0.018543
 1374 Fit      -0.012751
 1375 Fit      -0.003145
 1376 Fit      -0.009282
 1377 Fit      -0.014851
 1378 Fit      -0.006197
 1379 Fit      -0.006024
 1380 Fit      -0.002765
 1381 Fit      -0.005333
 1382 Fit      -0.003678
 1383 Fit      -0.000580
 1384 Fit       0.001880
 1385 Fit      -0.004633
 1386 Fit       0.001234
 1387 Fit       0.006516
 1388 Fit      -0.006208
 1389 Fit      -0.003577
 1390 Fit      -0.004116
 1391 Fit      -0.008738
 1392 Fit      -0.002706
 1393 Fit      -0.006584
 1394 Fit      -0.002880
 1395 Fit      -0.003902
 1396 Fit      -0.002958
 1397 Fit      -0.001194
 1398 Fit       0.007884
 1399 Fit      -0.000659
 1400 Fit       0.008780
 1401 Fit       0.008556
 1402 Fit       0.013837
 1403 Fit       0.012661
 1404 Fit       0.006135
 1405 Fit      -0.000608
 1406 Fit       0.005093
 1407 Fit       0.001822
 1408 Fit      -0.005108
 1409 Fit       0.007942
 1410 Fit       0.002753
 1411 Fit      -0.005271
 1412 Fit       0.007664
 1413 Fit       0.004251
 1414 Fit      -0.000596
 1415 Fit      -0.016906
 1416 Fit      -0.018540
 1417 Fit      -0.016923
 1418 Fit      -0.017431
 1419 Fit      -0.015556
 1420 Fit      -0.012341
 1421 Fit      -0.015913
 1422 Fit      -0.019162
 1423 Fit      -0.015081
 1424 Fit      -0.012085
 1425 Fit      -0.012793
 1426 Fit      -0.016677
 1427 Fit      -0.018217
 1428 Fit      -0.014475
 1429 Fit      -0.008115
 1430 Fit      -0.004287
 1431 Fit      -0.007183
 1432 Fit      -0.014408
 1433 Fit      -0.019559
 1434 Fit      -0.016811
 1435 Fit      -0.010672
 1436 Fit      -0.016989
 1437 Fit      -0.017527
 1438 Fit      -0.012223
 1439 Fit      -0.004414
 1440 Fit      -0.008811
 1441 Fit      -0.016736
 1442 Fit      -0.019857
 1443 Fit      -0.010467
 1444 Fit      -0.006489
 1445 Fit      -0.013813
 1446 Fit      -0.013594
 1447 Fit      -0.007662
 1448 Fit      -0.014305
 1449 Fit      -0.015963
 1450 Fit       0.003074
 1451 Fit      -0.005912
 1452 Fit      -0.006540
 1453 Fit      -0.008162
 1454 Fit       0.005443
 1455 Fit      -0.001324
 1456 Fit       0.002705
 1457 Fit       0.006450
 1458 Fit       0.005284
 1459 Fit       0.003937
 1460 Fit       0.008491
 1461 Fit       0.008629
 1462 Fit       0.007915
 1463 Fit       0.007669
 1464 Fit       0.009875
 1465 Fit       0.009393
 1466 Fit       0.009196
 1467 Fit       0.009930
 1468 Fit       0.002710
 1469 Fit       0.004906
 1470 Fit       0.002308
 1471 Fit       0.002979
 1472 Fit       0.005958
 1473 Fit       0.007222
 1474 Fit       0.006791
 1475 Fit       0.004423
 1476 Fit      -0.000758
 1477 Fit       0.008215
 1478 Fit       0.008144
 1479 Fit       0.006757
 1480 Fit       0.004325
 1481 Fit       0.005199
 1482 Fit       0.001668
 1483 Fit       0.003067
 1484 Fit       0.002769
 1485 Fit       0.002683
 1486 Fit       0.003737
 1487 Fit       0.004768
 1488 Fit       0.006225
 1489 Fit      -0.006563
 1490 Fit       0.000415
 1491 Fit       0.002817
 1492 Fit      -0.010431
 1493 Fit      -0.001405
 1494 Fit       0.001929
 1495 Fit       0.002972
 1496 Fit       0.003475
 1497 Fit      -0.000754
 1498 Fit       0.001670
 1499 Fit       0.002849
 1500 Fit       0.003039
 1501 Fit       0.002492
 1502 Fit       0.002625
 1503 Fit       0.008618
 1504 Fit       0.004006
 1505 Fit       0.012376
 1506 Fit       0.007501
 1507 Fit       0.004744
 1508 Fit       0.008576
 1509 Fit       0.010023
 1510 Fit       0.008631
 1511 Fit       0.005969
 1512 Fit       0.005370
 1513 Fit       0.006762
 1514 Fit       0.007507
 1515 Fit       0.005699
 1516 Fit       0.007836
 1517 Fit       0.004089
 1518 Fit       0.006016
 1519 Fit       0.007515
 1520 Fit       0.008408
 1521 Fit       0.009156
 1522 Fit       0.005093
 1523 Fit       0.006843
 1524 Fit       0.007878
 1525 Fit       0.008270
 1526 Fit       0.009234
 1527 Fit       0.004932
 1528 Fit       0.006551
 1529 Fit       0.007021
 1530 Fit       0.005485
 1531 Fit       0.004738
 1532 Fit       0.003988
 1533 Fit       0.003121
 1534 Fit       0.002246
 1535 Fit       0.007017
 1536 Fit       0.002385
 1537 Fit       0.001453
 1538 Fit       0.000289
 1539 Fit      -0.002384
 1540 Fit      -0.007866
 1541 Fit       0.003348
 1542 Fit       0.002696
 1543 Fit       0.004636
 1544 Fit       0.006084
 1545 Fit       0.007885
 1546 Fit       0.010632
 1547 Fit      -0.000332
 1548 Fit       0.003495
 1549 Fit       0.003329
 1550 Fit       0.002037
 1551 Fit      -0.001929
 1552 Fit       0.005407
 1553 Fit       0.005759
 1554 Fit       0.005707
 1555 Fit       0.007041
 1556 Fit       0.007723
 1557 Fit       0.008950
 1558 Fit       0.009502
 1559 Fit       0.011629
 1560 Fit       0.012668
 1561 Fit       0.002077
 1562 Fit       0.001145
 1563 Fit       0.002904
 1564 Fit       0.002917
 1565 Fit       0.002180
 1566 Fit       0.001019
 1567 Fit       0.000132
 1568 Fit      -0.001272
 1569 Fit       0.002915
 1570 Fit       0.004177
 1571 Fit       0.003687
 1572 Fit       0.002940
 1573 Fit       0.002184
 1574 Fit       0.001296
 1575 Fit      -0.000129
 1576 Fit      -0.001805
 1577 Fit       0.006856
 1578 Fit       0.006110
 1579 Fit       0.005226
 1580 Fit       0.003831
 1581 Fit       0.008588
 1582 Fit       0.007746
 1583 Fit       0.006849
 1584 Fit       0.005579
 1585 Fit       0.004069
 1586 Fit       0.010025
 1587 Fit       0.008937
 1588 Fit       0.007922
 1589 Fit       0.006639
 1590 Fit       0.005283
 1591 Fit       0.011786
 1592 Fit       0.009896
 1593 Fit       0.008543
 1594 Fit       0.007189
 1595 Fit       0.009907
 1596 Fit      -0.002136
 1597 Fit       0.011705
 1598 Fit       0.001969
 1599 Fit       0.004802
 1600 Fit       0.007400
 1601 Fit       0.009422
 1602 Fit       0.011022
 1603 Fit       0.012024
 1604 Fit       0.009993
 1605 Fit       0.011309
 1606 Fit       0.008858
 1607 Fit       0.008671
 1608 Fit       0.009620
 1609 Fit       0.010606
 1610 Fit       0.011166
 1611 Fit       0.011323
 1612 Fit       0.012240
 1613 Fit       0.011306
 1614 Fit       0.010623
 1615 Fit       0.011212
 1616 Fit       0.011959
 1617 Fit       0.012018
 1618 Fit       0.002860
 1619 Fit       0.001445
 1620 Fit       0.004994
 1621 Fit       0.005843
 1622 Fit       0.000706
 1623 Fit       0.004821
 1624 Fit       0.006868
 1625 Fit       0.007807
 1626 Fit      -0.000141
 1627 Fit       0.004577
 1628 Fit       0.006971
 1629 Fit       0.008380
 1630 Fit       0.009459
 1631 Fit      -0.000128
 1632 Fit       0.004772
 1633 Fit       0.007242
 1634 Fit       0.008854
 1635 Fit       0.010466
 1636 Fit       0.008452
 1637 Fit      -0.003974
 1638 Fit      -0.003792
 1639 Fit      -0.004286
 1640 Fit       0.000139
 1641 Fit      -0.004137
 1642 Fit      -0.001569
 1643 Fit       0.003921
 1644 Fit       0.003609
 1645 Fit       0.012303
 1646 Fit       0.011626
 1647 Fit       0.012051
 1648 Fit       0.011378
 1649 Fit       0.007599
 1650 Fit       0.007109
 1651 Fit       0.011778
 1652 Fit       0.010269
 1653 Fit       0.010923
 1654 Fit       0.012645
 1655 Fit       0.014096
 1656 Fit       0.012125
 1657 Fit       0.011692
 1658 Fit       0.012232
 1659 Fit       0.012192
 1660 Fit       0.012830
 1661 Fit       0.013210
 1662 Fit       0.012247
 1663 Fit       0.001353
 1664 Fit      -0.005990
 1665 Fit       0.005895
 1666 Fit       0.002782
 1667 Fit       0.011333
 1668 Fit       0.009320
 1669 Fit       0.008244
 1670 Fit       0.011496
 1671 Fit       0.011172
 1672 Fit       0.012187
 1673 Fit       0.013219
 1674 Fit       0.014683
 1675 Fit      -0.005390
 1676 Fit       0.000669
 1677 Fit       0.002310
 1678 Fit       0.001550
 1679 Fit       0.003184
 1680 Fit       0.005754
 1681 Fit       0.008477
 1682 Fit       0.009357
 1683 Fit       0.007523
 1684 Fit       0.007968
 1685 Fit       0.009351
 1686 Fit       0.010968
 1687 Fit       0.013116
 1688 Fit       0.012987
 1689 Fit       0.010883
 1690 Fit       0.011385
 1691 Fit       0.013387
 1692 Fit       0.017202
 1693 Fit       0.012990
 1694 Fit       0.004028
 1695 Fit       0.013428
 1696 Fit       0.010850
 1697 Fit       0.005225
 1698 Fit       0.014193
 1699 Fit       0.012265
 1700 Fit       0.010736
 1701 Fit       0.012501
 1702 Fit      -0.011704
 1703 Fit      -0.013983
 1704 Fit      -0.014300
 1705 Fit      -0.011422
 1706 Fit      -0.014587
 1707 Fit      -0.016268
 1708 Fit      -0.015481
 1709 Fit      -0.012114
 1710 Fit      -0.009199
 1711 Fit      -0.012355
 1712 Fit      -0.011878
 1713 Fit      -0.008442
 1714 Fit      -0.002575
 1715 Fit      -0.003687
 1716 Fit      -0.002176
 1717 Fit      -0.006819
 1718 Fit      -0.011181
 1719 Fit      -0.004480
 1720 Fit      -0.003659
 1721 Fit      -0.006593
 1722 Fit      -0.002572
 1723 Fit      -0.001413
 1724 Fit      -0.001455
 1725 Fit      -0.002114
 1726 Fit      -0.002773
 1727 Fit      -0.002189
 1728 Fit      -0.003379
 1729 Fit      -0.004412
 1730 Fit      -0.004214
 1731 Fit      -0.006892
 1732 Fit      -0.009294
 1733 Fit      -0.012249
 1734 Fit       0.002704
 1735 Fit      -0.001292
 1736 Fit      -0.002502
 1737 Fit       0.008678
 1738 Fit       0.001136
 1739 Fit       0.015551
 1740 Fit       0.015646
 1741 Fit       0.017388
 1742 Fit       0.006872
 1743 Fit       0.011018
 1744 Fit       0.013822
 1745 Fit       0.015070
 1746 Fit       0.011826
 1747 Fit      -0.001292
 1748 Fit       0.002362
 1749 Fit       0.007389
 1750 Fit      -0.001033
 1751 Fit       0.003057
 1752 Fit       0.007282
 1753 Fit      -0.006379
 1754 Fit       0.000634
 1755 Fit       0.005323
 1756 Fit       0.008464
 1757 Fit      -0.004915
 1758 Fit       0.002783
 1759 Fit       0.006998
 1760 Fit      -0.014852
 1761 Fit      -0.016585
 1762 Fit      -0.014839
 1763 Fit      -0.015167
 1764 Fit      -0.012606
 1765 Fit      -0.007061
 1766 Fit      -0.006646
 1767 Fit       0.007719
 1768 Fit       0.000628
 1769 Fit       0.010217
 1770 Fit      -0.007598
 1771 Fit      -0.005496
 1772 Fit      -0.010343
 1773 Fit      -0.000682
 1774 Fit      -0.000030
 1775 Fit      -0.002211
 1776 Fit      -0.007733
 1777 Fit       0.003954
 1778 Fit       0.003854
 1779 Fit       0.002722
 1780 Fit       0.000149
 1781 Fit      -0.005251
 1782 Fit       0.008006
 1783 Fit       0.005568
 1784 Fit       0.011057
 1785 Fit       0.008246
 1786 Fit       0.004754
 1787 Fit       0.012964
 1788 Fit       0.010043
 1789 Fit       0.004962
 1790 Fit       0.015886
 1791 Fit       0.012613
 1792 Fit      -0.001621
 1793 Fit       0.006832
 1794 Fit       0.014177
 1795 Fit       0.001169
 1796 Fit       0.004837
 1797 Fit       0.007579
 1798 Fit       0.000375
 1799 Fit       0.004674
 1800 Fit       0.007697
 1801 Fit       0.010251
 1802 Fit       0.004651
 1803 Fit       0.007826
 1804 Fit       0.010671
 1805 Fit       0.008513
 1806 Fit       0.011464
 1807 Fit       0.005537
 1808 Fit       0.009726
 1809 Fit       0.005318
 1810 Fit       0.010393
 1811 Fit       0.013843
 1812 Fit       0.011707
 1813 Fit       0.015243
 1814 Fit      -0.013361
 1815 Fit      -0.016129
 1816 Fit      -0.017408
 1817 Fit      -0.016213
 1818 Fit      -0.010983
 1819 Fit      -0.011103
 1820 Fit      -0.018982
 1821 Fit      -0.018644
 1822 Fit      -0.018173
 1823 Fit      -0.017940
 1824 Fit      -0.017275
 1825 Fit      -0.014987
 1826 Fit      -0.009509
 1827 Fit      -0.012299
 1828 Fit      -0.017715
 1829 Fit      -0.021449
 1830 Fit      -0.018875
 1831 Fit      -0.016607
 1832 Fit      -0.015264
 1833 Fit      -0.014675
 1834 Fit      -0.014401
 1835 Fit      -0.014809
 1836 Fit      -0.014364
 1837 Fit      -0.023573
 1838 Fit      -0.022701
 1839 Fit      -0.018015
 1840 Fit      -0.013761
 1841 Fit      -0.010577
 1842 Fit      -0.008577
 1843 Fit      -0.006895
 1844 Fit      -0.027769
 1845 Fit      -0.021762
 1846 Fit      -0.015605
 1847 Fit      -0.009675
 1848 Fit      -0.004639
 1849 Fit      -0.001023
 1850 Fit       0.001860
 1851 Fit      -0.028343
 1852 Fit      -0.017953
 1853 Fit      -0.010147
 1854 Fit      -0.025240
 1855 Fit      -0.011312
 1856 Fit      -0.017285
 1857 Fit      -0.005394
 1858 Fit      -0.003794
 1859 Fit       0.000482
 1860 Fit       0.004204
 1861 Fit       0.006654
 1862 Fit      -0.001042
 1863 Fit      -0.003859
 1864 Fit      -0.004399
 1865 Fit      -0.000266
 1866 Fit       0.002744
 1867 Fit      -0.007272
 1868 Fit      -0.002194
 1869 Fit       0.001276
 1870 Fit      -0.013218
 1871 Fit      -0.007050
 1872 Fit      -0.001259
 1873 Fit      -0.005116
 1874 Fit       0.001699
 1875 Fit       0.003856
 1876 Fit       0.009268
 1877 Fit       0.007161
 1878 Fit       0.009768
 1879 Fit       0.006444
 1880 Fit       0.011266
 1881 Fit       0.007165
 1882 Fit       0.003612
 1883 Fit       0.010350
 1884 Fit       0.006867
 1885 Fit       0.007883
 1886 Fit       0.009632
 1887 Fit       0.009069
 1888 Fit       0.011016
 1889 Fit       0.009902
 1890 Fit       0.011082
 1891 Fit       0.007690
 1892 Fit      -0.009353
 1893 Fit      -0.011033
 1894 Fit      -0.017568
 1895 Fit      -0.014780
 1896 Fit      -0.021865
 1897 Fit      -0.006966
 1898 Fit      -0.017116
 1899 Fit      -0.023236
 1900 Fit      -0.030346
 1901 Fit      -0.005370
 1902 Fit      -0.011044
 1903 Fit      -0.017991
 1904 Fit      -0.022232
 1905 Fit      -0.027295
 1906 Fit      -0.005416
 1907 Fit      -0.009642
 1908 Fit      -0.013783
 1909 Fit      -0.017595
 1910 Fit      -0.019874
 1911 Fit      -0.022340
 1912 Fit      -0.008093
 1913 Fit      -0.012005
 1914 Fit      -0.014990
 1915 Fit      -0.016037
 1916 Fit      -0.015737
 1917 Fit      -0.014002
 1918 Fit      -0.010135
 1919 Fit      -0.013462
 1920 Fit      -0.015273
 1921 Fit      -0.013280
 1922 Fit      -0.010112
 1923 Fit      -0.003248
 1924 Fit       0.000767
 1925 Fit      -0.004866
 1926 Fit      -0.009583
 1927 Fit      -0.012869
 1928 Fit      -0.014119
 1929 Fit      -0.009214
 1930 Fit      -0.001876
 1931 Fit      -0.005815
 1932 Fit      -0.010343
 1933 Fit      -0.003882
 1934 Fit      -0.004090
 1935 Fit      -0.005321
 1936 Fit      -0.005092
 1937 Fit      -0.002249
 1938 Fit      -0.000714
 1939 Fit      -0.001683
 1940 Fit      -0.007289
 1941 Fit      -0.005108
 1942 Fit      -0.005025
 1943 Fit      -0.004165
 1944 Fit      -0.006620
 1945 Fit      -0.004880
 1946 Fit      -0.004745
 1947 Fit      -0.005357
 1948 Fit      -0.003030
 1949 Fit      -0.001822
 1950 Fit      -0.002759
 1951 Fit       0.006378
 1952 Fit       0.005681
 1953 Fit       0.011469
 1954 Fit       0.012332
 1955 Fit       0.010566
 1956 Fit       0.005112
 1957 Fit      -0.000676
 1958 Fit       0.004271
 1959 Fit       0.000546
 1960 Fit       0.005988
 1961 Fit       0.001100
 1962 Fit      -0.005651
 1963 Fit       0.005949
 1964 Fit       0.002651
 1965 Fit      -0.001075
 1966 Fit      -0.013993
 1967 Fit      -0.015092
 1968 Fit      -0.014216
 1969 Fit      -0.014297
 1970 Fit      -0.012895
 1971 Fit      -0.010870
 1972 Fit      -0.013210
 1973 Fit      -0.015522
 1974 Fit      -0.013224
 1975 Fit      -0.011348
 1976 Fit      -0.011582
 1977 Fit      -0.013668
 1978 Fit      -0.014356
 1979 Fit      -0.011829
 1980 Fit      -0.007736
 1981 Fit      -0.005387
 1982 Fit      -0.007298
 1983 Fit      -0.011981
 1984 Fit      -0.015468
 1985 Fit      -0.014235
 1986 Fit      -0.010094
 1987 Fit      -0.009770
 1988 Fit      -0.013544
 1989 Fit      -0.013694
 1990 Fit      -0.010127
 1991 Fit      -0.004849
 1992 Fit       0.000085
 1993 Fit      -0.008003
 1994 Fit      -0.013490
 1995 Fit      -0.015833
 1996 Fit      -0.010448
 1997 Fit      -0.004029
 1998 Fit      -0.010358
 1999 Fit      -0.012068
 2000 Fit      -0.009127
 2001 Fit      -0.008256
 2002 Fit      -0.012730
 2003 Fit      -0.013775
 2004 Fit       0.000137
 2005 Fit      -0.006200
 2006 Fit      -0.007589
 2007 Fit      -0.005541
 2008 Fit      -0.008941
 2009 Fit      -0.009240
 2010 Fit       0.003040
 2011 Fit      -0.001534
 2012 Fit      -0.001691
 2013 Fit      -0.002989
 2014 Fit       0.003557
 2015 Fit       0.000442
 2016 Fit       0.006476
 2017 Fit       0.002713
 2018 Fit       0.000320
 2019 Fit       0.004418
 2020 Fit       0.006093
 2021 Fit       0.005216
 2022 Fit       0.004405
 2023 Fit       0.007454
 2024 Fit       0.007877
 2025 Fit       0.007113
 2026 Fit       0.006799
 2027 Fit       0.008321
 2028 Fit       0.007969
 2029 Fit       0.008659
 2030 Fit       0.000778
 2031 Fit       0.002794
 2032 Fit       0.000489
 2033 Fit       0.004057
 2034 Fit       0.005238
 2035 Fit       0.004848
 2036 Fit       0.002703
 2037 Fit      -0.002094
 2038 Fit       0.005905
 2039 Fit       0.006616
 2040 Fit       0.006251
 2041 Fit       0.004869
 2042 Fit       0.002340
 2043 Fit       0.007206
 2044 Fit       0.005831
 2045 Fit       0.004560
 2046 Fit       0.003412
 2047 Fit       0.005396
 2048 Fit       0.003326
 2049 Fit       0.002861
 2050 Fit       0.002456
 2051 Fit       0.002702
 2052 Fit       0.003557
 2053 Fit       0.002843
 2054 Fit       0.003270
 2055 Fit       0.008889
 2056 Fit       0.003965
 2057 Fit       0.004024
 2058 Fit       0.007903
 2059 Fit       0.004788
 2060 Fit       0.005854
 2061 Fit      -0.000928
 2062 Fit       0.001620
 2063 Fit      -0.003064
 2064 Fit       0.000488
 2065 Fit       0.001939
 2066 Fit       0.002947
 2067 Fit      -0.004577
 2068 Fit      -0.000586
 2069 Fit       0.001411
 2070 Fit       0.002330
 2071 Fit       0.002686
 2072 Fit       0.001529
 2073 Fit       0.002142
 2074 Fit       0.002493
 2075 Fit       0.006058
 2076 Fit       0.008699
 2077 Fit       0.010519
 2078 Fit       0.007017
 2079 Fit       0.004824
 2080 Fit       0.007335
 2081 Fit       0.008343
 2082 Fit       0.007500
 2083 Fit       0.005625
 2084 Fit       0.005310
 2085 Fit       0.006274
 2086 Fit       0.006665
 2087 Fit       0.005085
 2088 Fit       0.007220
 2089 Fit       0.004046
 2090 Fit       0.005480
 2091 Fit       0.006686
 2092 Fit       0.007643
 2093 Fit       0.004637
 2094 Fit       0.005906
 2095 Fit       0.006813
 2096 Fit       0.007379
 2097 Fit       0.008132
 2098 Fit       0.004650
 2099 Fit       0.005869
 2100 Fit       0.006667
 2101 Fit       0.007083
 2102 Fit       0.007875
 2103 Fit       0.004666
 2104 Fit       0.005693
 2105 Fit       0.006185
 2106 Fit       0.005254
 Job cpu time:       0 days  0 hours  4 minutes 56.5 seconds.
 Normal termination of Gaussian 16 at Sat Jul  8 21:03:17 2023.
