 Copyright (c) 1988-2019, Gaussian, Inc.  All Rights Reserved.
  
 This is part of the Gaussian(R) 16 program.  It is based on
 the Gaussian(R) 09 system (copyright 2009, Gaussian, Inc.),
 the Gaussian(R) 03 system (copyright 2003, Gaussian, Inc.),
 the Gaussian(R) 98 system (copyright 1998, Gaussian, Inc.),
 the Gaussian(R) 94 system (copyright 1995, Gaussian, Inc.),
 the Gaussian 92(TM) system (copyright 1992, Gaussian, Inc.),
 the Gaussian 90(TM) system (copyright 1990, Gaussian, Inc.),
 the Gaussian 88(TM) system (copyright 1988, Gaussian, Inc.),
 the Gaussian 86(TM) system (copyright 1986, Carnegie Mellon
 University), and the Gaussian 82(TM) system (copyright 1983,
 Carnegie Mellon University). Gaussian is a federally registered
 trademark of Gaussian, Inc.
 Cite this work as:
 Gaussian 16, Revision C.01,
 M. J. Frisch, G. W. Trucks, H. B. Schlegel, G. E. Scuseria, 
 M. A. Robb, J. R. Cheeseman, G. Scalmani, V. Barone, 
 G. A. Petersson, H. Nakatsuji, X. Li, M. Caricato, A. V. Marenich, 
 J. Bloino, B. G. Janesko, R. Gomperts, B. Mennucci, H. P. Hratchian, 
 J. V. Ortiz, A. F. Izmaylov, J. L. Sonnenberg, D. Williams-Young, 
 F. Ding, F. Lipparini, F. Egidi, J. Goings, B. Peng, A. Petrone, 
 T. Henderson, D. Ranasinghe, V. G. Zakrzewski, J. Gao, N. Rega, 
 G. Zheng, W. Liang, M. Hada, M. Ehara, K. Toyota, R. Fukuda, 
 J. Hasegawa, M. Ishida, T. Nakajima, Y. Honda, O. Kitao, H. Nakai, 
 T. Vreven, K. Throssell, J. A. Montgomery, Jr., J. E. Peralta, 
 F. Ogliaro, M. J. Bearpark, J. J. Heyd, E. N. Brothers, K. N. Kudin, 
 V. N. Staroverov, T. A. Keith, R. Kobayashi, J. Normand, 
 K. Raghavachari, A. P. Rendell, J. C. Burant, S. S. Iyengar, 
 J. Tomasi, M. Cossi, J. M. Millam, M. Klene, C. Adamo, R. Cammi, 
 J. W. Ochterski, R. L. Martin, K. Morokuma, O. Farkas, 
 J. B. Foresman, and D. J. Fox, Gaussian, Inc., Wallingford CT, 2019.
 
 ******************************************
 Gaussian 16:  EM64L-G16RevC.01  3-Jul-2019
                 8-Jul-2023 
 ******************************************
 ----------------------------------------------------------------------
 #P HF/6-31G(d) SCF(Conver=8,XQC,MaxConventionalCycles=64,MaxCycle=128)
  NoSymm Test Pop=mk IOp(6/33=2) GFInput GFPrint
 ----------------------------------------------------------------------
 1/38=1,172=1/1;
 2/12=2,15=1,17=6,18=5,40=1/2;
 3/5=1,6=6,7=1,11=9,24=110,25=1,30=1/1,2,3;
 4//1;
 5/5=2,6=8,7=128,8=3,13=1,38=5,85=64/2,8;
 6/7=2,8=2,9=2,10=2,15=8,20=1,28=1,33=2/1,2;
 99/5=1,9=1/99;
 -------------------------------------------------
 MEP step - Input generated by PyRED DVE-DMDS-OPLS
 -------------------------------------------------
 Symbolic Z-matrix:
 Charge =  0 Multiplicity = 1
 C                    -6.12624   3.2796   -2.28501 
 H                    -5.86784   2.2844   -2.62899 
 H                    -6.5118    3.20222  -1.2746 
 H                    -6.91041   3.67259  -2.92439 
 C                    -4.90988   4.18356  -2.32009 
 H                    -4.52725   4.2693   -3.33586 
 H                    -5.17135   5.18687  -1.98544 
 O                    -3.92724   3.64314  -1.4843 
 C                    -2.74651   4.38356  -1.41763 
 H                    -2.93945   5.36342  -0.97895 
 H                    -2.33345   4.53588  -2.41239 
 C                    -1.73332   3.64575  -0.56687 
 H                    -0.8847    4.29862  -0.39437 
 H                    -2.17448   3.41062   0.39779 
 O                    -1.2462    2.49807  -1.19992 
 C                    -1.88162   1.27929  -0.90559 
 H                    -1.78464   0.65791  -1.78713 
 H                    -2.93691   1.43651  -0.71718 
 C                    -1.25437   0.55455   0.27387 
 H                    -1.89277  -0.28013   0.54152 
 H                    -1.19494   1.21556   1.13759 
 O                     0.        0.        0. 
 C                     1.09603   0.87077   0. 
 H                     1.07624   1.49933   0.88852 
 H                     1.0816    1.51833  -0.86655 
 C                     2.34367   0.        0. 
 H                     2.35877  -0.60381  -0.89885 
 H                     2.31357  -0.65972   0.85653 
 S                     3.83093   1.04721   0.04741 
 C                     5.14323  -0.17593  -0.24919 
 H                     4.89406  -0.76722  -1.12114 
 H                     6.01699   0.41276  -0.49676 
 C                     5.42928  -1.07786   0.94877 
 H                     4.54482  -1.64289   1.21317 
 H                     5.70017  -0.48593   1.81364 
 S                     6.703    -2.3467    0.66298 
 C                     8.26015  -1.39362   0.69248 
 H                     8.97752  -2.00535   1.22276 
 H                     8.11145  -0.50004   1.28376 
 C                     8.80631  -1.06537  -0.69743 
 H                     8.9237   -1.98115  -1.26122 
 H                     8.12444  -0.43818  -1.2566 
 S                     10.44746  -0.26893  -0.6663 
 C                     10.05776   1.49817  -0.86308 
 H                     11.01829   1.95747  -1.06472 
 H                     9.4562    1.62341  -1.75596 
 C                     9.39948   2.17675   0.33386 
 H                     9.29501   3.24127   0.14422 
 H                     8.40752   1.78214   0.52452 
 H                     9.99322   2.04618   1.23114 
 
 ITRead=  0  0  0  0  0  0  0  0  0  0  0  0  0  0  0  0  0  0  0  0
 ITRead=  0  0  0  0  0  0  0  0  0  0  0  0  0  0  0  0  0  0  0  0
 ITRead=  0  0  0  0  0  0  0  0  0  0
 MicOpt= -1 -1 -1 -1 -1 -1 -1 -1 -1 -1 -1 -1 -1 -1 -1 -1 -1 -1 -1 -1
 MicOpt= -1 -1 -1 -1 -1 -1 -1 -1 -1 -1 -1 -1 -1 -1 -1 -1 -1 -1 -1 -1
 MicOpt= -1 -1 -1 -1 -1 -1 -1 -1 -1 -1
 NAtoms=     50 NQM=       50 NQMF=       0 NMMI=      0 NMMIF=      0
                NMic=       0 NMicF=      0.
                          Input orientation:                          
 ---------------------------------------------------------------------
 Center     Atomic      Atomic             Coordinates (Angstroms)
 Number     Number       Type             X           Y           Z
 ---------------------------------------------------------------------
      1          6           0       -6.126238    3.279602   -2.285008
      2          1           0       -5.867835    2.284397   -2.628989
      3          1           0       -6.511797    3.202215   -1.274600
      4          1           0       -6.910411    3.672593   -2.924393
      5          6           0       -4.909881    4.183557   -2.320087
      6          1           0       -4.527251    4.269304   -3.335855
      7          1           0       -5.171348    5.186873   -1.985439
      8          8           0       -3.927240    3.643139   -1.484296
      9          6           0       -2.746511    4.383557   -1.417629
     10          1           0       -2.939450    5.363424   -0.978951
     11          1           0       -2.333449    4.535883   -2.412385
     12          6           0       -1.733324    3.645748   -0.566866
     13          1           0       -0.884695    4.298621   -0.394370
     14          1           0       -2.174476    3.410620    0.397786
     15          8           0       -1.246200    2.498070   -1.199922
     16          6           0       -1.881620    1.279293   -0.905585
     17          1           0       -1.784640    0.657914   -1.787132
     18          1           0       -2.936913    1.436507   -0.717182
     19          6           0       -1.254366    0.554548    0.273867
     20          1           0       -1.892771   -0.280127    0.541519
     21          1           0       -1.194939    1.215561    1.137593
     22          8           0        0.000000    0.000000    0.000000
     23          6           0        1.096034    0.870765    0.000000
     24          1           0        1.076235    1.499333    0.888519
     25          1           0        1.081600    1.518330   -0.866554
     26          6           0        2.343665    0.000000    0.000000
     27          1           0        2.358771   -0.603812   -0.898847
     28          1           0        2.313572   -0.659721    0.856525
     29         16           0        3.830933    1.047211    0.047413
     30          6           0        5.143232   -0.175934   -0.249189
     31          1           0        4.894058   -0.767218   -1.121143
     32          1           0        6.016991    0.412762   -0.496761
     33          6           0        5.429275   -1.077859    0.948770
     34          1           0        4.544817   -1.642893    1.213166
     35          1           0        5.700167   -0.485932    1.813638
     36         16           0        6.703003   -2.346698    0.662982
     37          6           0        8.260148   -1.393622    0.692478
     38          1           0        8.977525   -2.005346    1.222763
     39          1           0        8.111446   -0.500038    1.283764
     40          6           0        8.806312   -1.065369   -0.697432
     41          1           0        8.923701   -1.981146   -1.261224
     42          1           0        8.124436   -0.438176   -1.256598
     43         16           0       10.447462   -0.268932   -0.666300
     44          6           0       10.057759    1.498170   -0.863077
     45          1           0       11.018294    1.957473   -1.064716
     46          1           0        9.456196    1.623407   -1.755959
     47          6           0        9.399477    2.176748    0.333864
     48          1           0        9.295015    3.241267    0.144224
     49          1           0        8.407520    1.782141    0.524521
     50          1           0        9.993215    2.046177    1.231135
 ---------------------------------------------------------------------
 Stoichiometry    C14H30O3S3
 Framework group  C1[X(C14H30O3S3)]
 Standard basis: 6-31G(d) (6D, 7F)
   372 basis functions,   752 primitive gaussians,   372 cartesian basis functions
    93 alpha electrons       93 beta electrons
 Requested convergence on RMS density matrix=1.00D-08 within  64 cycles.
 Requested convergence on MAX density matrix=1.00D-06.
 Requested convergence on             energy=1.00D-06.
 SCF Done:  E(RHF) =  -1964.69215272     A.U. after   13 cycles
            NFock= 13  Conv=0.50D-08     -V/T= 2.0006
 Mulliken charges:
     1  C   -0.490960
     2  H    0.174065
     3  H    0.172692
     4  H    0.159645
     5  C    0.024006
     6  H    0.143493
     7  H    0.138139
     8  O   -0.628472
     9  C    0.017614
    10  H    0.134495
    11  H    0.154735
    12  C   -0.007005
    13  H    0.169545
    14  H    0.152686
    15  O   -0.636209
    16  C   -0.019491
    17  H    0.179522
    18  H    0.177019
    19  C   -0.003226
    20  H    0.169375
    21  H    0.141146
    22  O   -0.636132
    23  C    0.018064
    24  H    0.145377
    25  H    0.190895
    26  C   -0.477939
    27  H    0.200099
    28  H    0.197829
    29  S    0.108544
    30  C   -0.475099
    31  H    0.209629
    32  H    0.194784
    33  C   -0.472869
    34  H    0.208277
    35  H    0.206291
    36  S    0.115529
    37  C   -0.475770
    38  H    0.217393
    39  H    0.199682
    40  C   -0.473508
    41  H    0.216116
    42  H    0.194257
    43  S    0.111556
    44  C   -0.471868
    45  H    0.200905
    46  H    0.190643
    47  C   -0.475630
    48  H    0.171329
    49  H    0.157708
    50  H    0.181092
 Sum of Mulliken charges =  -0.00000
 Dipole moment (field-independent basis, Debye):
    X=             -3.3337    Y=              3.5245    Z=              0.0053  Tot=              4.8514
 Quadrupole moment (field-independent basis, Debye-Ang):
   XX=           -161.7453   YY=           -141.5850   ZZ=           -148.6130
   XY=              8.3835   XZ=              3.5975   YZ=             -1.9062
 Traceless Quadrupole moment (field-independent basis, Debye-Ang):
   XX=            -11.0976   YY=              9.0628   ZZ=              2.0348
   XY=              8.3835   XZ=              3.5975   YZ=             -1.9062
 Octapole moment (field-independent basis, Debye-Ang**2):
  XXX=          -1721.3827  YYY=           -322.7828  ZZZ=            176.4842  XYY=           -516.9187
  XXY=             63.5209  XXZ=             51.4280  XZZ=           -489.5057  YZZ=           -124.8470
  YYZ=             34.6036  XYZ=             17.4751
 Hexadecapole moment (field-independent basis, Debye-Ang**3):
 XXXX=         -37468.7287 YYYY=          -4165.6396 ZZZZ=          -1134.5540 XXXY=           3394.2771
 XXXZ=           -211.0092 YYYX=           1778.8460 YYYZ=            667.1247 ZZZX=           -592.9133
 ZZZY=            737.5267 XXYY=          -6055.3584 XXZZ=          -5826.4662 YYZZ=           -896.5419
 XXYZ=             59.0145 YYXZ=           -168.3964 ZZXY=            591.0015
 Merz-Kollman atomic radii used.
 Atom Element Radius
    1     6    1.50
    2     1    1.20
    3     1    1.20
    4     1    1.20
    5     6    1.50
    6     1    1.20
    7     1    1.20
    8     8    1.40
    9     6    1.50
   10     1    1.20
   11     1    1.20
   12     6    1.50
   13     1    1.20
   14     1    1.20
   15     8    1.40
   16     6    1.50
   17     1    1.20
   18     1    1.20
   19     6    1.50
   20     1    1.20
   21     1    1.20
   22     8    1.40
   23     6    1.50
   24     1    1.20
   25     1    1.20
   26     6    1.50
   27     1    1.20
   28     1    1.20
   29    16    1.75
   30     6    1.50
   31     1    1.20
   32     1    1.20
   33     6    1.50
   34     1    1.20
   35     1    1.20
   36    16    1.75
   37     6    1.50
   38     1    1.20
   39     1    1.20
   40     6    1.50
   41     1    1.20
   42     1    1.20
   43    16    1.75
   44     6    1.50
   45     1    1.20
   46     1    1.20
   47     6    1.50
   48     1    1.20
   49     1    1.20
   50     1    1.20
 Generate VDW surfaces: Layer= 4 Dens= 1 Start= 1.400 Inc= 0.200
            Electrostatic Properties Using The SCF Density.


       Atomic Center    1 is at  -6.126238  3.279602 -2.285008
       Atomic Center    2 is at  -5.867835  2.284397 -2.628989
       Atomic Center    3 is at  -6.511797  3.202215 -1.274600
       Atomic Center    4 is at  -6.910411  3.672593 -2.924393
       Atomic Center    5 is at  -4.909881  4.183557 -2.320087
       Atomic Center    6 is at  -4.527251  4.269304 -3.335855
       Atomic Center    7 is at  -5.171348  5.186873 -1.985439
       Atomic Center    8 is at  -3.927240  3.643139 -1.484296
       Atomic Center    9 is at  -2.746511  4.383557 -1.417629
       Atomic Center   10 is at  -2.939450  5.363424 -0.978951
       Atomic Center   11 is at  -2.333449  4.535883 -2.412385
       Atomic Center   12 is at  -1.733324  3.645748 -0.566866
       Atomic Center   13 is at  -0.884695  4.298621 -0.394370
       Atomic Center   14 is at  -2.174476  3.410620  0.397786
       Atomic Center   15 is at  -1.246200  2.498070 -1.199922
       Atomic Center   16 is at  -1.881620  1.279293 -0.905585
       Atomic Center   17 is at  -1.784640  0.657914 -1.787132
       Atomic Center   18 is at  -2.936913  1.436507 -0.717182
       Atomic Center   19 is at  -1.254366  0.554548  0.273867
       Atomic Center   20 is at  -1.892771 -0.280127  0.541519
       Atomic Center   21 is at  -1.194939  1.215561  1.137593
       Atomic Center   22 is at   0.000000  0.000000  0.000000
       Atomic Center   23 is at   1.096034  0.870765  0.000000
       Atomic Center   24 is at   1.076235  1.499333  0.888519
       Atomic Center   25 is at   1.081600  1.518330 -0.866554
       Atomic Center   26 is at   2.343665  0.000000  0.000000
       Atomic Center   27 is at   2.358771 -0.603812 -0.898847
       Atomic Center   28 is at   2.313572 -0.659721  0.856525
       Atomic Center   29 is at   3.830933  1.047211  0.047413
       Atomic Center   30 is at   5.143232 -0.175934 -0.249189
       Atomic Center   31 is at   4.894058 -0.767218 -1.121143
       Atomic Center   32 is at   6.016991  0.412762 -0.496761
       Atomic Center   33 is at   5.429275 -1.077859  0.948770
       Atomic Center   34 is at   4.544817 -1.642893  1.213166
       Atomic Center   35 is at   5.700167 -0.485932  1.813638
       Atomic Center   36 is at   6.703003 -2.346698  0.662982
       Atomic Center   37 is at   8.260148 -1.393622  0.692478
       Atomic Center   38 is at   8.977525 -2.005346  1.222763
       Atomic Center   39 is at   8.111446 -0.500038  1.283764
       Atomic Center   40 is at   8.806312 -1.065369 -0.697432
       Atomic Center   41 is at   8.923701 -1.981146 -1.261224
       Atomic Center   42 is at   8.124436 -0.438176 -1.256598
       Atomic Center   43 is at  10.447462 -0.268932 -0.666300
       Atomic Center   44 is at  10.057759  1.498170 -0.863077
       Atomic Center   45 is at  11.018294  1.957473 -1.064716
       Atomic Center   46 is at   9.456196  1.623407 -1.755959
       Atomic Center   47 is at   9.399477  2.176748  0.333864
       Atomic Center   48 is at   9.295015  3.241267  0.144224
       Atomic Center   49 is at   8.407520  1.782141  0.524521
       Atomic Center   50 is at   9.993215  2.046177  1.231135
      ESP Fit Center   51 is at  -6.385059  1.479460 -1.235008
      ESP Fit Center   52 is at  -6.870908  5.243136 -2.285008
      ESP Fit Center   53 is at  -7.698111  1.887044 -2.285008
      ESP Fit Center   54 is at  -6.126238  3.279602 -4.385008
      ESP Fit Center   55 is at  -5.562687  1.345248 -1.269840
      ESP Fit Center   56 is at  -6.666722  0.900683 -2.109840
      ESP Fit Center   57 is at  -5.590384  0.710896 -2.109840
      ESP Fit Center   58 is at  -4.643868  1.257367 -2.109840
      ESP Fit Center   59 is at  -4.270060  2.284397 -3.148138
      ESP Fit Center   60 is at  -7.369252  1.737926 -3.148138
      ESP Fit Center   61 is at  -6.666722  0.900683 -3.148138
      ESP Fit Center   62 is at  -5.590384  0.710896 -3.148138
      ESP Fit Center   63 is at  -4.643868  1.257367 -3.148138
      ESP Fit Center   64 is at  -4.880356  2.284397 -3.988138
      ESP Fit Center   65 is at  -6.666722  1.703971 -3.988138
      ESP Fit Center   66 is at  -5.562687  1.345248 -3.988138
      ESP Fit Center   67 is at  -5.867835  2.284397 -4.308989
      ESP Fit Center   68 is at  -6.511797  3.202215  0.405400
      ESP Fit Center   69 is at  -5.524318  3.202215  0.084549
      ESP Fit Center   70 is at  -6.206649  4.141364  0.084549
      ESP Fit Center   71 is at  -7.310684  3.782641  0.084549
      ESP Fit Center   72 is at  -7.310684  2.621789  0.084549
      ESP Fit Center   73 is at  -6.206649  2.263066  0.084549
      ESP Fit Center   74 is at  -7.310684  4.585929 -0.755451
      ESP Fit Center   75 is at  -8.013214  3.748686 -0.755451
      ESP Fit Center   76 is at  -8.013214  2.655744 -0.755451
      ESP Fit Center   77 is at  -7.310684  1.818501 -0.755451
      ESP Fit Center   78 is at  -6.234346  1.628714 -0.755451
      ESP Fit Center   79 is at  -7.709298  5.056307 -2.405244
      ESP Fit Center   80 is at  -8.411828  4.219064 -2.405244
      ESP Fit Center   81 is at  -8.411828  3.126122 -2.405244
      ESP Fit Center   82 is at  -6.632960  5.246094 -3.443542
      ESP Fit Center   83 is at  -7.709298  5.056307 -3.443542
      ESP Fit Center   84 is at  -8.411828  4.219064 -3.443542
      ESP Fit Center   85 is at  -8.411828  3.126122 -3.443542
      ESP Fit Center   86 is at  -7.709298  2.288879 -3.443542
      ESP Fit Center   87 is at  -6.605263  4.611742 -4.283542
      ESP Fit Center   88 is at  -7.709298  4.253019 -4.283542
      ESP Fit Center   89 is at  -7.709298  3.092167 -4.283542
      ESP Fit Center   90 is at  -6.605263  2.733444 -4.283542
      ESP Fit Center   91 is at  -6.910411  3.672593 -4.604393
      ESP Fit Center   92 is at  -6.100846  5.558003 -3.370087
      ESP Fit Center   93 is at  -4.154385  2.529252 -3.370087
      ESP Fit Center   94 is at  -3.303284  5.296334 -3.855004
      ESP Fit Center   95 is at  -4.249800  5.842805 -3.855004
      ESP Fit Center   96 is at  -5.326138  5.653018 -3.855004
      ESP Fit Center   97 is at  -4.249800  2.695803 -3.855004
      ESP Fit Center   98 is at  -3.303284  3.242274 -3.855004
      ESP Fit Center   99 is at  -3.539772  4.269304 -4.695004
      ESP Fit Center  100 is at  -4.222103  5.208453 -4.695004
      ESP Fit Center  101 is at  -5.326138  4.849730 -4.695004
      ESP Fit Center  102 is at  -5.326138  3.688878 -4.695004
      ESP Fit Center  103 is at  -4.222103  3.330155 -4.695004
      ESP Fit Center  104 is at  -4.527251  4.269304 -5.015855
      ESP Fit Center  105 is at  -5.171348  5.186873 -0.305439
      ESP Fit Center  106 is at  -4.866200  6.126022 -0.626290
      ESP Fit Center  107 is at  -5.970235  5.767299 -0.626290
      ESP Fit Center  108 is at  -4.893897  6.760374 -1.466290
      ESP Fit Center  109 is at  -5.970235  6.570587 -1.466290
      ESP Fit Center  110 is at  -6.672765  5.733344 -1.466290
      ESP Fit Center  111 is at  -3.947381  6.213903 -2.504588
      ESP Fit Center  112 is at  -4.893897  6.760374 -2.504588
      ESP Fit Center  113 is at  -5.970235  6.570587 -2.504588
      ESP Fit Center  114 is at  -6.672765  5.733344 -2.504588
      ESP Fit Center  115 is at  -4.866200  6.126022 -3.344588
      ESP Fit Center  116 is at  -5.970235  5.767299 -3.344588
      ESP Fit Center  117 is at  -3.927240  3.643139  0.475704
      ESP Fit Center  118 is at  -4.417240  4.491844  0.213114
      ESP Fit Center  119 is at  -4.907240  3.643139  0.213114
      ESP Fit Center  120 is at  -4.417240  2.794434  0.213114
      ESP Fit Center  121 is at  -3.402712  2.028806 -2.464296
      ESP Fit Center  122 is at  -3.437240  2.794434 -3.181706
      ESP Fit Center  123 is at  -3.796511  4.383557  0.401024
      ESP Fit Center  124 is at  -3.005332  6.183699 -2.467629
      ESP Fit Center  125 is at  -2.939450  5.363424  0.701049
      ESP Fit Center  126 is at  -2.634302  6.302573  0.380198
      ESP Fit Center  127 is at  -3.738337  5.943850  0.380198
      ESP Fit Center  128 is at  -1.715483  6.390454 -0.459802
      ESP Fit Center  129 is at  -2.661999  6.936925 -0.459802
      ESP Fit Center  130 is at  -3.738337  6.747138 -0.459802
      ESP Fit Center  131 is at  -4.440867  5.909895 -0.459802
      ESP Fit Center  132 is at  -1.715483  6.390454 -1.498100
      ESP Fit Center  133 is at  -2.661999  6.936925 -1.498100
      ESP Fit Center  134 is at  -3.738337  6.747138 -1.498100
      ESP Fit Center  135 is at  -2.634302  6.302573 -2.338100
      ESP Fit Center  136 is at  -0.735674  4.535883 -2.931534
      ESP Fit Center  137 is at  -1.109482  5.562913 -2.931534
      ESP Fit Center  138 is at  -2.055998  6.109384 -2.931534
      ESP Fit Center  139 is at  -3.132336  5.919597 -2.931534
      ESP Fit Center  140 is at  -2.055998  2.962382 -2.931534
      ESP Fit Center  141 is at  -1.109482  3.508853 -2.931534
      ESP Fit Center  142 is at  -1.345970  4.535883 -3.771534
      ESP Fit Center  143 is at  -2.028301  5.475032 -3.771534
      ESP Fit Center  144 is at  -3.132336  5.116309 -3.771534
      ESP Fit Center  145 is at  -2.028301  3.596734 -3.771534
      ESP Fit Center  146 is at  -2.333449  4.535883 -4.092385
      ESP Fit Center  147 is at  -0.683324  3.645748  1.251787
      ESP Fit Center  148 is at  -1.208324  4.555075  1.251787
      ESP Fit Center  149 is at  -1.992145  5.445890  0.483134
      ESP Fit Center  150 is at  -0.203375  2.662510  0.483134
      ESP Fit Center  151 is at  -0.884695  4.298621  1.285630
      ESP Fit Center  152 is at   0.102784  4.298621  0.964779
      ESP Fit Center  153 is at  -0.579547  5.237770  0.964779
      ESP Fit Center  154 is at   0.713080  4.298621  0.124779
      ESP Fit Center  155 is at   0.339272  5.325651  0.124779
      ESP Fit Center  156 is at  -0.607244  5.872122  0.124779
      ESP Fit Center  157 is at  -1.683582  5.682335  0.124779
      ESP Fit Center  158 is at   0.339272  3.271591  0.124779
      ESP Fit Center  159 is at   0.713080  4.298621 -0.913519
      ESP Fit Center  160 is at   0.339272  5.325651 -0.913519
      ESP Fit Center  161 is at  -0.607244  5.872122 -0.913519
      ESP Fit Center  162 is at   0.102784  4.298621 -1.753519
      ESP Fit Center  163 is at  -0.579547  5.237770 -1.753519
      ESP Fit Center  164 is at  -2.174476  3.410620  2.077786
      ESP Fit Center  165 is at  -1.186997  3.410620  1.756935
      ESP Fit Center  166 is at  -1.869328  4.349769  1.756935
      ESP Fit Center  167 is at  -2.973363  3.991046  1.756935
      ESP Fit Center  168 is at  -2.973363  2.830194  1.756935
      ESP Fit Center  169 is at  -2.973363  4.794334  0.916935
      ESP Fit Center  170 is at  -3.675893  3.957091  0.916935
      ESP Fit Center  171 is at  -3.675893  2.864149  0.916935
      ESP Fit Center  172 is at  -2.973363  2.026906  0.916935
      ESP Fit Center  173 is at  -0.266200  2.498070  0.497488
      ESP Fit Center  174 is at   0.451210  3.478070 -1.199922
      ESP Fit Center  175 is at   0.451210  2.498070 -2.179922
      ESP Fit Center  176 is at   0.127033  3.495782 -2.179922
      ESP Fit Center  177 is at  -0.266200  2.498070 -2.897332
      ESP Fit Center  178 is at  -0.756200  3.346775 -2.897332
      ESP Fit Center  179 is at  -2.226200  2.498070 -2.897332
      ESP Fit Center  180 is at  -0.756200  1.649365 -2.897332
      ESP Fit Center  181 is at  -1.246200  2.498070 -3.159922
      ESP Fit Center  182 is at  -2.583527 -0.725800 -1.267983
      ESP Fit Center  183 is at  -1.507189 -0.915587 -1.267983
      ESP Fit Center  184 is at  -0.186865  0.657914 -2.306281
      ESP Fit Center  185 is at  -3.286057  0.111443 -2.306281
      ESP Fit Center  186 is at  -2.583527 -0.725800 -2.306281
      ESP Fit Center  187 is at  -1.507189 -0.915587 -2.306281
      ESP Fit Center  188 is at  -0.560673 -0.369116 -2.306281
      ESP Fit Center  189 is at  -0.797161  0.657914 -3.146281
      ESP Fit Center  190 is at  -1.479492  1.597063 -3.146281
      ESP Fit Center  191 is at  -2.583527  1.238340 -3.146281
      ESP Fit Center  192 is at  -2.583527  0.077488 -3.146281
      ESP Fit Center  193 is at  -1.479492 -0.281235 -3.146281
      ESP Fit Center  194 is at  -1.784640  0.657914 -3.467132
      ESP Fit Center  195 is at  -3.735800  2.016933  0.641967
      ESP Fit Center  196 is at  -3.735800  0.856081  0.641967
      ESP Fit Center  197 is at  -4.438330  1.982978 -0.198033
      ESP Fit Center  198 is at  -4.438330  0.890036 -0.198033
      ESP Fit Center  199 is at  -3.735800  0.052793 -0.198033
      ESP Fit Center  200 is at  -4.438330  0.890036 -1.236331
      ESP Fit Center  201 is at  -3.735800  0.052793 -1.236331
      ESP Fit Center  202 is at  -3.735800  0.856081 -2.076331
      ESP Fit Center  203 is at  -0.729366 -0.354779  2.092520
      ESP Fit Center  204 is at  -2.999351  1.066922  1.323867
      ESP Fit Center  205 is at  -1.892771 -0.280127  2.221519
      ESP Fit Center  206 is at  -2.691658  0.300299  1.900668
      ESP Fit Center  207 is at  -2.691658 -0.860553  1.900668
      ESP Fit Center  208 is at  -1.587623 -1.219276  1.900668
      ESP Fit Center  209 is at  -3.394188  0.266344  1.060668
      ESP Fit Center  210 is at  -3.394188 -0.826598  1.060668
      ESP Fit Center  211 is at  -2.691658 -1.663841  1.060668
      ESP Fit Center  212 is at  -1.615320 -1.853628  1.060668
      ESP Fit Center  213 is at  -3.394188 -0.826598  0.022370
      ESP Fit Center  214 is at  -2.691658 -1.663841  0.022370
      ESP Fit Center  215 is at  -1.615320 -1.853628  0.022370
      ESP Fit Center  216 is at  -2.691658 -0.860553 -0.817630
      ESP Fit Center  217 is at  -1.587623 -1.219276 -0.817630
      ESP Fit Center  218 is at  -1.194939  1.215561  2.817593
      ESP Fit Center  219 is at  -0.207460  1.215561  2.496742
      ESP Fit Center  220 is at  -0.889791  2.154710  2.496742
      ESP Fit Center  221 is at  -1.993826  1.795987  2.496742
      ESP Fit Center  222 is at  -1.993826  0.635135  2.496742
      ESP Fit Center  223 is at  -0.889791  0.276412  2.496742
      ESP Fit Center  224 is at  -0.917488  2.789062  1.656742
      ESP Fit Center  225 is at  -2.696356  1.762032  1.656742
      ESP Fit Center  226 is at   0.000000  0.000000  1.960000
      ESP Fit Center  227 is at  -0.490000 -0.848705  1.697410
      ESP Fit Center  228 is at   0.490000 -0.848705  1.697410
      ESP Fit Center  229 is at  -0.524528 -1.614333  0.980000
      ESP Fit Center  230 is at   0.524528 -1.614333  0.980000
      ESP Fit Center  231 is at  -0.980000 -1.697410  0.000000
      ESP Fit Center  232 is at  -0.000000 -1.960000  0.000000
      ESP Fit Center  233 is at   0.980000 -1.697410  0.000000
      ESP Fit Center  234 is at  -0.524528 -1.614333 -0.980000
      ESP Fit Center  235 is at   0.524528 -1.614333 -0.980000
      ESP Fit Center  236 is at  -0.490000 -0.848705 -1.697410
      ESP Fit Center  237 is at   0.490000 -0.848705 -1.697410
      ESP Fit Center  238 is at   0.000000  0.000000 -1.960000
      ESP Fit Center  239 is at   1.349161  2.955454  0.000000
      ESP Fit Center  240 is at   0.351364  2.834299  0.000000
      ESP Fit Center  241 is at   1.076235  1.499333  2.568519
      ESP Fit Center  242 is at   2.063714  1.499333  2.247668
      ESP Fit Center  243 is at   1.381383  2.438482  2.247668
      ESP Fit Center  244 is at   0.277348  2.079759  2.247668
      ESP Fit Center  245 is at   0.277348  0.918907  2.247668
      ESP Fit Center  246 is at   1.381383  0.560184  2.247668
      ESP Fit Center  247 is at   2.300202  2.526363  1.407668
      ESP Fit Center  248 is at   1.353686  3.072834  1.407668
      ESP Fit Center  249 is at   0.277348  2.883047  1.407668
      ESP Fit Center  250 is at   1.353686  3.072834  0.369370
      ESP Fit Center  251 is at   0.277348  2.883047  0.369370
      ESP Fit Center  252 is at   1.359051  3.091831 -0.347405
      ESP Fit Center  253 is at   2.305567  2.545360 -1.385703
      ESP Fit Center  254 is at   1.359051  3.091831 -1.385703
      ESP Fit Center  255 is at   2.069079  1.518330 -2.225703
      ESP Fit Center  256 is at   1.386748  2.457479 -2.225703
      ESP Fit Center  257 is at   0.282713  0.937904 -2.225703
      ESP Fit Center  258 is at   1.386748  0.579181 -2.225703
      ESP Fit Center  259 is at   1.081600  1.518330 -2.546554
      ESP Fit Center  260 is at   1.598995 -1.963534  0.000000
      ESP Fit Center  261 is at   2.596792 -2.084689  0.000000
      ESP Fit Center  262 is at   1.559884 -1.987526 -0.379698
      ESP Fit Center  263 is at   2.636222 -2.177313 -0.379698
      ESP Fit Center  264 is at   0.857354 -1.150283 -1.417996
      ESP Fit Center  265 is at   1.559884 -1.987526 -1.417996
      ESP Fit Center  266 is at   2.636222 -2.177313 -1.417996
      ESP Fit Center  267 is at   3.346250 -0.603812 -2.257996
      ESP Fit Center  268 is at   2.663919  0.335337 -2.257996
      ESP Fit Center  269 is at   1.559884 -0.023386 -2.257996
      ESP Fit Center  270 is at   1.559884 -1.184238 -2.257996
      ESP Fit Center  271 is at   2.663919 -1.542961 -2.257996
      ESP Fit Center  272 is at   2.358771 -0.603812 -2.578847
      ESP Fit Center  273 is at   2.313572 -0.659721  2.536525
      ESP Fit Center  274 is at   3.301051 -0.659721  2.215674
      ESP Fit Center  275 is at   2.618720  0.279428  2.215674
      ESP Fit Center  276 is at   1.514685 -0.079295  2.215674
      ESP Fit Center  277 is at   1.514685 -1.240147  2.215674
      ESP Fit Center  278 is at   2.618720 -1.598870  2.215674
      ESP Fit Center  279 is at   0.812155 -1.206192  1.375674
      ESP Fit Center  280 is at   1.514685 -2.043435  1.375674
      ESP Fit Center  281 is at   2.591023 -2.233222  1.375674
      ESP Fit Center  282 is at   1.514685 -2.043435  0.337376
      ESP Fit Center  283 is at   2.591023 -2.233222  0.337376
      ESP Fit Center  284 is at   3.830933  1.047211  2.497413
      ESP Fit Center  285 is at   4.893948  1.047211  2.254787
      ESP Fit Center  286 is at   4.362441  1.967809  2.254787
      ESP Fit Center  287 is at   3.299425  1.967809  2.254787
      ESP Fit Center  288 is at   2.767918  1.047211  2.254787
      ESP Fit Center  289 is at   3.299425  0.126613  2.254787
      ESP Fit Center  290 is at   5.442343  2.082802  1.574963
      ESP Fit Center  291 is at   4.626655  2.789599  1.574963
      ESP Fit Center  292 is at   3.558331  2.943201  1.574963
      ESP Fit Center  293 is at   2.576556  2.494840  1.574963
      ESP Fit Center  294 is at   5.982963  2.083574  0.592589
      ESP Fit Center  295 is at   5.320184  2.914673  0.592589
      ESP Fit Center  296 is at   4.362441  3.375898  0.592589
      ESP Fit Center  297 is at   3.299425  3.375898  0.592589
      ESP Fit Center  298 is at   2.341682  2.914673  0.592589
      ESP Fit Center  299 is at   5.320184  2.914673 -0.497763
      ESP Fit Center  300 is at   4.362441  3.375898 -0.497763
      ESP Fit Center  301 is at   3.299425  3.375898 -0.497763
      ESP Fit Center  302 is at   2.341682  2.914673 -0.497763
      ESP Fit Center  303 is at   5.442343  2.082802 -1.480137
      ESP Fit Center  304 is at   4.626655  2.789599 -1.480137
      ESP Fit Center  305 is at   3.558331  2.943201 -1.480137
      ESP Fit Center  306 is at   2.576556  2.494840 -1.480137
      ESP Fit Center  307 is at   4.893948  1.047211 -2.159961
      ESP Fit Center  308 is at   4.362441  1.967809 -2.159961
      ESP Fit Center  309 is at   3.299425  1.967809 -2.159961
      ESP Fit Center  310 is at   2.767918  1.047211 -2.159961
      ESP Fit Center  311 is at   3.299425  0.126613 -2.159961
      ESP Fit Center  312 is at   3.830933  1.047211 -2.402587
      ESP Fit Center  313 is at   6.193232 -0.175934 -2.067842
      ESP Fit Center  314 is at   4.095171 -2.150932 -0.601994
      ESP Fit Center  315 is at   4.095171 -2.150932 -1.640292
      ESP Fit Center  316 is at   5.171509 -2.340719 -1.640292
      ESP Fit Center  317 is at   5.881537 -0.767218 -2.480292
      ESP Fit Center  318 is at   5.199206  0.171931 -2.480292
      ESP Fit Center  319 is at   4.095171 -0.186792 -2.480292
      ESP Fit Center  320 is at   4.095171 -1.347644 -2.480292
      ESP Fit Center  321 is at   5.199206 -1.706367 -2.480292
      ESP Fit Center  322 is at   4.894058 -0.767218 -2.801143
      ESP Fit Center  323 is at   6.322139  1.351911  0.862388
      ESP Fit Center  324 is at   6.294442  1.986263  0.022388
      ESP Fit Center  325 is at   7.240958  1.439792 -1.015910
      ESP Fit Center  326 is at   6.294442  1.986263 -1.015910
      ESP Fit Center  327 is at   6.322139  1.351911 -1.855910
      ESP Fit Center  328 is at   6.016991  0.412762 -2.176761
      ESP Fit Center  329 is at   4.544817 -1.642893  2.893166
      ESP Fit Center  330 is at   3.745930 -1.062467  2.572315
      ESP Fit Center  331 is at   3.745930 -2.223319  2.572315
      ESP Fit Center  332 is at   4.849965 -2.582042  2.572315
      ESP Fit Center  333 is at   3.043400 -2.189364  1.732315
      ESP Fit Center  334 is at   3.745930 -3.026607  1.732315
      ESP Fit Center  335 is at   3.043400 -2.189364  0.694017
      ESP Fit Center  336 is at   3.745930 -3.026607  0.694017
      ESP Fit Center  337 is at   3.745930 -2.223319 -0.145983
      ESP Fit Center  338 is at   5.700167 -0.485932  3.493638
      ESP Fit Center  339 is at   6.687646 -0.485932  3.172787
      ESP Fit Center  340 is at   6.005315  0.453217  3.172787
      ESP Fit Center  341 is at   4.901280  0.094494  3.172787
      ESP Fit Center  342 is at   4.901280 -1.066358  3.172787
      ESP Fit Center  343 is at   6.005315 -1.425081  3.172787
      ESP Fit Center  344 is at   6.924134  0.541098  2.332787
      ESP Fit Center  345 is at   5.977618  1.087569  2.332787
      ESP Fit Center  346 is at   4.901280  0.897782  2.332787
      ESP Fit Center  347 is at   4.198750  0.060539  2.332787
      ESP Fit Center  348 is at   5.977618  1.087569  1.294489
      ESP Fit Center  349 is at   6.703003 -2.346698  3.112982
      ESP Fit Center  350 is at   7.766018 -2.346698  2.870356
      ESP Fit Center  351 is at   7.234511 -1.426100  2.870356
      ESP Fit Center  352 is at   5.639988 -2.346698  2.870356
      ESP Fit Center  353 is at   6.171495 -3.267296  2.870356
      ESP Fit Center  354 is at   7.234511 -3.267296  2.870356
      ESP Fit Center  355 is at   5.448626 -3.794327  2.190532
      ESP Fit Center  356 is at   6.430401 -4.242688  2.190532
      ESP Fit Center  357 is at   7.498725 -4.089086  2.190532
      ESP Fit Center  358 is at   8.314413 -3.382289  2.190532
      ESP Fit Center  359 is at   4.550973 -3.383061  1.208158
      ESP Fit Center  360 is at   5.213752 -4.214160  1.208158
      ESP Fit Center  361 is at   6.171495 -4.675385  1.208158
      ESP Fit Center  362 is at   7.234511 -4.675385  1.208158
      ESP Fit Center  363 is at   8.192254 -4.214160  1.208158
      ESP Fit Center  364 is at   4.550973 -3.383061  0.117806
      ESP Fit Center  365 is at   5.213752 -4.214160  0.117806
      ESP Fit Center  366 is at   6.171495 -4.675385  0.117806
      ESP Fit Center  367 is at   7.234511 -4.675385  0.117806
      ESP Fit Center  368 is at   8.192254 -4.214160  0.117806
      ESP Fit Center  369 is at   8.855033 -3.383061  0.117806
      ESP Fit Center  370 is at   4.865107 -2.886353 -0.864568
      ESP Fit Center  371 is at   5.448626 -3.794327 -0.864568
      ESP Fit Center  372 is at   6.430401 -4.242688 -0.864568
      ESP Fit Center  373 is at   7.498725 -4.089086 -0.864568
      ESP Fit Center  374 is at   5.639988 -2.346698 -1.544392
      ESP Fit Center  375 is at   6.171495 -3.267296 -1.544392
      ESP Fit Center  376 is at   7.234511 -3.267296 -1.544392
      ESP Fit Center  377 is at   6.703003 -2.346698 -1.787018
      ESP Fit Center  378 is at   8.260148 -1.393622  2.792478
      ESP Fit Center  379 is at   9.790097 -0.410384  1.742478
      ESP Fit Center  380 is at   8.977525 -2.005346  2.902763
      ESP Fit Center  381 is at   9.965004 -2.005346  2.581912
      ESP Fit Center  382 is at   9.282673 -1.066197  2.581912
      ESP Fit Center  383 is at   9.282673 -2.944495  2.581912
      ESP Fit Center  384 is at  10.575300 -2.005346  1.741912
      ESP Fit Center  385 is at  10.201492 -0.978316  1.741912
      ESP Fit Center  386 is at   9.254976 -3.578847  1.741912
      ESP Fit Center  387 is at  10.201492 -3.032376  1.741912
      ESP Fit Center  388 is at   9.254976 -3.578847  0.703614
      ESP Fit Center  389 is at  10.201492 -3.032376  0.703614
      ESP Fit Center  390 is at   8.111446 -0.500038  2.963764
      ESP Fit Center  391 is at   9.098925 -0.500038  2.642913
      ESP Fit Center  392 is at   8.416594  0.439111  2.642913
      ESP Fit Center  393 is at   7.312559  0.080388  2.642913
      ESP Fit Center  394 is at   9.335413  0.526992  1.802913
      ESP Fit Center  395 is at   7.312559  0.883676  1.802913
      ESP Fit Center  396 is at   8.806312 -1.065369 -2.797432
      ESP Fit Center  397 is at   9.201152 -3.554647 -0.742075
      ESP Fit Center  398 is at  10.147668 -3.008176 -0.742075
      ESP Fit Center  399 is at   7.422284 -2.527617 -1.780373
      ESP Fit Center  400 is at   8.124814 -3.364860 -1.780373
      ESP Fit Center  401 is at   9.201152 -3.554647 -1.780373
      ESP Fit Center  402 is at  10.147668 -3.008176 -1.780373
      ESP Fit Center  403 is at   9.911180 -1.981146 -2.620373
      ESP Fit Center  404 is at   8.124814 -2.561572 -2.620373
      ESP Fit Center  405 is at   9.228849 -2.920295 -2.620373
      ESP Fit Center  406 is at   8.923701 -1.981146 -2.941224
      ESP Fit Center  407 is at   7.325549  0.945538 -1.775747
      ESP Fit Center  408 is at   6.623019 -0.984647 -1.775747
      ESP Fit Center  409 is at   8.429584  0.500973 -2.615747
      ESP Fit Center  410 is at   7.325549  0.142250 -2.615747
      ESP Fit Center  411 is at   7.325549 -1.018602 -2.615747
      ESP Fit Center  412 is at   8.124436 -0.438176 -2.936598
      ESP Fit Center  413 is at  10.447462 -0.268932  1.783700
      ESP Fit Center  414 is at  11.510477 -0.268932  1.541074
      ESP Fit Center  415 is at  10.978970  0.651666  1.541074
      ESP Fit Center  416 is at  10.978970 -1.189530  1.541074
      ESP Fit Center  417 is at  12.362949 -0.268932  0.861250
      ESP Fit Center  418 is at  12.058872  0.766659  0.861250
      ESP Fit Center  419 is at  11.243184 -2.011320  0.861250
      ESP Fit Center  420 is at  12.058872 -1.304523  0.861250
      ESP Fit Center  421 is at  12.836035 -0.268932 -0.121124
      ESP Fit Center  422 is at  12.599492  0.767431 -0.121124
      ESP Fit Center  423 is at  10.978970 -2.597619 -0.121124
      ESP Fit Center  424 is at  11.936713 -2.136394 -0.121124
      ESP Fit Center  425 is at  12.599492 -1.305295 -0.121124
      ESP Fit Center  426 is at  12.836035 -0.268932 -1.211476
      ESP Fit Center  427 is at  12.599492  0.767431 -1.211476
      ESP Fit Center  428 is at  10.978970 -2.597619 -1.211476
      ESP Fit Center  429 is at  11.936713 -2.136394 -1.211476
      ESP Fit Center  430 is at  12.599492 -1.305295 -1.211476
      ESP Fit Center  431 is at  12.362949 -0.268932 -2.193850
      ESP Fit Center  432 is at  12.058872  0.766659 -2.193850
      ESP Fit Center  433 is at  11.243184 -2.011320 -2.193850
      ESP Fit Center  434 is at  12.058872 -1.304523 -2.193850
      ESP Fit Center  435 is at  11.510477 -0.268932 -2.873674
      ESP Fit Center  436 is at  10.978970  0.651666 -2.873674
      ESP Fit Center  437 is at   9.384447 -0.268932 -2.873674
      ESP Fit Center  438 is at   9.915954 -1.189530 -2.873674
      ESP Fit Center  439 is at  10.978970 -1.189530 -2.873674
      ESP Fit Center  440 is at  10.447462 -0.268932 -3.116300
      ESP Fit Center  441 is at   9.798938  3.298312 -1.913077
      ESP Fit Center  442 is at  11.107759  1.498170 -2.681730
      ESP Fit Center  443 is at  12.005773  1.957473  0.294433
      ESP Fit Center  444 is at  12.616069  1.957473 -0.545567
      ESP Fit Center  445 is at  12.242261  2.984503 -0.545567
      ESP Fit Center  446 is at  11.295745  3.530974 -0.545567
      ESP Fit Center  447 is at  12.616069  1.957473 -1.583865
      ESP Fit Center  448 is at  12.242261  2.984503 -1.583865
      ESP Fit Center  449 is at  11.295745  3.530974 -1.583865
      ESP Fit Center  450 is at  12.005773  1.957473 -2.423865
      ESP Fit Center  451 is at  11.323442  2.896622 -2.423865
      ESP Fit Center  452 is at  11.018294  1.957473 -2.744716
      ESP Fit Center  453 is at   7.954779  2.169878 -1.236810
      ESP Fit Center  454 is at   9.733647  3.196908 -2.275108
      ESP Fit Center  455 is at   8.657309  3.007121 -2.275108
      ESP Fit Center  456 is at   7.954779  2.169878 -2.275108
      ESP Fit Center  457 is at   7.954779  1.076936 -2.275108
      ESP Fit Center  458 is at  10.443675  1.623407 -3.115108
      ESP Fit Center  459 is at   9.761344  2.562556 -3.115108
      ESP Fit Center  460 is at   8.657309  2.203833 -3.115108
      ESP Fit Center  461 is at   8.657309  1.042981 -3.115108
      ESP Fit Center  462 is at   9.761344  0.684258 -3.115108
      ESP Fit Center  463 is at   9.456196  1.623407 -3.435959
      ESP Fit Center  464 is at   8.874477  3.086075  2.152517
      ESP Fit Center  465 is at  11.258935  3.152667  0.333864
      ESP Fit Center  466 is at   7.654492  2.689122 -0.716136
      ESP Fit Center  467 is at   9.600163  4.180416  1.503373
      ESP Fit Center  468 is at   8.496128  3.821693  1.503373
      ESP Fit Center  469 is at  10.518982  4.268297  0.663373
      ESP Fit Center  470 is at   9.572466  4.814768  0.663373
      ESP Fit Center  471 is at   8.496128  4.624981  0.663373
      ESP Fit Center  472 is at   7.793598  3.787738  0.663373
      ESP Fit Center  473 is at  10.518982  4.268297 -0.374925
      ESP Fit Center  474 is at   9.572466  4.814768 -0.374925
      ESP Fit Center  475 is at   8.496128  4.624981 -0.374925
      ESP Fit Center  476 is at   7.793598  3.787738 -0.374925
      ESP Fit Center  477 is at   9.600163  4.180416 -1.214925
      ESP Fit Center  478 is at   8.496128  3.821693 -1.214925
      ESP Fit Center  479 is at   8.407520  1.782141  2.204521
      ESP Fit Center  480 is at   7.608633  2.362567  1.883670
      ESP Fit Center  481 is at   7.608633  1.201715  1.883670
      ESP Fit Center  482 is at   7.608633  3.165855  1.043670
      ESP Fit Center  483 is at   6.906103  2.328612  1.043670
      ESP Fit Center  484 is at   6.906103  1.235670  1.043670
      ESP Fit Center  485 is at   6.906103  2.328612  0.005372
      ESP Fit Center  486 is at   7.608633  2.362567 -0.834628
      ESP Fit Center  487 is at   7.608633  1.201715 -0.834628
      ESP Fit Center  488 is at   9.993215  2.046177  2.911135
      ESP Fit Center  489 is at  10.980694  2.046177  2.590284
      ESP Fit Center  490 is at  10.298363  2.985326  2.590284
      ESP Fit Center  491 is at   9.194328  2.626603  2.590284
      ESP Fit Center  492 is at   9.194328  1.465751  2.590284
      ESP Fit Center  493 is at  10.298363  1.107028  2.590284
      ESP Fit Center  494 is at  11.590990  2.046177  1.750284
      ESP Fit Center  495 is at  11.217182  3.073207  1.750284
      ESP Fit Center  496 is at  10.270666  3.619678  1.750284
      ESP Fit Center  497 is at  10.270666  0.472676  1.750284
      ESP Fit Center  498 is at  11.217182  1.019147  1.750284
      ESP Fit Center  499 is at  11.590990  2.046177  0.711986
      ESP Fit Center  500 is at  -5.346755  1.572773 -0.788632
      ESP Fit Center  501 is at  -7.585096  5.108952 -1.750958
      ESP Fit Center  502 is at  -8.466065  3.279602 -1.750958
      ESP Fit Center  503 is at  -8.234349  2.264389 -1.750958
      ESP Fit Center  504 is at  -7.585096  1.450252 -1.750958
      ESP Fit Center  505 is at  -8.234349  2.264389 -2.819058
      ESP Fit Center  506 is at  -7.355016  1.861517 -3.781384
      ESP Fit Center  507 is at  -6.646898  2.377792 -4.447333
      ESP Fit Center  508 is at  -6.126238  3.279602 -4.685008
      ESP Fit Center  509 is at  -6.381659  0.703010 -1.668989
      ESP Fit Center  510 is at  -5.354011  0.703010 -1.668989
      ESP Fit Center  511 is at  -7.530604  1.324397 -2.628989
      ESP Fit Center  512 is at  -6.827835  0.621628 -2.628989
      ESP Fit Center  513 is at  -5.867835  0.364397 -2.628989
      ESP Fit Center  514 is at  -4.907835  0.621628 -2.628989
      ESP Fit Center  515 is at  -4.205066  1.324397 -2.628989
      ESP Fit Center  516 is at  -7.213043  1.307046 -3.588989
      ESP Fit Center  517 is at  -6.381659  0.703010 -3.588989
      ESP Fit Center  518 is at  -5.354011  0.703010 -3.588989
      ESP Fit Center  519 is at  -4.522627  1.307046 -3.588989
      ESP Fit Center  520 is at  -4.907835  2.284397 -4.291758
      ESP Fit Center  521 is at  -6.347835  1.453013 -4.291758
      ESP Fit Center  522 is at  -5.387835  1.453013 -4.291758
      ESP Fit Center  523 is at  -5.867835  2.284397 -4.548989
      ESP Fit Center  524 is at  -6.511797  3.202215  0.645400
      ESP Fit Center  525 is at  -5.551797  3.202215  0.388169
      ESP Fit Center  526 is at  -6.031797  4.033599  0.388169
      ESP Fit Center  527 is at  -6.991797  4.033599  0.388169
      ESP Fit Center  528 is at  -7.471797  3.202215  0.388169
      ESP Fit Center  529 is at  -6.991797  2.370831  0.388169
      ESP Fit Center  530 is at  -6.031797  2.370831  0.388169
      ESP Fit Center  531 is at  -7.025621  4.783602 -0.314600
      ESP Fit Center  532 is at  -7.857005  4.179566 -0.314600
      ESP Fit Center  533 is at  -8.174566  3.202215 -0.314600
      ESP Fit Center  534 is at  -7.857005  2.224864 -0.314600
      ESP Fit Center  535 is at  -7.025621  1.620828 -0.314600
      ESP Fit Center  536 is at  -5.997973  1.620828 -0.314600
      ESP Fit Center  537 is at  -8.174566  4.162215 -1.274600
      ESP Fit Center  538 is at  -8.431797  3.202215 -1.274600
      ESP Fit Center  539 is at  -8.174566  2.242215 -1.274600
      ESP Fit Center  540 is at  -7.471797  1.539446 -1.274600
      ESP Fit Center  541 is at  -8.255619  4.649944 -1.964393
      ESP Fit Center  542 is at  -8.573180  3.672593 -1.964393
      ESP Fit Center  543 is at  -6.910411  5.592593 -2.924393
      ESP Fit Center  544 is at  -7.870411  5.335362 -2.924393
      ESP Fit Center  545 is at  -8.573180  4.632593 -2.924393
      ESP Fit Center  546 is at  -8.830411  3.672593 -2.924393
      ESP Fit Center  547 is at  -8.573180  2.712593 -2.924393
      ESP Fit Center  548 is at  -6.396587  5.253980 -3.884393
      ESP Fit Center  549 is at  -7.424235  5.253980 -3.884393
      ESP Fit Center  550 is at  -8.255619  4.649944 -3.884393
      ESP Fit Center  551 is at  -8.573180  3.672593 -3.884393
      ESP Fit Center  552 is at  -8.255619  2.695242 -3.884393
      ESP Fit Center  553 is at  -6.430411  4.503977 -4.587162
      ESP Fit Center  554 is at  -7.390411  4.503977 -4.587162
      ESP Fit Center  555 is at  -7.870411  3.672593 -4.587162
      ESP Fit Center  556 is at  -7.390411  2.841209 -4.587162
      ESP Fit Center  557 is at  -6.910411  3.672593 -4.844393
      ESP Fit Center  558 is at  -5.176920  6.040854 -3.816463
      ESP Fit Center  559 is at  -6.138659  5.601642 -3.816463
      ESP Fit Center  560 is at  -3.567251  5.932073 -3.335855
      ESP Fit Center  561 is at  -2.864482  4.269304 -4.295855
      ESP Fit Center  562 is at  -3.182043  5.246655 -4.295855
      ESP Fit Center  563 is at  -4.013427  5.850691 -4.295855
      ESP Fit Center  564 is at  -5.041075  5.850691 -4.295855
      ESP Fit Center  565 is at  -5.872459  5.246655 -4.295855
      ESP Fit Center  566 is at  -4.013427  2.687917 -4.295855
      ESP Fit Center  567 is at  -3.182043  3.291953 -4.295855
      ESP Fit Center  568 is at  -3.567251  4.269304 -4.998624
      ESP Fit Center  569 is at  -4.047251  5.100688 -4.998624
      ESP Fit Center  570 is at  -5.007251  5.100688 -4.998624
      ESP Fit Center  571 is at  -5.487251  4.269304 -4.998624
      ESP Fit Center  572 is at  -5.007251  3.437920 -4.998624
      ESP Fit Center  573 is at  -4.047251  3.437920 -4.998624
      ESP Fit Center  574 is at  -4.527251  4.269304 -5.255855
      ESP Fit Center  575 is at  -5.171348  5.186873 -0.065439
      ESP Fit Center  576 is at  -4.691348  6.018257 -0.322670
      ESP Fit Center  577 is at  -5.651348  6.018257 -0.322670
      ESP Fit Center  578 is at  -6.131348  5.186873 -0.322670
      ESP Fit Center  579 is at  -4.657524  6.768260 -1.025439
      ESP Fit Center  580 is at  -5.685172  6.768260 -1.025439
      ESP Fit Center  581 is at  -6.516556  6.164224 -1.025439
      ESP Fit Center  582 is at  -4.211348  6.849642 -1.985439
      ESP Fit Center  583 is at  -5.171348  7.106873 -1.985439
      ESP Fit Center  584 is at  -6.131348  6.849642 -1.985439
      ESP Fit Center  585 is at  -6.834117  6.146873 -1.985439
      ESP Fit Center  586 is at  -4.657524  6.768260 -2.945439
      ESP Fit Center  587 is at  -5.685172  6.768260 -2.945439
      ESP Fit Center  588 is at  -6.516556  6.164224 -2.945439
      ESP Fit Center  589 is at  -4.413190  4.484829  0.533874
      ESP Fit Center  590 is at  -4.899140  3.643139  0.533874
      ESP Fit Center  591 is at  -4.413190  2.801449  0.533874
      ESP Fit Center  592 is at  -3.386058  1.977551 -2.880913
      ESP Fit Center  593 is at  -0.638400  5.398770 -1.951679
      ESP Fit Center  594 is at  -1.287653  6.212907 -1.951679
      ESP Fit Center  595 is at  -2.939450  5.363424  0.941049
      ESP Fit Center  596 is at  -2.459450  6.194808  0.683818
      ESP Fit Center  597 is at  -3.419450  6.194808  0.683818
      ESP Fit Center  598 is at  -3.899450  5.363424  0.683818
      ESP Fit Center  599 is at  -1.594242  6.340775 -0.018951
      ESP Fit Center  600 is at  -2.425626  6.944811 -0.018951
      ESP Fit Center  601 is at  -3.453274  6.944811 -0.018951
      ESP Fit Center  602 is at  -4.284658  6.340775 -0.018951
      ESP Fit Center  603 is at  -4.602219  5.363424 -0.018951
      ESP Fit Center  604 is at  -1.276681  6.323424 -0.978951
      ESP Fit Center  605 is at  -1.979450  7.026193 -0.978951
      ESP Fit Center  606 is at  -2.939450  7.283424 -0.978951
      ESP Fit Center  607 is at  -3.899450  7.026193 -0.978951
      ESP Fit Center  608 is at  -2.425626  6.944811 -1.938951
      ESP Fit Center  609 is at  -3.453274  6.944811 -1.938951
      ESP Fit Center  610 is at  -0.413449  4.535883 -2.412385
      ESP Fit Center  611 is at  -0.670680  5.495883 -2.412385
      ESP Fit Center  612 is at  -1.373449  6.198652 -2.412385
      ESP Fit Center  613 is at  -0.670680  4.535883 -3.372385
      ESP Fit Center  614 is at  -0.988241  5.513234 -3.372385
      ESP Fit Center  615 is at  -1.819625  6.117270 -3.372385
      ESP Fit Center  616 is at  -2.847273  6.117270 -3.372385
      ESP Fit Center  617 is at  -2.847273  2.954496 -3.372385
      ESP Fit Center  618 is at  -1.819625  2.954496 -3.372385
      ESP Fit Center  619 is at  -0.988241  3.558532 -3.372385
      ESP Fit Center  620 is at  -1.373449  4.535883 -4.075154
      ESP Fit Center  621 is at  -1.853449  5.367267 -4.075154
      ESP Fit Center  622 is at  -2.813449  5.367267 -4.075154
      ESP Fit Center  623 is at  -2.813449  3.704499 -4.075154
      ESP Fit Center  624 is at  -1.853449  3.704499 -4.075154
      ESP Fit Center  625 is at  -2.333449  4.535883 -4.332385
      ESP Fit Center  626 is at  -0.692003  3.645748  1.595459
      ESP Fit Center  627 is at  -2.000363  5.503045  0.929510
      ESP Fit Center  628 is at   0.075305  4.298621  1.268399
      ESP Fit Center  629 is at  -0.404695  5.130005  1.268399
      ESP Fit Center  630 is at   0.778074  4.298621  0.565630
      ESP Fit Center  631 is at   0.460513  5.275972  0.565630
      ESP Fit Center  632 is at  -0.370871  5.880008  0.565630
      ESP Fit Center  633 is at  -1.398519  5.880008  0.565630
      ESP Fit Center  634 is at   0.460513  3.321270  0.565630
      ESP Fit Center  635 is at   1.035305  4.298621 -0.394370
      ESP Fit Center  636 is at   0.778074  5.258621 -0.394370
      ESP Fit Center  637 is at   0.075305  5.961390 -0.394370
      ESP Fit Center  638 is at  -0.884695  6.218621 -0.394370
      ESP Fit Center  639 is at   0.778074  4.298621 -1.354370
      ESP Fit Center  640 is at   0.460513  5.275972 -1.354370
      ESP Fit Center  641 is at  -0.370871  5.880008 -1.354370
      ESP Fit Center  642 is at   0.075305  4.298621 -2.057139
      ESP Fit Center  643 is at  -0.404695  5.130005 -2.057139
      ESP Fit Center  644 is at  -2.174476  3.410620  2.317786
      ESP Fit Center  645 is at  -1.214476  3.410620  2.060555
      ESP Fit Center  646 is at  -1.694476  4.242004  2.060555
      ESP Fit Center  647 is at  -2.654476  4.242004  2.060555
      ESP Fit Center  648 is at  -3.134476  3.410620  2.060555
      ESP Fit Center  649 is at  -2.654476  2.579236  2.060555
      ESP Fit Center  650 is at  -2.688300  4.992007  1.357786
      ESP Fit Center  651 is at  -3.519684  4.387971  1.357786
      ESP Fit Center  652 is at  -3.837245  3.410620  1.357786
      ESP Fit Center  653 is at  -3.519684  2.433269  1.357786
      ESP Fit Center  654 is at   0.687493  3.512950 -1.698369
      ESP Fit Center  655 is at   0.505103  2.498070 -2.596539
      ESP Fit Center  656 is at   0.170634  3.527460 -2.596539
      ESP Fit Center  657 is at   0.170634  1.468680 -2.596539
      ESP Fit Center  658 is at  -0.274300  2.498070 -3.218092
      ESP Fit Center  659 is at  -0.760250  3.339760 -3.218092
      ESP Fit Center  660 is at  -2.218100  2.498070 -3.218092
      ESP Fit Center  661 is at  -0.760250  1.656380 -3.218092
      ESP Fit Center  662 is at  -1.246200  2.498070 -3.439922
      ESP Fit Center  663 is at  -3.340478 -0.550057 -1.439635
      ESP Fit Center  664 is at  -3.682008  0.750651 -2.401961
      ESP Fit Center  665 is at  -2.744640 -1.004855 -1.787132
      ESP Fit Center  666 is at  -1.784640 -1.262086 -1.787132
      ESP Fit Center  667 is at  -0.121871  0.657914 -2.747132
      ESP Fit Center  668 is at  -3.447409  0.657914 -2.747132
      ESP Fit Center  669 is at  -3.129848 -0.319437 -2.747132
      ESP Fit Center  670 is at  -2.298464 -0.923473 -2.747132
      ESP Fit Center  671 is at  -1.270816 -0.923473 -2.747132
      ESP Fit Center  672 is at  -0.439432 -0.319437 -2.747132
      ESP Fit Center  673 is at  -0.824640  0.657914 -3.449901
      ESP Fit Center  674 is at  -1.304640  1.489298 -3.449901
      ESP Fit Center  675 is at  -2.264640  1.489298 -3.449901
      ESP Fit Center  676 is at  -2.744640  0.657914 -3.449901
      ESP Fit Center  677 is at  -2.264640 -0.173470 -3.449901
      ESP Fit Center  678 is at  -1.304640 -0.173470 -3.449901
      ESP Fit Center  679 is at  -1.784640  0.657914 -3.707132
      ESP Fit Center  680 is at  -3.896913  1.436507  0.945587
      ESP Fit Center  681 is at  -4.599682  1.436507  0.242818
      ESP Fit Center  682 is at  -4.282121  0.459156  0.242818
      ESP Fit Center  683 is at  -4.856913  1.436507 -0.717182
      ESP Fit Center  684 is at  -4.599682  0.476507 -0.717182
      ESP Fit Center  685 is at  -3.896913 -0.226262 -0.717182
      ESP Fit Center  686 is at  -4.282121  0.459156 -1.677182
      ESP Fit Center  687 is at  -3.896913  1.436507 -2.379951
      ESP Fit Center  688 is at  -0.733706 -0.347262  2.436192
      ESP Fit Center  689 is at  -3.054754  1.083190  1.770243
      ESP Fit Center  690 is at  -1.521405 -1.302749 -1.222509
      ESP Fit Center  691 is at  -1.892771 -0.280127  2.461519
      ESP Fit Center  692 is at  -2.852771 -0.280127  2.204288
      ESP Fit Center  693 is at  -2.372771 -1.111511  2.204288
      ESP Fit Center  694 is at  -1.412771 -1.111511  2.204288
      ESP Fit Center  695 is at  -3.555540 -0.280127  1.501519
      ESP Fit Center  696 is at  -3.237979 -1.257478  1.501519
      ESP Fit Center  697 is at  -2.406595 -1.861514  1.501519
      ESP Fit Center  698 is at  -1.378947 -1.861514  1.501519
      ESP Fit Center  699 is at  -3.812771 -0.280127  0.541519
      ESP Fit Center  700 is at  -3.555540 -1.240127  0.541519
      ESP Fit Center  701 is at  -2.852771 -1.942896  0.541519
      ESP Fit Center  702 is at  -1.892771 -2.200127  0.541519
      ESP Fit Center  703 is at  -3.237979 -1.257478 -0.418481
      ESP Fit Center  704 is at  -2.406595 -1.861514 -0.418481
      ESP Fit Center  705 is at  -1.378947 -1.861514 -0.418481
      ESP Fit Center  706 is at  -2.372771 -1.111511 -1.121250
      ESP Fit Center  707 is at  -1.194939  1.215561  3.057593
      ESP Fit Center  708 is at  -0.234939  1.215561  2.800362
      ESP Fit Center  709 is at  -0.714939  2.046945  2.800362
      ESP Fit Center  710 is at  -1.674939  2.046945  2.800362
      ESP Fit Center  711 is at  -2.154939  1.215561  2.800362
      ESP Fit Center  712 is at  -1.674939  0.384177  2.800362
      ESP Fit Center  713 is at  -0.714939  0.384177  2.800362
      ESP Fit Center  714 is at  -0.681115  2.796948  2.097593
      ESP Fit Center  715 is at  -2.540147  2.192912  2.097593
      ESP Fit Center  716 is at  -2.857708  1.215561  2.097593
      ESP Fit Center  717 is at   0.485950 -0.841690  2.018170
      ESP Fit Center  718 is at  -0.541182 -1.665588  1.396617
      ESP Fit Center  719 is at   0.541182 -1.665588  1.396617
      ESP Fit Center  720 is at  -0.774400 -2.041924  0.498447
      ESP Fit Center  721 is at   0.263233 -2.167916  0.498447
      ESP Fit Center  722 is at  -0.774400 -2.041924 -0.498447
      ESP Fit Center  723 is at   0.263233 -2.167916 -0.498447
      ESP Fit Center  724 is at  -0.541182 -1.665588 -1.396617
      ESP Fit Center  725 is at   0.541182 -1.665588 -1.396617
      ESP Fit Center  726 is at  -0.485950 -0.841690 -2.018170
      ESP Fit Center  727 is at   0.485950 -0.841690 -2.018170
      ESP Fit Center  728 is at   0.000000  0.000000 -2.240000
      ESP Fit Center  729 is at   1.076235  1.499333  2.808519
      ESP Fit Center  730 is at   2.036235  1.499333  2.551288
      ESP Fit Center  731 is at   1.556235  2.330717  2.551288
      ESP Fit Center  732 is at   0.596235  2.330717  2.551288
      ESP Fit Center  733 is at   0.116235  1.499333  2.551288
      ESP Fit Center  734 is at   0.596235  0.667949  2.551288
      ESP Fit Center  735 is at   1.556235  0.667949  2.551288
      ESP Fit Center  736 is at   1.590059  3.080720  1.848519
      ESP Fit Center  737 is at   0.562411  3.080720  1.848519
      ESP Fit Center  738 is at   2.036235  3.162102  0.888519
      ESP Fit Center  739 is at   1.076235  3.419333  0.888519
      ESP Fit Center  740 is at   0.116235  3.162102  0.888519
      ESP Fit Center  741 is at   2.041600  3.181099 -0.866554
      ESP Fit Center  742 is at   1.081600  3.438330 -0.866554
      ESP Fit Center  743 is at   1.595424  3.099717 -1.826554
      ESP Fit Center  744 is at   2.041600  1.518330 -2.529323
      ESP Fit Center  745 is at   1.561600  2.349714 -2.529323
      ESP Fit Center  746 is at   0.601600  2.349714 -2.529323
      ESP Fit Center  747 is at   0.601600  0.686946 -2.529323
      ESP Fit Center  748 is at   1.561600  0.686946 -2.529323
      ESP Fit Center  749 is at   1.081600  1.518330 -2.786554
      ESP Fit Center  750 is at   1.398771 -2.266581 -0.898847
      ESP Fit Center  751 is at   2.358771 -2.523812 -0.898847
      ESP Fit Center  752 is at   3.318771 -2.266581 -0.898847
      ESP Fit Center  753 is at   1.013563 -1.581163 -1.858847
      ESP Fit Center  754 is at   1.844947 -2.185199 -1.858847
      ESP Fit Center  755 is at   2.872595 -2.185199 -1.858847
      ESP Fit Center  756 is at   3.318771 -0.603812 -2.561616
      ESP Fit Center  757 is at   2.838771  0.227572 -2.561616
      ESP Fit Center  758 is at   1.878771  0.227572 -2.561616
      ESP Fit Center  759 is at   1.398771 -0.603812 -2.561616
      ESP Fit Center  760 is at   1.878771 -1.435196 -2.561616
      ESP Fit Center  761 is at   2.838771 -1.435196 -2.561616
      ESP Fit Center  762 is at   2.358771 -0.603812 -2.818847
      ESP Fit Center  763 is at   2.313572 -0.659721  2.776525
      ESP Fit Center  764 is at   3.273572 -0.659721  2.519294
      ESP Fit Center  765 is at   2.793572  0.171663  2.519294
      ESP Fit Center  766 is at   1.833572  0.171663  2.519294
      ESP Fit Center  767 is at   1.353572 -0.659721  2.519294
      ESP Fit Center  768 is at   1.833572 -1.491105  2.519294
      ESP Fit Center  769 is at   2.793572 -1.491105  2.519294
      ESP Fit Center  770 is at   0.968364 -1.637072  1.816525
      ESP Fit Center  771 is at   1.799748 -2.241108  1.816525
      ESP Fit Center  772 is at   1.353572 -2.322490  0.856525
      ESP Fit Center  773 is at   2.313572 -2.579721  0.856525
      ESP Fit Center  774 is at   3.830933  1.047211  2.847413
      ESP Fit Center  775 is at   4.366690  1.975169  2.634276
      ESP Fit Center  776 is at   3.295176  1.975169  2.634276
      ESP Fit Center  777 is at   2.759419  1.047211  2.634276
      ESP Fit Center  778 is at   3.295176  0.119253  2.634276
      ESP Fit Center  779 is at   5.545576  2.037160  2.027312
      ESP Fit Center  780 is at   4.820882  2.761854  2.027312
      ESP Fit Center  781 is at   3.830933  3.027110  2.027312
      ESP Fit Center  782 is at   2.840984  2.761854  2.027312
      ESP Fit Center  783 is at   6.194150  2.099383  1.118927
      ESP Fit Center  784 is at   5.561882  2.969625  1.118927
      ESP Fit Center  785 is at   4.630318  3.507464  1.118927
      ESP Fit Center  786 is at   3.560532  3.619903  1.118927
      ESP Fit Center  787 is at   2.537502  3.287500  1.118927
      ESP Fit Center  788 is at   5.900158  2.933559  0.047413
      ESP Fit Center  789 is at   5.079000  3.553668  0.047413
      ESP Fit Center  790 is at   4.089284  3.835267  0.047413
      ESP Fit Center  791 is at   3.064677  3.740323  0.047413
      ESP Fit Center  792 is at   2.143556  3.281659  0.047413
      ESP Fit Center  793 is at   5.561882  2.969625 -1.024101
      ESP Fit Center  794 is at   4.630318  3.507464 -1.024101
      ESP Fit Center  795 is at   3.560532  3.619903 -1.024101
      ESP Fit Center  796 is at   2.537502  3.287500 -1.024101
      ESP Fit Center  797 is at   5.545576  2.037160 -1.932486
      ESP Fit Center  798 is at   4.820882  2.761854 -1.932486
      ESP Fit Center  799 is at   3.830933  3.027110 -1.932486
      ESP Fit Center  800 is at   2.840984  2.761854 -1.932486
      ESP Fit Center  801 is at   4.902447  1.047211 -2.539450
      ESP Fit Center  802 is at   4.366690  1.975169 -2.539450
      ESP Fit Center  803 is at   3.295176  1.975169 -2.539450
      ESP Fit Center  804 is at   2.759419  1.047211 -2.539450
      ESP Fit Center  805 is at   3.295176  0.119253 -2.539450
      ESP Fit Center  806 is at   3.830933  1.047211 -2.752587
      ESP Fit Center  807 is at   5.663892  0.725876 -2.411514
      ESP Fit Center  808 is at   3.934058 -2.429987 -1.121143
      ESP Fit Center  809 is at   3.548850 -1.744569 -2.081143
      ESP Fit Center  810 is at   4.380234 -2.348605 -2.081143
      ESP Fit Center  811 is at   5.407882 -2.348605 -2.081143
      ESP Fit Center  812 is at   6.239266 -1.744569 -2.081143
      ESP Fit Center  813 is at   5.854058 -0.767218 -2.783912
      ESP Fit Center  814 is at   5.374058  0.064166 -2.783912
      ESP Fit Center  815 is at   4.414058  0.064166 -2.783912
      ESP Fit Center  816 is at   3.934058 -0.767218 -2.783912
      ESP Fit Center  817 is at   4.414058 -1.598602 -2.783912
      ESP Fit Center  818 is at   5.374058 -1.598602 -2.783912
      ESP Fit Center  819 is at   4.894058 -0.767218 -3.041143
      ESP Fit Center  820 is at   6.496991  1.244146  1.166008
      ESP Fit Center  821 is at   7.362199  1.390113 -1.456761
      ESP Fit Center  822 is at   6.530815  1.994149 -1.456761
      ESP Fit Center  823 is at   6.496991  1.244146 -2.159530
      ESP Fit Center  824 is at   6.016991  0.412762 -2.416761
      ESP Fit Center  825 is at   4.387954 -1.077859  3.111095
      ESP Fit Center  826 is at   4.908615 -1.979669  3.111095
      ESP Fit Center  827 is at   4.544817 -1.642893  3.133166
      ESP Fit Center  828 is at   3.584817 -1.642893  2.875935
      ESP Fit Center  829 is at   4.064817 -2.474277  2.875935
      ESP Fit Center  830 is at   3.199609 -2.620244  2.173166
      ESP Fit Center  831 is at   4.030993 -3.224280  2.173166
      ESP Fit Center  832 is at   2.882048 -2.602893  1.213166
      ESP Fit Center  833 is at   3.584817 -3.305662  1.213166
      ESP Fit Center  834 is at   3.199609 -2.620244  0.253166
      ESP Fit Center  835 is at   4.030993 -3.224280  0.253166
      ESP Fit Center  836 is at   4.064817 -2.474277 -0.449603
      ESP Fit Center  837 is at   5.700167 -0.485932  3.733638
      ESP Fit Center  838 is at   6.660167 -0.485932  3.476407
      ESP Fit Center  839 is at   6.180167  0.345452  3.476407
      ESP Fit Center  840 is at   5.220167  0.345452  3.476407
      ESP Fit Center  841 is at   4.740167 -0.485932  3.476407
      ESP Fit Center  842 is at   5.220167 -1.317316  3.476407
      ESP Fit Center  843 is at   6.180167 -1.317316  3.476407
      ESP Fit Center  844 is at   7.045375  0.491419  2.773638
      ESP Fit Center  845 is at   6.213991  1.095455  2.773638
      ESP Fit Center  846 is at   5.186343  1.095455  2.773638
      ESP Fit Center  847 is at   4.354959  0.491419  2.773638
      ESP Fit Center  848 is at   6.660167  1.176837  1.813638
      ESP Fit Center  849 is at   6.703003 -2.346698  3.462982
      ESP Fit Center  850 is at   7.774517 -2.346698  3.249845
      ESP Fit Center  851 is at   7.238760 -1.418740  3.249845
      ESP Fit Center  852 is at   5.631489 -2.346698  3.249845
      ESP Fit Center  853 is at   6.167246 -3.274656  3.249845
      ESP Fit Center  854 is at   7.238760 -3.274656  3.249845
      ESP Fit Center  855 is at   4.988360 -3.336647  2.642881
      ESP Fit Center  856 is at   5.713054 -4.061341  2.642881
      ESP Fit Center  857 is at   6.703003 -4.326597  2.642881
      ESP Fit Center  858 is at   7.692952 -4.061341  2.642881
      ESP Fit Center  859 is at   8.417646 -3.336647  2.642881
      ESP Fit Center  860 is at   4.610187 -3.867218  1.734496
      ESP Fit Center  861 is at   5.409572 -4.586987  1.734496
      ESP Fit Center  862 is at   6.432602 -4.919390  1.734496
      ESP Fit Center  863 is at   7.502388 -4.806951  1.734496
      ESP Fit Center  864 is at   8.433952 -4.269112  1.734496
      ESP Fit Center  865 is at   4.322395 -3.820708  0.662982
      ESP Fit Center  866 is at   5.015626 -4.581146  0.662982
      ESP Fit Center  867 is at   5.936747 -5.039810  0.662982
      ESP Fit Center  868 is at   6.961354 -5.134754  0.662982
      ESP Fit Center  869 is at   7.951070 -4.853155  0.662982
      ESP Fit Center  870 is at   8.772228 -4.233046  0.662982
      ESP Fit Center  871 is at   4.172669 -2.884537 -0.408532
      ESP Fit Center  872 is at   4.610187 -3.867218 -0.408532
      ESP Fit Center  873 is at   5.409572 -4.586987 -0.408532
      ESP Fit Center  874 is at   6.432602 -4.919390 -0.408532
      ESP Fit Center  875 is at   7.502388 -4.806951 -0.408532
      ESP Fit Center  876 is at   8.433952 -4.269112 -0.408532
      ESP Fit Center  877 is at   4.988360 -3.336647 -1.316917
      ESP Fit Center  878 is at   5.713054 -4.061341 -1.316917
      ESP Fit Center  879 is at   6.703003 -4.326597 -1.316917
      ESP Fit Center  880 is at   7.692952 -4.061341 -1.316917
      ESP Fit Center  881 is at   6.167246 -3.274656 -1.923881
      ESP Fit Center  882 is at   7.238760 -3.274656 -1.923881
      ESP Fit Center  883 is at   6.703003 -2.346698 -2.137018
      ESP Fit Center  884 is at   8.260148 -1.393622  3.092478
      ESP Fit Center  885 is at   9.838672 -0.379166  2.188854
      ESP Fit Center  886 is at   8.977525 -2.005346  3.142763
      ESP Fit Center  887 is at   9.937525 -2.005346  2.885532
      ESP Fit Center  888 is at   9.457525 -1.173962  2.885532
      ESP Fit Center  889 is at   8.497525 -2.836730  2.885532
      ESP Fit Center  890 is at   9.457525 -2.836730  2.885532
      ESP Fit Center  891 is at  10.640294 -2.005346  2.182763
      ESP Fit Center  892 is at  10.322733 -1.027995  2.182763
      ESP Fit Center  893 is at   9.491349 -3.586733  2.182763
      ESP Fit Center  894 is at  10.322733 -2.982697  2.182763
      ESP Fit Center  895 is at   8.977525 -3.925346  1.222763
      ESP Fit Center  896 is at   9.937525 -3.668115  1.222763
      ESP Fit Center  897 is at  10.640294 -2.965346  1.222763
      ESP Fit Center  898 is at   9.491349 -3.586733  0.262763
      ESP Fit Center  899 is at  10.322733 -2.982697  0.262763
      ESP Fit Center  900 is at   8.111446 -0.500038  3.203764
      ESP Fit Center  901 is at   9.071446 -0.500038  2.946533
      ESP Fit Center  902 is at   8.591446  0.331346  2.946533
      ESP Fit Center  903 is at   7.631446  0.331346  2.946533
      ESP Fit Center  904 is at   9.456654  0.477313  2.243764
      ESP Fit Center  905 is at   7.597622  1.081349  2.243764
      ESP Fit Center  906 is at   8.806312 -1.065369 -3.097432
      ESP Fit Center  907 is at   9.437525 -3.562533 -0.301224
      ESP Fit Center  908 is at   8.923701 -3.901146 -1.261224
      ESP Fit Center  909 is at   9.883701 -3.643915 -1.261224
      ESP Fit Center  910 is at   7.578493 -2.958497 -2.221224
      ESP Fit Center  911 is at   8.409877 -3.562533 -2.221224
      ESP Fit Center  912 is at   9.437525 -3.562533 -2.221224
      ESP Fit Center  913 is at  10.268909 -2.958497 -2.221224
      ESP Fit Center  914 is at   9.883701 -1.981146 -2.923993
      ESP Fit Center  915 is at   7.963701 -1.981146 -2.923993
      ESP Fit Center  916 is at   8.443701 -2.812530 -2.923993
      ESP Fit Center  917 is at   9.403701 -2.812530 -2.923993
      ESP Fit Center  918 is at   8.923701 -1.981146 -3.181224
      ESP Fit Center  919 is at   7.610612  1.143211 -2.216598
      ESP Fit Center  920 is at   6.779228 -1.415527 -2.216598
      ESP Fit Center  921 is at   7.644436  0.393208 -2.919367
      ESP Fit Center  922 is at   7.164436 -0.438176 -2.919367
      ESP Fit Center  923 is at   7.644436 -1.269560 -2.919367
      ESP Fit Center  924 is at   8.124436 -0.438176 -3.176598
      ESP Fit Center  925 is at  10.447462 -0.268932  2.133700
      ESP Fit Center  926 is at  11.518976 -0.268932  1.920563
      ESP Fit Center  927 is at  10.983219 -1.196890  1.920563
      ESP Fit Center  928 is at  12.427361 -0.268932  1.313599
      ESP Fit Center  929 is at  12.162105  0.721017  1.313599
      ESP Fit Center  930 is at  11.437411 -1.983575  1.313599
      ESP Fit Center  931 is at  12.162105 -1.258881  1.313599
      ESP Fit Center  932 is at  13.034325 -0.268932  0.405214
      ESP Fit Center  933 is at  12.810679  0.783240  0.405214
      ESP Fit Center  934 is at  11.246847 -2.729185  0.405214
      ESP Fit Center  935 is at  12.178411 -2.191346  0.405214
      ESP Fit Center  936 is at  12.810679 -1.321104  0.405214
      ESP Fit Center  937 is at  13.247462 -0.268932 -0.666300
      ESP Fit Center  938 is at  13.058384  0.742545 -0.666300
      ESP Fit Center  939 is at  10.705813 -3.056988 -0.666300
      ESP Fit Center  940 is at  11.695529 -2.775389 -0.666300
      ESP Fit Center  941 is at  12.516687 -2.155280 -0.666300
      ESP Fit Center  942 is at  13.058384 -1.280409 -0.666300
      ESP Fit Center  943 is at  13.034325 -0.268932 -1.737814
      ESP Fit Center  944 is at  12.810679  0.783240 -1.737814
      ESP Fit Center  945 is at  11.246847 -2.729185 -1.737814
      ESP Fit Center  946 is at  12.178411 -2.191346 -1.737814
      ESP Fit Center  947 is at  12.810679 -1.321104 -1.737814
      ESP Fit Center  948 is at  12.427361 -0.268932 -2.646199
      ESP Fit Center  949 is at  12.162105  0.721017 -2.646199
      ESP Fit Center  950 is at  10.447462 -2.248831 -2.646199
      ESP Fit Center  951 is at  11.437411 -1.983575 -2.646199
      ESP Fit Center  952 is at  12.162105 -1.258881 -2.646199
      ESP Fit Center  953 is at  11.518976 -0.268932 -3.253163
      ESP Fit Center  954 is at  10.983219  0.659026 -3.253163
      ESP Fit Center  955 is at   9.375948 -0.268932 -3.253163
      ESP Fit Center  956 is at   9.911705 -1.196890 -3.253163
      ESP Fit Center  957 is at  10.983219 -1.196890 -3.253163
      ESP Fit Center  958 is at  10.447462 -0.268932 -3.466300
      ESP Fit Center  959 is at  11.099080  1.498170 -3.025402
      ESP Fit Center  960 is at  11.978294  1.957473  0.598053
      ESP Fit Center  961 is at  12.681063  1.957473 -0.104716
      ESP Fit Center  962 is at  12.363502  2.934824 -0.104716
      ESP Fit Center  963 is at  11.532118  3.538860 -0.104716
      ESP Fit Center  964 is at  12.938294  1.957473 -1.064716
      ESP Fit Center  965 is at  12.681063  2.917473 -1.064716
      ESP Fit Center  966 is at  11.978294  3.620242 -1.064716
      ESP Fit Center  967 is at  11.018294  3.877473 -1.064716
      ESP Fit Center  968 is at  12.681063  1.957473 -2.024716
      ESP Fit Center  969 is at  12.363502  2.934824 -2.024716
      ESP Fit Center  970 is at  11.532118  3.538860 -2.024716
      ESP Fit Center  971 is at  11.978294  1.957473 -2.727485
      ESP Fit Center  972 is at  11.498294  2.788857 -2.727485
      ESP Fit Center  973 is at   8.496196  3.286176 -1.755959
      ESP Fit Center  974 is at   7.793427  2.583407 -1.755959
      ESP Fit Center  975 is at   7.536196  1.623407 -1.755959
      ESP Fit Center  976 is at   9.970020  3.204794 -2.715959
      ESP Fit Center  977 is at   8.942372  3.204794 -2.715959
      ESP Fit Center  978 is at   8.110988  2.600758 -2.715959
      ESP Fit Center  979 is at   7.793427  1.623407 -2.715959
      ESP Fit Center  980 is at  10.416196  1.623407 -3.418728
      ESP Fit Center  981 is at   9.936196  2.454791 -3.418728
      ESP Fit Center  982 is at   8.976196  2.454791 -3.418728
      ESP Fit Center  983 is at   8.496196  1.623407 -3.418728
      ESP Fit Center  984 is at   8.976196  0.792023 -3.418728
      ESP Fit Center  985 is at   9.936196  0.792023 -3.418728
      ESP Fit Center  986 is at   9.456196  1.623407 -3.675959
      ESP Fit Center  987 is at   8.878817  3.078558  2.496189
      ESP Fit Center  988 is at   8.358156  2.176748  2.496189
      ESP Fit Center  989 is at  10.178960  3.883577  1.830240
      ESP Fit Center  990 is at   8.170699  3.594833  1.830240
      ESP Fit Center  991 is at  11.507588  3.191961  0.867914
      ESP Fit Center  992 is at   7.291366  3.191961 -0.200186
      ESP Fit Center  993 is at   7.599089  2.705390 -1.162512
      ESP Fit Center  994 is at   9.775015  4.072651  1.806993
      ESP Fit Center  995 is at   8.815015  4.072651  1.806993
      ESP Fit Center  996 is at  10.640223  4.218618  1.104224
      ESP Fit Center  997 is at   9.808839  4.822654  1.104224
      ESP Fit Center  998 is at   8.781191  4.822654  1.104224
      ESP Fit Center  999 is at   7.949807  4.218618  1.104224
      ESP Fit Center 1000 is at  10.957784  4.201267  0.144224
      ESP Fit Center 1001 is at  10.255015  4.904036  0.144224
      ESP Fit Center 1002 is at   9.295015  5.161267  0.144224
      ESP Fit Center 1003 is at   8.335015  4.904036  0.144224
      ESP Fit Center 1004 is at   7.632246  4.201267  0.144224
      ESP Fit Center 1005 is at  10.640223  4.218618 -0.815776
      ESP Fit Center 1006 is at   9.808839  4.822654 -0.815776
      ESP Fit Center 1007 is at   8.781191  4.822654 -0.815776
      ESP Fit Center 1008 is at   7.949807  4.218618 -0.815776
      ESP Fit Center 1009 is at   9.775015  4.072651 -1.518545
      ESP Fit Center 1010 is at   8.815015  4.072651 -1.518545
      ESP Fit Center 1011 is at   7.927520  2.613525  2.187290
      ESP Fit Center 1012 is at   7.447520  1.782141  2.187290
      ESP Fit Center 1013 is at   7.062312  2.759492  1.484521
      ESP Fit Center 1014 is at   6.744751  1.782141  1.484521
      ESP Fit Center 1015 is at   6.744751  2.742141  0.524521
      ESP Fit Center 1016 is at   7.062312  2.759492 -0.435479
      ESP Fit Center 1017 is at   7.447520  1.782141 -1.138248
      ESP Fit Center 1018 is at   9.993215  2.046177  3.151135
      ESP Fit Center 1019 is at  10.953215  2.046177  2.893904
      ESP Fit Center 1020 is at  10.473215  2.877561  2.893904
      ESP Fit Center 1021 is at   9.513215  2.877561  2.893904
      ESP Fit Center 1022 is at   9.033215  2.046177  2.893904
      ESP Fit Center 1023 is at   9.513215  1.214793  2.893904
      ESP Fit Center 1024 is at  10.473215  1.214793  2.893904
      ESP Fit Center 1025 is at  11.655984  2.046177  2.191135
      ESP Fit Center 1026 is at  11.338423  3.023528  2.191135
      ESP Fit Center 1027 is at  10.507039  3.627564  2.191135
      ESP Fit Center 1028 is at  10.507039  0.464790  2.191135
      ESP Fit Center 1029 is at  11.338423  1.068826  2.191135
      ESP Fit Center 1030 is at  11.913215  2.046177  1.231135
      ESP Fit Center 1031 is at  11.655984  3.006177  1.231135
      ESP Fit Center 1032 is at  -5.333133  1.542943 -0.375820
      ESP Fit Center 1033 is at  -7.681518  5.229861 -1.251763
      ESP Fit Center 1034 is at  -8.373682  4.361914 -1.251763
      ESP Fit Center 1035 is at  -7.681518  1.329343 -1.251763
      ESP Fit Center 1036 is at  -8.620713  2.246357 -2.285008
      ESP Fit Center 1037 is at  -8.035426  1.370414 -2.285008
      ESP Fit Center 1038 is at  -7.681518  1.329343 -3.318253
      ESP Fit Center 1039 is at  -7.376490  1.836734 -4.194196
      ESP Fit Center 1040 is at  -6.642861  2.384785 -4.779483
      ESP Fit Center 1041 is at  -5.609615  2.384785 -4.779483
      ESP Fit Center 1042 is at  -6.126238  3.279602 -4.985008
      ESP Fit Center 1043 is at  -6.134051  0.432822 -1.548989
      ESP Fit Center 1044 is at  -5.090753  0.582826 -1.548989
      ESP Fit Center 1045 is at  -7.484618  0.852052 -2.628989
      ESP Fit Center 1046 is at  -6.633782  0.264762 -2.628989
      ESP Fit Center 1047 is at  -5.607476  0.140146 -2.628989
      ESP Fit Center 1048 is at  -4.640815  0.506752 -2.628989
[...]
 1321 Fit      -0.010473
 1322 Fit      -0.002604
 1323 Fit      -0.010267
 1324 Fit       0.003443
 1325 Fit       0.002421
 1326 Fit       0.006071
 1327 Fit      -0.000117
 1328 Fit       0.005065
 1329 Fit       0.003703
 1330 Fit      -0.000666
 1331 Fit       0.004521
 1332 Fit       0.004573
 1333 Fit       0.002151
 1334 Fit       0.004089
 1335 Fit       0.012410
 1336 Fit       0.010905
 1337 Fit       0.002221
 1338 Fit      -0.001189
 1339 Fit       0.001333
 1340 Fit       0.004808
 1341 Fit       0.001935
 1342 Fit       0.004595
 1343 Fit       0.005865
 1344 Fit       0.002111
 1345 Fit       0.005437
 1346 Fit       0.003513
 1347 Fit       0.005727
 1348 Fit       0.006429
 1349 Fit       0.001825
 1350 Fit       0.001667
 1351 Fit       0.000491
 1352 Fit      -0.001428
 1353 Fit       0.008073
 1354 Fit      -0.002004
 1355 Fit      -0.010807
 1356 Fit      -0.008846
 1357 Fit      -0.002206
 1358 Fit      -0.007888
 1359 Fit      -0.015657
 1360 Fit      -0.015889
 1361 Fit      -0.008934
 1362 Fit      -0.016637
 1363 Fit      -0.019489
 1364 Fit      -0.016377
 1365 Fit      -0.008926
 1366 Fit      -0.010397
 1367 Fit      -0.017053
 1368 Fit      -0.018989
 1369 Fit      -0.015925
 1370 Fit      -0.008692
 1371 Fit      -0.006277
 1372 Fit      -0.013843
 1373 Fit      -0.017350
 1374 Fit      -0.016255
 1375 Fit      -0.010971
 1376 Fit      -0.002631
 1377 Fit       0.002584
 1378 Fit      -0.007021
 1379 Fit      -0.013685
 1380 Fit      -0.016534
 1381 Fit      -0.014929
 1382 Fit      -0.009312
 1383 Fit      -0.001038
 1384 Fit      -0.002905
 1385 Fit      -0.011190
 1386 Fit      -0.015919
 1387 Fit      -0.016186
 1388 Fit      -0.011740
 1389 Fit      -0.003103
 1390 Fit      -0.009418
 1391 Fit      -0.015615
 1392 Fit      -0.016027
 1393 Fit      -0.010157
 1394 Fit      -0.013921
 1395 Fit      -0.010794
 1396 Fit      -0.008237
 1397 Fit       0.000075
 1398 Fit      -0.003592
 1399 Fit      -0.000913
 1400 Fit      -0.000780
 1401 Fit      -0.000016
 1402 Fit      -0.000733
 1403 Fit      -0.005354
 1404 Fit       0.000010
 1405 Fit      -0.000215
 1406 Fit      -0.000380
 1407 Fit       0.001563
 1408 Fit      -0.001805
 1409 Fit       0.004674
 1410 Fit       0.005269
 1411 Fit       0.002110
 1412 Fit       0.006832
 1413 Fit       0.010869
 1414 Fit      -0.000386
 1415 Fit       0.005052
 1416 Fit       0.000737
 1417 Fit       0.001357
 1418 Fit      -0.006197
 1419 Fit      -0.000724
 1420 Fit       0.000531
 1421 Fit      -0.004147
 1422 Fit       0.000309
 1423 Fit      -0.000347
 1424 Fit      -0.000842
 1425 Fit      -0.000944
 1426 Fit       0.011384
 1427 Fit       0.007439
 1428 Fit       0.002553
 1429 Fit       0.005253
 1430 Fit      -0.009518
 1431 Fit      -0.015083
 1432 Fit      -0.012386
 1433 Fit      -0.016389
 1434 Fit      -0.010319
 1435 Fit      -0.012008
 1436 Fit      -0.017371
 1437 Fit      -0.015059
 1438 Fit      -0.008784
 1439 Fit      -0.000543
 1440 Fit      -0.008274
 1441 Fit      -0.015264
 1442 Fit      -0.017559
 1443 Fit      -0.013574
 1444 Fit      -0.006453
 1445 Fit      -0.002594
 1446 Fit      -0.010842
 1447 Fit      -0.016069
 1448 Fit      -0.017061
 1449 Fit      -0.013698
 1450 Fit      -0.005846
 1451 Fit      -0.004100
 1452 Fit      -0.012176
 1453 Fit      -0.017081
 1454 Fit      -0.017677
 1455 Fit      -0.015485
 1456 Fit      -0.007579
 1457 Fit      -0.012544
 1458 Fit      -0.018208
 1459 Fit      -0.019316
 1460 Fit      -0.017271
 1461 Fit      -0.009908
 1462 Fit      -0.009843
 1463 Fit      -0.017245
 1464 Fit      -0.020178
 1465 Fit      -0.016648
 1466 Fit      -0.008898
 1467 Fit      -0.003453
 1468 Fit      -0.009874
 1469 Fit      -0.016889
 1470 Fit      -0.011956
 1471 Fit       0.009490
 1472 Fit       0.010286
 1473 Fit      -0.001613
 1474 Fit       0.003394
 1475 Fit       0.007038
 1476 Fit       0.008715
 1477 Fit       0.003731
 1478 Fit       0.007115
 1479 Fit       0.008741
 1480 Fit       0.009900
 1481 Fit       0.002868
 1482 Fit       0.006566
 1483 Fit       0.008006
 1484 Fit       0.008802
 1485 Fit       0.001546
 1486 Fit       0.005469
 1487 Fit       0.010611
 1488 Fit       0.014685
 1489 Fit       0.008670
 1490 Fit       0.009542
 1491 Fit       0.011260
 1492 Fit       0.014523
 1493 Fit       0.001091
 1494 Fit       0.005772
 1495 Fit       0.008079
 1496 Fit       0.009040
 1497 Fit       0.005576
 1498 Fit       0.005184
 1499 Fit       0.003762
 1500 Fit       0.005298
 1501 Fit       0.003517
 1502 Fit       0.003243
 1503 Fit       0.004690
 1504 Fit       0.007324
 1505 Fit       0.006289
 1506 Fit       0.011598
 1507 Fit       0.005656
 1508 Fit       0.005658
 1509 Fit       0.004489
 1510 Fit       0.007776
 1511 Fit       0.007504
 1512 Fit       0.007558
 1513 Fit       0.006807
 1514 Fit       0.005105
 1515 Fit       0.003988
 1516 Fit       0.010168
 1517 Fit       0.008911
 1518 Fit       0.008289
 1519 Fit       0.007004
 1520 Fit       0.006287
 1521 Fit       0.010009
 1522 Fit       0.009131
 1523 Fit       0.009440
 1524 Fit       0.003680
 1525 Fit       0.006074
 1526 Fit       0.003853
 1527 Fit       0.003954
 1528 Fit       0.003011
 1529 Fit       0.004232
 1530 Fit       0.004036
 1531 Fit       0.004783
 1532 Fit       0.003861
 1533 Fit       0.000891
 1534 Fit       0.001659
 1535 Fit       0.004017
 1536 Fit       0.004095
 1537 Fit      -0.004465
 1538 Fit       0.001974
 1539 Fit       0.004980
 1540 Fit      -0.003543
 1541 Fit       0.006893
 1542 Fit       0.001707
 1543 Fit       0.000674
 1544 Fit      -0.000730
 1545 Fit       0.007472
 1546 Fit       0.004510
 1547 Fit       0.003378
 1548 Fit       0.002468
 1549 Fit       0.001907
 1550 Fit       0.002838
 1551 Fit       0.002432
 1552 Fit       0.003370
 1553 Fit       0.003640
 1554 Fit       0.004391
 1555 Fit       0.004447
 1556 Fit       0.006337
 1557 Fit       0.001081
 1558 Fit       0.002187
 1559 Fit       0.002489
 1560 Fit       0.002226
 1561 Fit       0.002923
 1562 Fit       0.003212
 1563 Fit       0.002764
 1564 Fit       0.000667
 1565 Fit       0.003305
 1566 Fit       0.003419
 1567 Fit       0.002595
 1568 Fit       0.000413
 1569 Fit       0.003566
 1570 Fit       0.003190
 1571 Fit       0.002357
 1572 Fit      -0.003963
 1573 Fit       0.000888
 1574 Fit       0.004184
 1575 Fit       0.004303
 1576 Fit       0.003052
 1577 Fit       0.000021
 1578 Fit       0.005273
 1579 Fit       0.005243
 1580 Fit       0.004805
 1581 Fit       0.004191
 1582 Fit       0.003224
 1583 Fit       0.001713
 1584 Fit      -0.001242
 1585 Fit       0.004696
 1586 Fit       0.003995
 1587 Fit       0.003272
 1588 Fit       0.002382
 1589 Fit       0.007499
 1590 Fit       0.006192
 1591 Fit       0.005003
 1592 Fit       0.010095
 1593 Fit       0.008432
 1594 Fit       0.007274
 1595 Fit       0.006071
 1596 Fit       0.004680
 1597 Fit       0.009982
 1598 Fit       0.008603
 1599 Fit       0.007399
 1600 Fit       0.005962
 1601 Fit       0.004413
 1602 Fit       0.009412
 1603 Fit       0.008361
 1604 Fit       0.006887
 1605 Fit       0.005260
 1606 Fit       0.006983
 1607 Fit       0.001816
 1608 Fit       0.009802
 1609 Fit       0.010052
 1610 Fit       0.010641
 1611 Fit      -0.007004
 1612 Fit       0.010592
 1613 Fit       0.004631
 1614 Fit       0.007557
 1615 Fit       0.008529
 1616 Fit       0.009170
 1617 Fit       0.010063
 1618 Fit       0.003988
 1619 Fit       0.001393
 1620 Fit       0.001119
 1621 Fit       0.005725
 1622 Fit       0.007581
 1623 Fit       0.008444
 1624 Fit       0.008094
 1625 Fit       0.006173
 1626 Fit       0.004683
 1627 Fit       0.006917
 1628 Fit       0.006733
 1629 Fit       0.009162
 1630 Fit       0.008132
 1631 Fit       0.007181
 1632 Fit       0.010606
 1633 Fit       0.009632
 1634 Fit       0.009098
 1635 Fit       0.008564
 1636 Fit       0.010195
 1637 Fit       0.009802
 1638 Fit       0.009737
 1639 Fit       0.009957
 1640 Fit       0.009963
 1641 Fit       0.010504
 1642 Fit       0.000642
 1643 Fit      -0.003921
 1644 Fit      -0.002687
 1645 Fit       0.003181
 1646 Fit       0.009690
 1647 Fit       0.010502
 1648 Fit       0.009403
 1649 Fit       0.010200
 1650 Fit       0.011873
 1651 Fit       0.009659
 1652 Fit       0.006794
 1653 Fit       0.011516
 1654 Fit       0.010436
 1655 Fit       0.009262
 1656 Fit       0.006456
 1657 Fit       0.011725
 1658 Fit       0.010842
 1659 Fit       0.010534
 1660 Fit       0.010455
 1661 Fit       0.010907
 1662 Fit       0.010456
 1663 Fit       0.010662
 1664 Fit       0.010576
 1665 Fit      -0.004223
 1666 Fit       0.004086
 1667 Fit       0.007666
 1668 Fit       0.009220
 1669 Fit      -0.001862
 1670 Fit       0.004023
 1671 Fit       0.007042
 1672 Fit       0.008789
 1673 Fit      -0.007990
 1674 Fit      -0.010286
 1675 Fit       0.001318
 1676 Fit       0.005621
 1677 Fit      -0.001808
 1678 Fit       0.004517
 1679 Fit       0.007709
 1680 Fit       0.011504
 1681 Fit       0.007565
 1682 Fit       0.009176
 1683 Fit       0.004203
 1684 Fit       0.006627
 1685 Fit       0.009389
 1686 Fit       0.011924
 1687 Fit      -0.000033
 1688 Fit       0.004093
 1689 Fit       0.007745
 1690 Fit       0.010744
 1691 Fit      -0.003819
 1692 Fit       0.002250
 1693 Fit       0.006891
 1694 Fit       0.010713
 1695 Fit      -0.006661
 1696 Fit       0.001918
 1697 Fit       0.007968
 1698 Fit       0.010384
 1699 Fit       0.010568
 1700 Fit       0.010039
 1701 Fit       0.009577
 1702 Fit       0.008881
 1703 Fit       0.011156
 1704 Fit       0.011059
 1705 Fit       0.008592
 1706 Fit       0.005329
 1707 Fit       0.005433
 1708 Fit       0.010052
 1709 Fit      -0.013971
 1710 Fit      -0.017916
 1711 Fit      -0.015334
 1712 Fit      -0.017440
 1713 Fit      -0.011576
 1714 Fit      -0.014713
 1715 Fit      -0.014575
 1716 Fit       0.004414
 1717 Fit       0.001915
 1718 Fit       0.001825
 1719 Fit      -0.002114
 1720 Fit       0.002195
 1721 Fit      -0.000784
 1722 Fit      -0.007204
 1723 Fit      -0.011336
 1724 Fit      -0.000050
 1725 Fit       0.000798
 1726 Fit      -0.001025
 1727 Fit      -0.004694
 1728 Fit      -0.007936
 1729 Fit      -0.007714
 1730 Fit      -0.011932
 1731 Fit      -0.007982
 1732 Fit      -0.002579
 1733 Fit      -0.001142
 1734 Fit      -0.003490
 1735 Fit      -0.004552
 1736 Fit       0.007447
 1737 Fit      -0.002021
 1738 Fit       0.004206
 1739 Fit       0.002897
 1740 Fit       0.006672
 1741 Fit       0.001066
 1742 Fit       0.004144
 1743 Fit       0.002757
 1744 Fit      -0.000314
 1745 Fit      -0.006361
 1746 Fit       0.008549
 1747 Fit      -0.009034
 1748 Fit       0.005766
 1749 Fit       0.002996
 1750 Fit       0.007958
 1751 Fit       0.006321
 1752 Fit       0.004139
 1753 Fit       0.000394
 1754 Fit      -0.005639
 1755 Fit       0.007721
 1756 Fit       0.006295
 1757 Fit       0.004016
 1758 Fit       0.000135
 1759 Fit      -0.006610
 1760 Fit       0.006272
 1761 Fit       0.003601
 1762 Fit      -0.000974
 1763 Fit      -0.009517
 1764 Fit       0.003391
 1765 Fit      -0.002844
 1766 Fit       0.005843
 1767 Fit       0.004665
 1768 Fit       0.007446
 1769 Fit       0.008611
 1770 Fit       0.007180
 1771 Fit       0.004380
 1772 Fit       0.002332
 1773 Fit       0.009180
 1774 Fit       0.009398
 1775 Fit      -0.005977
 1776 Fit      -0.011595
 1777 Fit      -0.014497
 1778 Fit      -0.014613
 1779 Fit      -0.016718
 1780 Fit      -0.011563
 1781 Fit      -0.016778
 1782 Fit      -0.014676
 1783 Fit      -0.011912
 1784 Fit      -0.015558
 1785 Fit      -0.011816
 1786 Fit      -0.001408
 1787 Fit      -0.010568
 1788 Fit       0.002402
 1789 Fit       0.000911
 1790 Fit       0.005314
 1791 Fit       0.001596
 1792 Fit       0.000433
 1793 Fit      -0.000419
 1794 Fit       0.005066
 1795 Fit       0.000808
 1796 Fit      -0.008881
 1797 Fit      -0.012223
 1798 Fit      -0.010251
 1799 Fit      -0.012378
 1800 Fit      -0.011144
 1801 Fit      -0.006917
 1802 Fit      -0.011852
 1803 Fit      -0.006800
 1804 Fit      -0.011698
 1805 Fit      -0.003187
 1806 Fit       0.001635
 1807 Fit      -0.006264
 1808 Fit      -0.000640
 1809 Fit       0.003498
 1810 Fit       0.002441
 1811 Fit      -0.005088
 1812 Fit      -0.004963
 1813 Fit      -0.001411
 1814 Fit       0.002497
 1815 Fit      -0.000905
 1816 Fit       0.001503
 1817 Fit       0.000305
 1818 Fit      -0.000384
 1819 Fit       0.001307
 1820 Fit       0.004517
 1821 Fit      -0.003535
 1822 Fit       0.002021
 1823 Fit      -0.009660
 1824 Fit      -0.001164
 1825 Fit      -0.003761
 1826 Fit      -0.006905
 1827 Fit      -0.008837
 1828 Fit      -0.008532
 1829 Fit      -0.005165
 1830 Fit      -0.002936
 1831 Fit      -0.003529
 1832 Fit      -0.008859
 1833 Fit      -0.009997
 1834 Fit      -0.007101
 1835 Fit       0.004014
 1836 Fit      -0.004129
 1837 Fit      -0.008649
 1838 Fit      -0.009421
 1839 Fit      -0.006375
 1840 Fit       0.001489
 1841 Fit      -0.005174
 1842 Fit      -0.008640
 1843 Fit      -0.008603
 1844 Fit      -0.005141
 1845 Fit      -0.002380
 1846 Fit      -0.007424
 1847 Fit      -0.009429
 1848 Fit      -0.008317
 1849 Fit      -0.004816
 1850 Fit       0.003281
 1851 Fit      -0.004900
 1852 Fit      -0.009686
 1853 Fit      -0.010985
 1854 Fit      -0.009544
 1855 Fit      -0.002809
 1856 Fit      -0.009591
 1857 Fit      -0.012741
 1858 Fit      -0.012897
 1859 Fit      -0.002572
 1860 Fit      -0.009497
 1861 Fit      -0.013399
 1862 Fit      -0.013926
 1863 Fit      -0.003675
 1864 Fit      -0.009802
 1865 Fit      -0.012224
 1866 Fit      -0.008666
 1867 Fit      -0.002812
 1868 Fit      -0.007593
 1869 Fit       0.006091
 1870 Fit       0.002505
 1871 Fit       0.003905
 1872 Fit      -0.000386
 1873 Fit       0.003864
 1874 Fit       0.002710
 1875 Fit       0.002660
 1876 Fit       0.002941
 1877 Fit       0.001559
 1878 Fit       0.002746
 1879 Fit       0.010180
 1880 Fit       0.008731
 1881 Fit       0.001199
 1882 Fit      -0.001731
 1883 Fit       0.000541
 1884 Fit       0.002947
 1885 Fit       0.000456
 1886 Fit       0.005214
 1887 Fit       0.002402
 1888 Fit       0.002606
 1889 Fit       0.002588
 1890 Fit       0.003724
 1891 Fit       0.002259
 1892 Fit       0.003781
 1893 Fit       0.004534
 1894 Fit       0.001330
 1895 Fit       0.001046
 1896 Fit      -0.000112
 1897 Fit       0.009582
 1898 Fit       0.005861
 1899 Fit      -0.001057
 1900 Fit      -0.008008
 1901 Fit      -0.006948
 1902 Fit      -0.002077
 1903 Fit      -0.001461
 1904 Fit      -0.006226
 1905 Fit      -0.011680
 1906 Fit      -0.011884
 1907 Fit      -0.007630
 1908 Fit      -0.012979
 1909 Fit      -0.015007
 1910 Fit      -0.012946
 1911 Fit      -0.007977
 1912 Fit      -0.009084
 1913 Fit      -0.013904
 1914 Fit      -0.015380
 1915 Fit      -0.013322
 1916 Fit      -0.008324
 1917 Fit      -0.001133
 1918 Fit      -0.008399
 1919 Fit      -0.013004
 1920 Fit      -0.014714
 1921 Fit      -0.013351
 1922 Fit      -0.009294
 1923 Fit      -0.003177
 1924 Fit       0.000010
 1925 Fit      -0.006645
 1926 Fit      -0.011305
 1927 Fit      -0.013683
 1928 Fit      -0.013463
 1929 Fit      -0.010748
 1930 Fit      -0.006098
 1931 Fit      -0.000281
 1932 Fit      -0.002970
 1933 Fit      -0.008817
 1934 Fit      -0.012507
 1935 Fit      -0.013475
 1936 Fit      -0.011511
 1937 Fit      -0.007003
 1938 Fit      -0.000712
 1939 Fit      -0.003032
 1940 Fit      -0.009440
 1941 Fit      -0.012863
 1942 Fit      -0.012985
 1943 Fit      -0.009649
 1944 Fit      -0.007090
 1945 Fit      -0.011826
 1946 Fit      -0.012170
 1947 Fit      -0.007877
 1948 Fit      -0.009727
 1949 Fit      -0.007660
 1950 Fit      -0.005172
 1951 Fit      -0.000626
 1952 Fit      -0.002053
 1953 Fit      -0.001667
 1954 Fit      -0.001469
 1955 Fit      -0.002003
 1956 Fit      -0.004557
 1957 Fit      -0.001753
 1958 Fit      -0.001454
 1959 Fit      -0.002100
 1960 Fit      -0.000585
 1961 Fit      -0.003353
 1962 Fit       0.000382
 1963 Fit       0.003842
 1964 Fit       0.001669
 1965 Fit       0.005309
 1966 Fit       0.008220
 1967 Fit      -0.001001
 1968 Fit       0.000262
 1969 Fit       0.000372
 1970 Fit      -0.004187
 1971 Fit      -0.000649
 1972 Fit      -0.001396
 1973 Fit      -0.004801
 1974 Fit      -0.001692
 1975 Fit      -0.001215
 1976 Fit      -0.000097
 1977 Fit      -0.001179
 1978 Fit      -0.002114
 1979 Fit      -0.001717
 1980 Fit       0.011544
 1981 Fit       0.008660
 1982 Fit       0.005667
 1983 Fit       0.003850
 1984 Fit      -0.006144
 1985 Fit      -0.010619
 1986 Fit      -0.008827
 1987 Fit      -0.012442
 1988 Fit      -0.007841
 1989 Fit      -0.009237
 1990 Fit      -0.013169
 1991 Fit      -0.012291
 1992 Fit      -0.007674
 1993 Fit      -0.001267
 1994 Fit      -0.006959
 1995 Fit      -0.012314
 1996 Fit      -0.014058
 1997 Fit      -0.011439
 1998 Fit      -0.006518
 1999 Fit       0.000007
 2000 Fit      -0.004176
 2001 Fit      -0.009951
 2002 Fit      -0.013382
 2003 Fit      -0.013900
 2004 Fit      -0.011056
 2005 Fit      -0.005958
 2006 Fit      -0.001379
 2007 Fit      -0.007205
 2008 Fit      -0.011696
 2009 Fit      -0.014089
 2010 Fit      -0.013887
 2011 Fit      -0.011643
 2012 Fit      -0.005916
 2013 Fit      -0.006445
 2014 Fit      -0.011733
 2015 Fit      -0.014690
 2016 Fit      -0.014698
 2017 Fit      -0.012812
 2018 Fit      -0.007071
 2019 Fit      -0.011052
 2020 Fit      -0.014975
 2021 Fit      -0.015649
 2022 Fit      -0.013477
 2023 Fit      -0.008233
 2024 Fit      -0.008682
 2025 Fit      -0.013650
 2026 Fit      -0.015584
 2027 Fit      -0.012383
 2028 Fit      -0.006771
 2029 Fit      -0.001826
 2030 Fit      -0.002885
 2031 Fit      -0.007728
 2032 Fit      -0.012652
 2033 Fit      -0.008778
 2034 Fit       0.008054
 2035 Fit       0.005486
 2036 Fit      -0.001776
 2037 Fit       0.005323
 2038 Fit       0.002026
 2039 Fit       0.005290
 2040 Fit       0.007073
 2041 Fit       0.008410
 2042 Fit       0.001853
 2043 Fit       0.005134
 2044 Fit       0.006846
 2045 Fit       0.007927
 2046 Fit       0.001046
 2047 Fit       0.004623
 2048 Fit       0.006233
 2049 Fit       0.000359
 2050 Fit       0.004077
 2051 Fit       0.008690
 2052 Fit       0.008412
 2053 Fit       0.009415
 2054 Fit       0.013972
 2055 Fit       0.006110
 2056 Fit       0.007116
 2057 Fit       0.007723
 2058 Fit       0.008759
 2059 Fit       0.010543
 2060 Fit       0.000677
 2061 Fit       0.004582
 2062 Fit       0.006382
 2063 Fit       0.006864
 2064 Fit       0.003900
 2065 Fit       0.003871
 2066 Fit       0.003450
 2067 Fit       0.004667
 2068 Fit       0.003148
 2069 Fit       0.002912
 2070 Fit       0.004181
 2071 Fit       0.003990
 2072 Fit       0.002438
 2073 Fit       0.005303
 2074 Fit       0.005339
 2075 Fit       0.002117
 2076 Fit       0.007983
 2077 Fit       0.003120
 2078 Fit       0.005604
 2079 Fit       0.008433
 2080 Fit       0.008729
 2081 Fit       0.004497
 2082 Fit       0.004393
 2083 Fit       0.003522
 2084 Fit       0.005793
 2085 Fit       0.005886
 2086 Fit       0.005464
 2087 Fit       0.004272
 2088 Fit       0.002794
 2089 Fit       0.007265
 2090 Fit       0.006974
 2091 Fit       0.006399
 2092 Fit       0.005163
 2093 Fit       0.003757
 2094 Fit       0.008007
 2095 Fit       0.007303
 2096 Fit       0.006355
 2097 Fit       0.006283
 2098 Fit       0.008409
 2099 Fit       0.007908
 2100 Fit       0.004436
 2101 Fit       0.003123
 2102 Fit       0.002186
 2103 Fit       0.003389
 2104 Fit       0.003511
 2105 Fit       0.004129
 2106 Fit       0.003221
 2107 Fit       0.000779
 2108 Fit       0.001033
 2109 Fit       0.003137
 2110 Fit       0.003562
 2111 Fit      -0.003228
 2112 Fit       0.000422
 2113 Fit       0.003371
 2114 Fit       0.004053
 Job cpu time:       0 days  0 hours  4 minutes 51.3 seconds.
 Normal termination of Gaussian 16 at Sat Jul  8 20:45:56 2023.
