 Entering Gaussian System, Link 0=/opt/g16/g16
 Input=03-IsoP_393_gaussian.com
 Output=03-IsoP_393_gaussian.log
 Initial command:
 /opt/g16/l1.exe "/tmp/Gau-2627239.inp" -scrdir="/tmp/"
 Entering Link 1 = /opt/g16/l1.exe PID=   2627241.
  
 Copyright (c) 1988,1990,1992,1993,1995,1998,2003,2009,2016,
            Gaussian, Inc.  All Rights Reserved.
  
 This is part of the Gaussian(R) 16 program.  It is based on
 the Gaussian(R) 09 system (copyright 2009, Gaussian, Inc.),
 the Gaussian(R) 03 system (copyright 2003, Gaussian, Inc.),
 the Gaussian(R) 98 system (copyright 1998, Gaussian, Inc.),
 the Gaussian(R) 94 system (copyright 1995, Gaussian, Inc.),
 the Gaussian 92(TM) system (copyright 1992, Gaussian, Inc.),
 the Gaussian 90(TM) system (copyright 1990, Gaussian, Inc.),
 the Gaussian 88(TM) system (copyright 1988, Gaussian, Inc.),
 the Gaussian 86(TM) system (copyright 1986, Carnegie Mellon
 University), and the Gaussian 82(TM) system (copyright 1983,
 Carnegie Mellon University). Gaussian is a federally registered
 trademark of Gaussian, Inc.
  
 This software contains proprietary and confidential information,
 including trade secrets, belonging to Gaussian, Inc.
  
 This software is provided under written license and may be
 used, copied, transmitted, or stored only in accord with that
 written license.
  
 The following legend is applicable only to US Government
 contracts under FAR:
  
                    RESTRICTED RIGHTS LEGEND
  
 Use, reproduction and disclosure by the US Government is
 subject to restrictions as set forth in subparagraphs (a)
 and (c) of the Commercial Computer Software - Restricted
 Rights clause in FAR 52.227-19.
  
 Gaussian, Inc.
 340 Quinnipiac St., Bldg. 40, Wallingford CT 06492
  
  
 ---------------------------------------------------------------
 Warning -- This program may not be used in any manner that
 competes with the business of Gaussian, Inc. or will provide
 assistance to any competitor of Gaussian, Inc.  The licensee
 of this program is prohibited from giving any competitor of
 Gaussian, Inc. access to this program.  By using this program,
 the user acknowledges that Gaussian, Inc. is engaged in the
 business of creating and licensing software in the field of
 computational chemistry and represents and warrants to the
 licensee that it is not a competitor of Gaussian, Inc. and that
 it will not use this program in any manner prohibited above.
 ---------------------------------------------------------------
  

 Cite this work as:
 Gaussian 16, Revision A.03,
 M. J. Frisch, G. W. Trucks, H. B. Schlegel, G. E. Scuseria, 
 M. A. Robb, J. R. Cheeseman, G. Scalmani, V. Barone, 
 G. A. Petersson, H. Nakatsuji, X. Li, M. Caricato, A. V. Marenich, 
 J. Bloino, B. G. Janesko, R. Gomperts, B. Mennucci, H. P. Hratchian, 
 J. V. Ortiz, A. F. Izmaylov, J. L. Sonnenberg, D. Williams-Young, 
 F. Ding, F. Lipparini, F. Egidi, J. Goings, B. Peng, A. Petrone, 
 T. Henderson, D. Ranasinghe, V. G. Zakrzewski, J. Gao, N. Rega, 
 G. Zheng, W. Liang, M. Hada, M. Ehara, K. Toyota, R. Fukuda, 
 J. Hasegawa, M. Ishida, T. Nakajima, Y. Honda, O. Kitao, H. Nakai, 
 T. Vreven, K. Throssell, J. A. Montgomery, Jr., J. E. Peralta, 
 F. Ogliaro, M. J. Bearpark, J. J. Heyd, E. N. Brothers, K. N. Kudin, 
 V. N. Staroverov, T. A. Keith, R. Kobayashi, J. Normand, 
 K. Raghavachari, A. P. Rendell, J. C. Burant, S. S. Iyengar, 
 J. Tomasi, M. Cossi, J. M. Millam, M. Klene, C. Adamo, R. Cammi, 
 J. W. Ochterski, R. L. Martin, K. Morokuma, O. Farkas, 
 J. B. Foresman, and D. J. Fox, Gaussian, Inc., Wallingford CT, 2016.
 
 ******************************************
 Gaussian 16:  ES64L-G16RevA.03 25-Dec-2016
                26-Jul-2021 
 ******************************************
 %chk=03-IsoP_393_gaussian.chk
 %nproc=1
 Will use up to    1 processors via shared memory.
 %mem=1000Mb
 ----------
 #p opt pm3
 ----------
 1/18=20,19=15,26=1,38=1/1,3;
 2/9=110,12=2,17=6,18=5,40=1/2;
 3/5=2,25=1,41=800000,71=1/1,2,3;
 4/35=1/1;
 5/5=2,35=1,38=5/2;
 6/7=2,8=2,9=2,10=2,28=1/1;
 7//1,2,3,16;
 1/18=20,19=15,26=1/3(2);
 2/9=110/2;
 99//99;
 2/9=110/2;
 3/5=2,25=1,41=800000,71=1,135=20/1,2,3;
 4/5=5,16=3,35=1/1;
 5/5=2,35=1,38=5/2;
 7//1,2,3,16;
 1/18=20,19=15,26=1/3(-5);
 2/9=110/2;
 6/7=2,8=2,9=2,10=2,19=2,28=1/1;
 99/9=1/99;
 Leave Link    1 at Mon Jul 26 19:32:36 2021, MaxMem=   131072000 cpu:               0.0 elap:               0.0
 (Enter /opt/g16/l101.exe)
 -------------------------------------------------
 Conformer number 393. Energy MM = 23.486 kcal/mol
 -------------------------------------------------
 Symbolic Z-matrix:
 Charge =  0 Multiplicity = 1
 C                    -1.224    -0.8087    0.8714 
 H                    -1.8555   -1.3595    1.5814 
 H                    -0.798    -1.582     0.2227 
 C                    -2.1145    0.1396    0.0899 
 C                    -3.1226    0.8967    0.9177 
 H                    -2.618     1.548     1.6378 
 H                    -3.7737    1.5278    0.3035 
 H                    -3.7637    0.1994    1.4669 
 C                    -2.0726    0.3068   -1.2472 
 H                    -2.7766    1.0006   -1.7061 
 C                    -1.1425   -0.338    -2.2258 
 H                    -0.3665   -0.9483   -1.7602 
 H                    -0.6401    0.4359   -2.815 
 H                    -1.7108   -0.9727   -2.9127 
 C                     2.7497   -1.2276    0.9304 
 H                     3.1059   -1.8079    0.0723 
 H                     2.0347   -1.8586    1.4631 
 H                     3.5984   -1.0423    1.5967 
 C                     2.1646    0.0763    0.464 
 C                     3.0749    0.881    -0.4266 
 H                     4.0043    1.1208    0.1003 
 H                     3.3224    0.3127   -1.3292 
 H                     2.6196    1.8253   -0.7432 
 C                     0.9331    0.5282    0.7713 
 H                     0.6117    1.4824    0.3526 
 C                    -0.0968   -0.1225    1.6568 
 H                     0.3662   -0.8584    2.3222 
 H                    -0.5097    0.6451    2.3228 
 
 ITRead=  0  0  0  0  0  0  0  0  0  0  0  0  0  0  0  0  0  0  0  0
 ITRead=  0  0  0  0  0  0  0  0
 MicOpt= -1 -1 -1 -1 -1 -1 -1 -1 -1 -1 -1 -1 -1 -1 -1 -1 -1 -1 -1 -1
 MicOpt= -1 -1 -1 -1 -1 -1 -1 -1
 NAtoms=     28 NQM=       28 NQMF=       0 NMMI=      0 NMMIF=      0
                NMic=       0 NMicF=      0.
                    Isotopes and Nuclear Properties:
 (Nuclear quadrupole moments (NQMom) in fm**2, nuclear magnetic moments (NMagM)
  in nuclear magnetons)

  Atom         1           2           3           4           5           6           7           8           9          10
 IAtWgt=          12           1           1          12          12           1           1           1          12           1
 AtmWgt=  12.0000000   1.0078250   1.0078250  12.0000000  12.0000000   1.0078250   1.0078250   1.0078250  12.0000000   1.0078250
 NucSpn=           0           1           1           0           0           1           1           1           0           1
 AtZEff=  -0.0000000  -0.0000000  -0.0000000  -0.0000000  -0.0000000  -0.0000000  -0.0000000  -0.0000000  -0.0000000  -0.0000000
 NQMom=    0.0000000   0.0000000   0.0000000   0.0000000   0.0000000   0.0000000   0.0000000   0.0000000   0.0000000   0.0000000
 NMagM=    0.0000000   2.7928460   2.7928460   0.0000000   0.0000000   2.7928460   2.7928460   2.7928460   0.0000000   2.7928460
 AtZNuc=   6.0000000   1.0000000   1.0000000   6.0000000   6.0000000   1.0000000   1.0000000   1.0000000   6.0000000   1.0000000

  Atom        11          12          13          14          15          16          17          18          19          20
 IAtWgt=          12           1           1           1          12           1           1           1          12          12
 AtmWgt=  12.0000000   1.0078250   1.0078250   1.0078250  12.0000000   1.0078250   1.0078250   1.0078250  12.0000000  12.0000000
 NucSpn=           0           1           1           1           0           1           1           1           0           0
 AtZEff=  -0.0000000  -0.0000000  -0.0000000  -0.0000000  -0.0000000  -0.0000000  -0.0000000  -0.0000000  -0.0000000  -0.0000000
 NQMom=    0.0000000   0.0000000   0.0000000   0.0000000   0.0000000   0.0000000   0.0000000   0.0000000   0.0000000   0.0000000
 NMagM=    0.0000000   2.7928460   2.7928460   2.7928460   0.0000000   2.7928460   2.7928460   2.7928460   0.0000000   0.0000000
 AtZNuc=   6.0000000   1.0000000   1.0000000   1.0000000   6.0000000   1.0000000   1.0000000   1.0000000   6.0000000   6.0000000

  Atom        21          22          23          24          25          26          27          28
 IAtWgt=           1           1           1          12           1          12           1           1
 AtmWgt=   1.0078250   1.0078250   1.0078250  12.0000000   1.0078250  12.0000000   1.0078250   1.0078250
 NucSpn=           1           1           1           0           1           0           1           1
 AtZEff=  -0.0000000  -0.0000000  -0.0000000  -0.0000000  -0.0000000  -0.0000000  -0.0000000  -0.0000000
 NQMom=    0.0000000   0.0000000   0.0000000   0.0000000   0.0000000   0.0000000   0.0000000   0.0000000
 NMagM=    2.7928460   2.7928460   2.7928460   0.0000000   2.7928460   0.0000000   2.7928460   2.7928460
 AtZNuc=   1.0000000   1.0000000   1.0000000   6.0000000   1.0000000   6.0000000   1.0000000   1.0000000
 Leave Link  101 at Mon Jul 26 19:32:36 2021, MaxMem=   131072000 cpu:               0.2 elap:               0.2
 (Enter /opt/g16/l103.exe)

 GradGradGradGradGradGradGradGradGradGradGradGradGradGradGradGradGradGrad
 Berny optimization.
 Initialization pass.
                           ----------------------------
                           !    Initial Parameters    !
                           ! (Angstroms and Degrees)  !
 --------------------------                            --------------------------
 ! Name  Definition              Value          Derivative Info.                !
 --------------------------------------------------------------------------------
 ! R1    R(1,2)                  1.0983         estimate D2E/DX2                !
 ! R2    R(1,3)                  1.0956         estimate D2E/DX2                !
 ! R3    R(1,4)                  1.5176         estimate D2E/DX2                !
 ! R4    R(1,26)                 1.5357         estimate D2E/DX2                !
 ! R5    R(4,5)                  1.5082         estimate D2E/DX2                !
 ! R6    R(4,9)                  1.3482         estimate D2E/DX2                !
 ! R7    R(5,6)                  1.0942         estimate D2E/DX2                !
 ! R8    R(5,7)                  1.0952         estimate D2E/DX2                !
 ! R9    R(5,8)                  1.0949         estimate D2E/DX2                !
 ! R10   R(9,10)                 1.0898         estimate D2E/DX2                !
 ! R11   R(9,11)                 1.4962         estimate D2E/DX2                !
 ! R12   R(11,12)                1.0915         estimate D2E/DX2                !
 ! R13   R(11,13)                1.0948         estimate D2E/DX2                !
 ! R14   R(11,14)                1.0944         estimate D2E/DX2                !
 ! R15   R(15,16)                1.0954         estimate D2E/DX2                !
 ! R16   R(15,17)                1.0923         estimate D2E/DX2                !
 ! R17   R(15,18)                1.0948         estimate D2E/DX2                !
 ! R18   R(15,19)                1.5033         estimate D2E/DX2                !
 ! R19   R(19,20)                1.5064         estimate D2E/DX2                !
 ! R20   R(19,24)                1.3473         estimate D2E/DX2                !
 ! R21   R(20,21)                1.0949         estimate D2E/DX2                !
 ! R22   R(20,22)                1.0949         estimate D2E/DX2                !
 ! R23   R(20,23)                1.0951         estimate D2E/DX2                !
 ! R24   R(24,25)                1.0905         estimate D2E/DX2                !
 ! R25   R(24,26)                1.5061         estimate D2E/DX2                !
 ! R26   R(26,27)                1.0948         estimate D2E/DX2                !
 ! R27   R(26,28)                1.0969         estimate D2E/DX2                !
 ! A1    A(2,1,3)              104.6174         estimate D2E/DX2                !
 ! A2    A(2,1,4)              107.9922         estimate D2E/DX2                !
 ! A3    A(2,1,26)             108.3916         estimate D2E/DX2                !
 ! A4    A(3,1,4)              111.3655         estimate D2E/DX2                !
 ! A5    A(3,1,26)             109.4396         estimate D2E/DX2                !
 ! A6    A(4,1,26)             114.5108         estimate D2E/DX2                !
 ! A7    A(1,4,5)              115.04           estimate D2E/DX2                !
 ! A8    A(1,4,9)              124.7505         estimate D2E/DX2                !
 ! A9    A(5,4,9)              120.1902         estimate D2E/DX2                !
 ! A10   A(4,5,6)              110.5944         estimate D2E/DX2                !
 ! A11   A(4,5,7)              112.261          estimate D2E/DX2                !
 ! A12   A(4,5,8)              110.3026         estimate D2E/DX2                !
 ! A13   A(6,5,7)              107.4713         estimate D2E/DX2                !
 ! A14   A(6,5,8)              108.6012         estimate D2E/DX2                !
 ! A15   A(7,5,8)              107.4685         estimate D2E/DX2                !
 ! A16   A(4,9,10)             118.4589         estimate D2E/DX2                !
 ! A17   A(4,9,11)             127.9211         estimate D2E/DX2                !
 ! A18   A(10,9,11)            113.6124         estimate D2E/DX2                !
 ! A19   A(9,11,12)            113.8235         estimate D2E/DX2                !
 ! A20   A(9,11,13)            109.4299         estimate D2E/DX2                !
 ! A21   A(9,11,14)            109.7347         estimate D2E/DX2                !
 ! A22   A(12,11,13)           107.3719         estimate D2E/DX2                !
 ! A23   A(12,11,14)           108.2187         estimate D2E/DX2                !
 ! A24   A(13,11,14)           108.0888         estimate D2E/DX2                !
 ! A25   A(16,15,17)           106.7891         estimate D2E/DX2                !
 ! A26   A(16,15,18)           108.3207         estimate D2E/DX2                !
 ! A27   A(16,15,19)           110.0596         estimate D2E/DX2                !
 ! A28   A(17,15,18)           107.9629         estimate D2E/DX2                !
 ! A29   A(17,15,19)           113.4266         estimate D2E/DX2                !
 ! A30   A(18,15,19)           110.1041         estimate D2E/DX2                !
 ! A31   A(15,19,20)           114.3016         estimate D2E/DX2                !
 ! A32   A(15,19,24)           125.1625         estimate D2E/DX2                !
 ! A33   A(20,19,24)           120.5312         estimate D2E/DX2                !
 ! A34   A(19,20,21)           110.2068         estimate D2E/DX2                !
 ! A35   A(19,20,22)           110.2846         estimate D2E/DX2                !
 ! A36   A(19,20,23)           112.3524         estimate D2E/DX2                !
 ! A37   A(21,20,22)           108.5712         estimate D2E/DX2                !
 ! A38   A(21,20,23)           107.6484         estimate D2E/DX2                !
 ! A39   A(22,20,23)           107.6504         estimate D2E/DX2                !
 ! A40   A(19,24,25)           118.3805         estimate D2E/DX2                !
 ! A41   A(19,24,26)           127.8972         estimate D2E/DX2                !
 ! A42   A(25,24,26)           113.7201         estimate D2E/DX2                !
 ! A43   A(1,26,24)            113.2222         estimate D2E/DX2                !
 ! A44   A(1,26,27)            108.7169         estimate D2E/DX2                !
 ! A45   A(1,26,28)            110.2985         estimate D2E/DX2                !
 ! A46   A(24,26,27)           111.0114         estimate D2E/DX2                !
 ! A47   A(24,26,28)           108.1825         estimate D2E/DX2                !
 ! A48   A(27,26,28)           105.1018         estimate D2E/DX2                !
 ! D1    D(2,1,4,5)             44.1662         estimate D2E/DX2                !
 ! D2    D(2,1,4,9)           -134.2344         estimate D2E/DX2                !
 ! D3    D(3,1,4,5)            158.4949         estimate D2E/DX2                !
 ! D4    D(3,1,4,9)            -19.9057         estimate D2E/DX2                !
 ! D5    D(26,1,4,5)           -76.6754         estimate D2E/DX2                !
 ! D6    D(26,1,4,9)           104.924          estimate D2E/DX2                !
 ! D7    D(2,1,26,24)          173.0026         estimate D2E/DX2                !
 ! D8    D(2,1,26,27)           49.1319         estimate D2E/DX2                !
 ! D9    D(2,1,26,28)          -65.6155         estimate D2E/DX2                !
 ! D10   D(3,1,26,24)           59.4636         estimate D2E/DX2                !
 ! D11   D(3,1,26,27)          -64.4071         estimate D2E/DX2                !
 ! D12   D(3,1,26,28)         -179.1545         estimate D2E/DX2                !
 ! D13   D(4,1,26,24)          -66.3766         estimate D2E/DX2                !
 ! D14   D(4,1,26,27)          169.7527         estimate D2E/DX2                !
 ! D15   D(4,1,26,28)           55.0054         estimate D2E/DX2                !
 ! D16   D(1,4,5,6)             62.894          estimate D2E/DX2                !
 ! D17   D(1,4,5,7)           -177.0818         estimate D2E/DX2                !
 ! D18   D(1,4,5,8)            -57.2615         estimate D2E/DX2                !
 ! D19   D(9,4,5,6)           -118.6263         estimate D2E/DX2                !
 ! D20   D(9,4,5,7)              1.3979         estimate D2E/DX2                !
 ! D21   D(9,4,5,8)            121.2182         estimate D2E/DX2                !
 ! D22   D(1,4,9,10)           178.6336         estimate D2E/DX2                !
 ! D23   D(1,4,9,11)            -2.4366         estimate D2E/DX2                !
 ! D24   D(5,4,9,10)             0.31           estimate D2E/DX2                !
 ! D25   D(5,4,9,11)           179.2399         estimate D2E/DX2                !
 ! D26   D(4,9,11,12)           -5.3096         estimate D2E/DX2                !
 ! D27   D(4,9,11,13)         -125.4317         estimate D2E/DX2                !
 ! D28   D(4,9,11,14)          116.1226         estimate D2E/DX2                !
 ! D29   D(10,9,11,12)         173.6636         estimate D2E/DX2                !
 ! D30   D(10,9,11,13)          53.5415         estimate D2E/DX2                !
 ! D31   D(10,9,11,14)         -64.9043         estimate D2E/DX2                !
 ! D32   D(16,15,19,20)        -52.7846         estimate D2E/DX2                !
 ! D33   D(16,15,19,24)        126.4312         estimate D2E/DX2                !
 ! D34   D(17,15,19,20)       -172.3452         estimate D2E/DX2                !
 ! D35   D(17,15,19,24)          6.8706         estimate D2E/DX2                !
 ! D36   D(18,15,19,20)         66.5562         estimate D2E/DX2                !
 ! D37   D(18,15,19,24)       -114.2279         estimate D2E/DX2                !
 ! D38   D(15,19,20,21)        -59.6748         estimate D2E/DX2                !
 ! D39   D(15,19,20,22)         60.1828         estimate D2E/DX2                !
 ! D40   D(15,19,20,23)       -179.7179         estimate D2E/DX2                !
 ! D41   D(24,19,20,21)        121.0694         estimate D2E/DX2                !
 ! D42   D(24,19,20,22)       -119.073          estimate D2E/DX2                !
 ! D43   D(24,19,20,23)          1.0263         estimate D2E/DX2                !
 ! D44   D(15,19,24,25)       -178.6109         estimate D2E/DX2                !
 ! D45   D(15,19,24,26)          1.9594         estimate D2E/DX2                !
 ! D46   D(20,19,24,25)          0.5594         estimate D2E/DX2                !
 ! D47   D(20,19,24,26)       -178.8703         estimate D2E/DX2                !
 ! D48   D(19,24,26,1)        -102.9242         estimate D2E/DX2                !
 ! D49   D(19,24,26,27)         19.6814         estimate D2E/DX2                !
 ! D50   D(19,24,26,28)        134.5106         estimate D2E/DX2                !
 ! D51   D(25,24,26,1)          77.6238         estimate D2E/DX2                !
 ! D52   D(25,24,26,27)       -159.7705         estimate D2E/DX2                !
 ! D53   D(25,24,26,28)        -44.9413         estimate D2E/DX2                !
 --------------------------------------------------------------------------------
 Trust Radius=3.00D-01 FncErr=1.00D-07 GrdErr=1.00D-07 EigMax=2.50D+02 EigMin=1.00D-04
 Number of steps in this run=    138 maximum allowed number of steps=    168.
 GradGradGradGradGradGradGradGradGradGradGradGradGradGradGradGradGradGrad

 Leave Link  103 at Mon Jul 26 19:32:36 2021, MaxMem=   131072000 cpu:               0.0 elap:               0.0
 (Enter /opt/g16/l202.exe)
                          Input orientation:                          
 ---------------------------------------------------------------------
 Center     Atomic      Atomic             Coordinates (Angstroms)
 Number     Number       Type             X           Y           Z
 ---------------------------------------------------------------------
      1          6           0       -1.224000   -0.808700    0.871400
      2          1           0       -1.855500   -1.359500    1.581400
      3          1           0       -0.798000   -1.582000    0.222700
      4          6           0       -2.114500    0.139600    0.089900
      5          6           0       -3.122600    0.896700    0.917700
      6          1           0       -2.618000    1.548000    1.637800
      7          1           0       -3.773700    1.527800    0.303500
      8          1           0       -3.763700    0.199400    1.466900
      9          6           0       -2.072600    0.306800   -1.247200
     10          1           0       -2.776600    1.000600   -1.706100
     11          6           0       -1.142500   -0.338000   -2.225800
     12          1           0       -0.366500   -0.948300   -1.760200
     13          1           0       -0.640100    0.435900   -2.815000
     14          1           0       -1.710800   -0.972700   -2.912700
     15          6           0        2.749700   -1.227600    0.930400
     16          1           0        3.105900   -1.807900    0.072300
     17          1           0        2.034700   -1.858600    1.463100
     18          1           0        3.598400   -1.042300    1.596700
     19          6           0        2.164600    0.076300    0.464000
     20          6           0        3.074900    0.881000   -0.426600
     21          1           0        4.004300    1.120800    0.100300
     22          1           0        3.322400    0.312700   -1.329200
     23          1           0        2.619600    1.825300   -0.743200
     24          6           0        0.933100    0.528200    0.771300
     25          1           0        0.611700    1.482400    0.352600
     26          6           0       -0.096800   -0.122500    1.656800
     27          1           0        0.366200   -0.858400    2.322200
     28          1           0       -0.509700    0.645100    2.322800
 ---------------------------------------------------------------------
                    Distance matrix (angstroms):
                    1          2          3          4          5
     1  C    0.000000
     2  H    1.098305   0.000000
     3  H    1.095573   1.736052   0.000000
     4  C    1.517566   2.130482   2.171339   0.000000
     5  C    2.552492   2.671419   3.468536   1.508217   0.000000
     6  H    2.843350   3.006351   3.887391   2.152463   1.094238
     7  H    3.504670   3.694458   4.304901   2.173860   1.095199
     8  H    2.796598   2.466679   3.676520   2.149317   1.094923
     9  C    2.540261   3.290086   2.711600   1.348165   2.477352
    10  H    3.511074   4.150440   3.782189   2.098884   2.648554
    11  C    3.133823   4.005821   2.767918   2.556434   3.914955
    12  H    2.771302   3.681372   2.125949   2.768014   4.262776
    13  H    3.934401   4.901938   3.650270   3.271100   4.506461
    14  H    3.818806   4.513035   3.321925   3.227351   4.489967
    15  C    3.996154   4.652856   3.634916   5.122120   6.244735
    16  H    4.514975   5.205184   3.913322   5.571862   6.842790
    17  H    3.474410   3.923869   3.104720   4.805657   5.872553
    18  H    4.882230   5.463138   4.637616   6.025327   7.027987
    19  C    3.525877   4.412631   3.403701   4.295888   5.369673
    20  C    4.797961   5.775876   4.635441   5.267477   6.341640
    21  H    5.626072   6.533208   5.512005   6.196981   7.177121
    22  H    5.173967   6.170777   4.793326   5.621716   6.850375
    23  H    4.931344   5.964330   4.921651   5.093853   6.049277
    24  C    2.539764   3.463519   2.783992   3.146932   4.075037
    25  H    2.981290   3.958967   3.375600   3.050293   3.821960
    26  C    1.535677   2.151483   2.162976   2.568070   3.277271
    27  H    2.153143   2.394961   2.507361   3.483251   4.150268
    28  H    2.174930   2.525722   3.074656   2.795846   2.977391
                    6          7          8          9         10
     6  H    0.000000
     7  H    1.765335   0.000000
     8  H    1.777796   1.765856   0.000000
     9  C    3.187674   2.605619   3.199639   0.000000
    10  H    3.392119   2.304483   3.418218   1.089754   0.000000
    11  C    4.545492   4.098998   4.560211   1.496165   2.175367
    12  H    4.779871   4.690303   4.824143   2.179271   3.099955
    13  H    4.997628   4.553761   5.305420   2.127609   2.472484
    14  H    5.280529   4.566399   4.976858   2.131176   2.546709
    15  C    6.084125   7.109148   6.689435   5.509165   6.515827
    16  H    6.817323   7.649134   7.291472   5.747164   6.756788
    17  H    5.769147   6.822748   6.152790   5.376300   6.431754
    18  H    6.734610   7.913636   7.467207   6.485991   7.464754
    19  C    5.139744   6.115228   6.013793   4.575500   5.475319
    20  C    6.092269   6.917710   7.128560   5.244030   5.990950
    21  H    6.811847   7.791292   7.940932   6.277505   7.018414
    22  H    6.754066   7.382196   7.618650   5.395626   6.149233
    23  H    5.760079   6.485243   6.947993   4.957479   5.543129
    24  C    3.794881   4.834460   4.759401   3.627340   4.485816
    25  H    3.476637   4.385910   4.693813   3.338692   3.993865
    26  C    3.024464   4.251412   3.685897   3.538545   4.444297
    27  H    3.894177   5.187280   4.348167   4.477282   5.436936
    28  H    2.393613   3.938328   3.394073   3.911778   4.636513
                   11         12         13         14         15
    11  C    0.000000
    12  H    1.091524   0.000000
    13  H    1.094753   1.761667   0.000000
    14  H    1.094368   1.770874   1.772032   0.000000
    15  C    5.089421   4.126504   5.318458   5.893255   0.000000
    16  H    5.048839   4.019270   5.234850   5.727860   1.095428
    17  H    5.100471   4.121173   5.542691   5.827625   1.092316
    18  H    6.130553   5.195964   6.293890   6.966142   1.094798
    19  C    4.282940   3.521837   4.329838   5.246068   1.503338
    20  C    4.744422   4.119231   4.438896   5.702615   2.528517
    21  H    5.833386   5.181363   5.526166   6.791412   2.788919
    22  H    4.600286   3.922227   4.233697   5.430730   2.793976
    23  H    4.585997   4.200469   4.104684   5.593559   3.483972
    24  C    3.747136   3.205855   3.917273   4.776480   2.531439
    25  H    3.610986   3.365873   3.563124   4.699330   3.499857
    26  C    4.026725   3.525702   4.539161   4.920179   3.138704
    27  H    4.819885   4.148605   5.392465   5.633043   2.784688
    28  H    4.696454   4.385239   5.143710   5.609847   4.008675
                   16         17         18         19         20
    16  H    0.000000
    17  H    1.756236   0.000000
    18  H    1.775527   1.768998   0.000000
    19  C    2.142355   2.181493   2.142442   0.000000
    20  C    2.734967   3.486888   2.840225   1.506438   0.000000
    21  H    3.063526   3.822744   2.661385   2.146568   1.094948
    22  H    2.551082   3.764260   3.236216   2.147546   1.094947
    23  H    3.755219   4.333704   3.828356   2.173329   1.095096
    24  C    3.266041   2.718258   3.201809   1.347308   2.479262
    25  H    4.138318   3.797423   4.103934   2.097862   2.652582
    26  C    3.950760   2.755876   3.808431   2.564415   3.925207
    27  H    3.670089   2.126581   3.317723   2.749693   4.233021
    28  H    4.914725   3.671726   4.500114   3.306138   4.523738
                   21         22         23         24         25
    21  H    0.000000
    22  H    1.778056   0.000000
    23  H    1.767825   1.767847   0.000000
    24  C    3.199013   3.188620   2.611601   0.000000
    25  H    3.421132   3.397726   2.313011   1.090461   0.000000
    26  C    4.559332   4.560321   4.114943   1.506059   2.186004
    27  H    4.699983   4.841830   4.655828   2.156230   3.069029
    28  H    5.053909   5.304016   4.537152   2.121907   2.416671
                   26         27         28
    26  C    0.000000
    27  H    1.094840   0.000000
    28  H    1.096929   1.740033   0.000000
 Stoichiometry    C10H18
 Framework group  C1[X(C10H18)]
 Deg. of freedom    78
 Full point group                 C1      NOp   1
 Largest Abelian subgroup         C1      NOp   1
 Largest concise Abelian subgroup C1      NOp   1
                         Standard orientation:                         
 ---------------------------------------------------------------------
 Center     Atomic      Atomic             Coordinates (Angstroms)
 Number     Number       Type             X           Y           Z
 ---------------------------------------------------------------------
      1          6           0        1.027934   -0.895963    0.833056
      2          1           0        1.543054   -1.715348    1.352222
      3          1           0        0.608829   -0.279930    1.636259
      4          6           0        2.060610   -0.128021    0.028786
      5          6           0        3.038639   -0.983580   -0.736849
      6          1           0        2.517996   -1.584492   -1.488642
      7          1           0        3.793065   -0.385407   -1.258856
      8          1           0        3.567656   -1.658133   -0.055691
      9          6           0        2.162034    1.215824   -0.007837
     10          1           0        2.958663    1.660425   -0.603886
     11          6           0        1.284723    2.222875    0.666466
     12          1           0        0.422426    1.786789    1.174104
     13          1           0        0.903124    2.929597   -0.077450
     14          1           0        1.866620    2.785789    1.402784
     15          6           0       -2.953044   -0.578551    0.975577
     16          1           0       -3.267652    0.255251    1.612568
     17          1           0       -2.343988   -1.238396    1.597518
     18          1           0       -3.845765   -1.132980    0.668590
     19          6           0       -2.226699   -0.058273   -0.233456
     20          6           0       -2.981342    0.992271   -1.005614
     21          1           0       -3.936377    0.589295   -1.358360
     22          1           0       -3.182835    1.859912   -0.368818
     23          1           0       -2.426055    1.344805   -1.881178
     24          6           0       -0.999835   -0.449592   -0.629580
     25          1           0       -0.566715    0.018917   -1.513894
     26          6           0       -0.114165   -1.493453   -0.001760
     27          1           0       -0.694995   -2.171532    0.631896
     28          1           0        0.289819   -2.125775   -0.801896
 ---------------------------------------------------------------------
 Rotational constants (GHZ):           1.8849888           0.6991703           0.6021010
 Leave Link  202 at Mon Jul 26 19:32:36 2021, MaxMem=   131072000 cpu:               0.0 elap:               0.0
 (Enter /opt/g16/l301.exe)
 Standard basis: VSTO-6G (5D, 7F)
 Ernie: Thresh=  0.10000D-02 Tol=  0.10000D-05 Strict=F.
  NNHCO=     0 NNPyr=     0 NCTC=     0               EPep=         0.000000000
    EC=       253.569432053  ECS=         3.521442870   EG=         0.892423580
   EHC=         0.000000000  EAt=       -49.524085099  AtH=         4.217842293
 EPDDG=         0.000000000  ECC=       257.983298503 EAtT=        53.741927392
 There are    58 symmetry adapted cartesian basis functions of A   symmetry.
 There are    58 symmetry adapted basis functions of A   symmetry.
    58 basis functions,   348 primitive gaussians,    58 cartesian basis functions
    29 alpha electrons       29 beta electrons
       nuclear repulsion energy       311.7252258955 Hartrees.
 IExCor=    0 DFT=F Ex=HF Corr=None ExCW=0 ScaHFX=  1.000000
 ScaDFX=  1.000000  1.000000  1.000000  1.000000 ScalE2=  1.000000  1.000000
 IRadAn=      5 IRanWt=     -1 IRanGd=            0 ICorTp=0 IEmpDi=  4
 Integral buffers will be    131072 words long.
 Regular integral format.
 Two-electron integral symmetry is turned off.
 Leave Link  301 at Mon Jul 26 19:32:36 2021, MaxMem=   131072000 cpu:               0.0 elap:               0.0
 (Enter /opt/g16/l302.exe)
 Do NDO integrals.
 NPDir=0 NMtPBC=     1 NCelOv=     1 NCel=       1 NClECP=     1 NCelD=      1
         NCelK=      1 NCelE2=     1 NClLst=     1 CellRange=     0.0.
 One-electron integrals computed using PRISM.
 NBasis=    58 RedAO= F EigKep=  0.00D+00  NBF=    58
 NBsUse=    58 1.00D-04 EigRej=  0.00D+00 NBFU=    58
 Leave Link  302 at Mon Jul 26 19:32:36 2021, MaxMem=   131072000 cpu:               0.1 elap:               0.1
 (Enter /opt/g16/l303.exe)
 DipDrv:  MaxL=1.
 Leave Link  303 at Mon Jul 26 19:32:36 2021, MaxMem=   131072000 cpu:               0.0 elap:               0.0
 (Enter /opt/g16/l401.exe)
 Simple Huckel Guess.
 JPrj=0 DoOrth=F DoCkMO=F.
 Leave Link  401 at Mon Jul 26 19:32:36 2021, MaxMem=   131072000 cpu:               0.0 elap:               0.0
 (Enter /opt/g16/l502.exe)
 Keep J ints in memory in canonical form, NReq=866866.
 FoFCou: FMM=F IPFlag=           0 FMFlag=           0 FMFlg1=           0
         NFxFlg=           0 DoJE=F BraDBF=F KetDBF=F FulRan=T
         wScrn=  0.000000 ICntrl=       600 IOpCl=  2 I1Cent=           0 NGrid=           0
         NMat0=    1 NMatS0=    118 NMatT0=    0 NMatD0=    1 NMtDS0=    0 NMtDT0=    0
 Symmetry not used in FoFCou.
 Two-electron integral symmetry not used.
 Closed shell SCF:
 Using DIIS extrapolation, IDIIS=  1040.
 Overlap will be assumed to be unity.
 NGot=   131072000 LenX=   130997697 LenY=   130993892
 Requested convergence on RMS density matrix=1.00D-08 within 128 cycles.
 Requested convergence on MAX density matrix=1.00D-06.
 Requested convergence on             energy=1.00D-06.
 No special actions if energy rises.

 Cycle   1  Pass 1  IDiag  1:
 E= 0.217345186372825    
 DIIS: error= 2.74D-02 at cycle   1 NSaved=   1.
 NSaved= 1 IEnMin= 1 EnMin= 0.217345186372825     IErMin= 1 ErrMin= 2.74D-02
 ErrMax= 2.74D-02  0.00D+00 EMaxC= 1.00D-01 BMatC= 9.41D-02 BMatP= 9.41D-02
 IDIUse=3 WtCom= 7.26D-01 WtEn= 2.74D-01
 Coeff-Com:  0.100D+01
 Coeff-En:   0.100D+01
 Coeff:      0.100D+01
 GapD=    2.000 DampG=2.000 DampE=0.500 DampFc=1.0000 IDamp=-1.
 RMSDP=7.14D-03 MaxDP=8.49D-02              OVMax= 0.00D+00

 Cycle   2  Pass 1  IDiag  1:
 E=-0.156906506333598E-02 Delta-E=       -0.218914251436 Rises=F Damp=F
 DIIS: error= 7.99D-03 at cycle   2 NSaved=   2.
 NSaved= 2 IEnMin= 2 EnMin=-0.156906506333598E-02 IErMin= 2 ErrMin= 7.99D-03
 ErrMax= 7.99D-03  0.00D+00 EMaxC= 1.00D-01 BMatC= 6.06D-03 BMatP= 9.41D-02
 IDIUse=3 WtCom= 9.20D-01 WtEn= 7.99D-02
 Coeff-Com: -0.318D+00 0.132D+01
 Coeff-En:   0.000D+00 0.100D+01
 Coeff:     -0.293D+00 0.129D+01
 RMSDP=2.60D-03 MaxDP=2.87D-02 DE=-2.19D-01 OVMax= 0.00D+00

 Cycle   3  Pass 1  IDiag  3:
 E=-0.189563148692855E-01 Delta-E=       -0.017387249806 Rises=F Damp=F
 DIIS: error= 9.53D-04 at cycle   3 NSaved=   3.
 NSaved= 3 IEnMin= 3 EnMin=-0.189563148692855E-01 IErMin= 3 ErrMin= 9.53D-04
 ErrMax= 9.53D-04  0.00D+00 EMaxC= 1.00D-01 BMatC= 7.50D-05 BMatP= 6.06D-03
 IDIUse=3 WtCom= 9.90D-01 WtEn= 9.53D-03
 Coeff-Com:  0.110D+00-0.514D+00 0.140D+01
 Coeff-En:   0.000D+00 0.000D+00 0.100D+01
 Coeff:      0.109D+00-0.509D+00 0.140D+01
 Gap=     0.377 Goal=   None    Shift=    0.000
 RMSDP=4.35D-04 MaxDP=4.17D-03 DE=-1.74D-02 OVMax= 5.87D-03

 Cycle   4  Pass 1  IDiag  3:
 E=-0.193023503904897E-01 Delta-E=       -0.000346035521 Rises=F Damp=F
 DIIS: error= 1.52D-04 at cycle   4 NSaved=   4.
 NSaved= 4 IEnMin= 4 EnMin=-0.193023503904897E-01 IErMin= 4 ErrMin= 1.52D-04
 ErrMax= 1.52D-04  0.00D+00 EMaxC= 1.00D-01 BMatC= 3.32D-06 BMatP= 7.50D-05
 IDIUse=3 WtCom= 9.98D-01 WtEn= 1.52D-03
 Coeff-Com: -0.486D-01 0.232D+00-0.744D+00 0.156D+01
 Coeff-En:   0.000D+00 0.000D+00 0.000D+00 0.100D+01
 Coeff:     -0.485D-01 0.232D+00-0.743D+00 0.156D+01
 Gap=     0.377 Goal=   None    Shift=    0.000
 RMSDP=1.11D-04 MaxDP=1.14D-03 DE=-3.46D-04 OVMax= 8.30D-04

 Cycle   5  Pass 1  IDiag  3:
 E=-0.193212724443015E-01 Delta-E=       -0.000018922054 Rises=F Damp=F
 DIIS: error= 4.23D-05 at cycle   5 NSaved=   5.
 NSaved= 5 IEnMin= 5 EnMin=-0.193212724443015E-01 IErMin= 5 ErrMin= 4.23D-05
 ErrMax= 4.23D-05  0.00D+00 EMaxC= 1.00D-01 BMatC= 1.88D-07 BMatP= 3.32D-06
 IDIUse=1 WtCom= 1.00D+00 WtEn= 0.00D+00
 Coeff-Com:  0.134D-01-0.643D-01 0.214D+00-0.597D+00 0.143D+01
 Coeff:      0.134D-01-0.643D-01 0.214D+00-0.597D+00 0.143D+01
 Gap=     0.377 Goal=   None    Shift=    0.000
 RMSDP=2.75D-05 MaxDP=3.01D-04 DE=-1.89D-05 OVMax= 2.25D-04

 Cycle   6  Pass 1  IDiag  3:
 E=-0.193224381278014E-01 Delta-E=       -0.000001165683 Rises=F Damp=F
 DIIS: error= 1.55D-05 at cycle   6 NSaved=   6.
 NSaved= 6 IEnMin= 6 EnMin=-0.193224381278014E-01 IErMin= 6 ErrMin= 1.55D-05
 ErrMax= 1.55D-05  0.00D+00 EMaxC= 1.00D-01 BMatC= 1.61D-08 BMatP= 1.88D-07
 IDIUse=1 WtCom= 1.00D+00 WtEn= 0.00D+00
 Coeff-Com: -0.504D-02 0.240D-01-0.788D-01 0.226D+00-0.758D+00 0.159D+01
 Coeff:     -0.504D-02 0.240D-01-0.788D-01 0.226D+00-0.758D+00 0.159D+01
 Gap=     0.377 Goal=   None    Shift=    0.000
 RMSDP=9.41D-06 MaxDP=1.17D-04 DE=-1.17D-06 OVMax= 9.76D-05

 Cycle   7  Pass 1  IDiag  3:
 E=-0.193225497217213E-01 Delta-E=       -0.000000111594 Rises=F Damp=F
 DIIS: error= 4.26D-06 at cycle   7 NSaved=   7.
 NSaved= 7 IEnMin= 7 EnMin=-0.193225497217213E-01 IErMin= 7 ErrMin= 4.26D-06
 ErrMax= 4.26D-06  0.00D+00 EMaxC= 1.00D-01 BMatC= 1.09D-09 BMatP= 1.61D-08
 IDIUse=1 WtCom= 1.00D+00 WtEn= 0.00D+00
 Coeff-Com:  0.131D-02-0.621D-02 0.201D-01-0.595D-01 0.264D+00-0.803D+00
 Coeff-Com:  0.158D+01
 Coeff:      0.131D-02-0.621D-02 0.201D-01-0.595D-01 0.264D+00-0.803D+00
 Coeff:      0.158D+01
 Gap=     0.377 Goal=   None    Shift=    0.000
 RMSDP=2.52D-06 MaxDP=3.11D-05 DE=-1.12D-07 OVMax= 3.21D-05

 Cycle   8  Pass 1  IDiag  3:
 E=-0.193225570350251E-01 Delta-E=       -0.000000007313 Rises=F Damp=F
 DIIS: error= 1.07D-06 at cycle   8 NSaved=   8.
 NSaved= 8 IEnMin= 8 EnMin=-0.193225570350251E-01 IErMin= 8 ErrMin= 1.07D-06
 ErrMax= 1.07D-06  0.00D+00 EMaxC= 1.00D-01 BMatC= 4.61D-11 BMatP= 1.09D-09
 IDIUse=1 WtCom= 1.00D+00 WtEn= 0.00D+00
 Coeff-Com: -0.114D-03 0.530D-03-0.162D-02 0.531D-02-0.418D-01 0.174D+00
 Coeff-Com: -0.507D+00 0.137D+01
 Coeff:     -0.114D-03 0.530D-03-0.162D-02 0.531D-02-0.418D-01 0.174D+00
 Coeff:     -0.507D+00 0.137D+01
 Gap=     0.377 Goal=   None    Shift=    0.000
 RMSDP=4.60D-07 MaxDP=7.22D-06 DE=-7.31D-09 OVMax= 7.10D-06

 Cycle   9  Pass 1  IDiag  3:
 E=-0.193225573326572E-01 Delta-E=       -0.000000000298 Rises=F Damp=F
 DIIS: error= 2.36D-07 at cycle   9 NSaved=   9.
 NSaved= 9 IEnMin= 9 EnMin=-0.193225573326572E-01 IErMin= 9 ErrMin= 2.36D-07
 ErrMax= 2.36D-07  0.00D+00 EMaxC= 1.00D-01 BMatC= 4.51D-12 BMatP= 4.61D-11
 IDIUse=1 WtCom= 1.00D+00 WtEn= 0.00D+00
 Coeff-Com:  0.369D-04-0.168D-03 0.468D-03-0.151D-02 0.165D-01-0.763D-01
 Coeff-Com:  0.241D+00-0.853D+00 0.167D+01
 Coeff:      0.369D-04-0.168D-03 0.468D-03-0.151D-02 0.165D-01-0.763D-01
 Coeff:      0.241D+00-0.853D+00 0.167D+01
 Gap=     0.377 Goal=   None    Shift=    0.000
 RMSDP=1.64D-07 MaxDP=2.25D-06 DE=-2.98D-10 OVMax= 2.41D-06

 Cycle  10  Pass 1  IDiag  3:
 E=-0.193225573637505E-01 Delta-E=       -0.000000000031 Rises=F Damp=F
 DIIS: error= 5.43D-08 at cycle  10 NSaved=  10.
 NSaved=10 IEnMin=10 EnMin=-0.193225573637505E-01 IErMin=10 ErrMin= 5.43D-08
 ErrMax= 5.43D-08  0.00D+00 EMaxC= 1.00D-01 BMatC= 2.46D-13 BMatP= 4.51D-12
 IDIUse=1 WtCom= 1.00D+00 WtEn= 0.00D+00
 Coeff-Com: -0.343D-05 0.135D-04-0.184D-04 0.122D-03-0.416D-02 0.220D-01
 Coeff-Com: -0.740D-01 0.297D+00-0.782D+00 0.154D+01
 Coeff:     -0.343D-05 0.135D-04-0.184D-04 0.122D-03-0.416D-02 0.220D-01
 Coeff:     -0.740D-01 0.297D+00-0.782D+00 0.154D+01
 Gap=     0.377 Goal=   None    Shift=    0.000
 RMSDP=3.81D-08 MaxDP=4.80D-07 DE=-3.11D-11 OVMax= 4.55D-07

 Cycle  11  Pass 1  IDiag  3:
 E=-0.193225573653990E-01 Delta-E=       -0.000000000002 Rises=F Damp=F
 DIIS: error= 8.59D-09 at cycle  11 NSaved=  11.
 NSaved=11 IEnMin=11 EnMin=-0.193225573653990E-01 IErMin=11 ErrMin= 8.59D-09
 ErrMax= 8.59D-09  0.00D+00 EMaxC= 1.00D-01 BMatC= 8.01D-15 BMatP= 2.46D-13
 IDIUse=1 WtCom= 1.00D+00 WtEn= 0.00D+00
 Coeff-Com:  0.225D-06-0.170D-06-0.762D-05 0.124D-05 0.119D-02-0.669D-02
 Coeff-Com:  0.230D-01-0.958D-01 0.272D+00-0.649D+00 0.146D+01
 Coeff:      0.225D-06-0.170D-06-0.762D-05 0.124D-05 0.119D-02-0.669D-02
 Coeff:      0.230D-01-0.958D-01 0.272D+00-0.649D+00 0.146D+01
 Gap=     0.377 Goal=   None    Shift=    0.000
 RMSDP=5.68D-09 MaxDP=7.39D-08 DE=-1.65D-12 OVMax= 4.93D-08

 Cycle  12  Pass 2  IDiag  1:
 SCF Done:  E(RPM3) = -0.193225573654E-01 A.U. after   12 cycles
            NFock= 11  Conv=0.57D-08     -V/T= 0.9998
 KE=-7.900991886805D+01 PE=-5.058188199482D+02 EE= 2.730841903634D+02
 Leave Link  502 at Mon Jul 26 19:32:36 2021, MaxMem=   131072000 cpu:               0.1 elap:               0.0
 (Enter /opt/g16/l601.exe)
 Copying SCF densities to generalized density rwf, IOpCl= 0 IROHF=0.

 **********************************************************************

            Population analysis using the SCF density.

 **********************************************************************

 Orbital symmetries:
       Occupied  (A) (A) (A) (A) (A) (A) (A) (A) (A) (A) (A) (A)
                 (A) (A) (A) (A) (A) (A) (A) (A) (A) (A) (A) (A)
                 (A) (A) (A) (A) (A)
       Virtual   (A) (A) (A) (A) (A) (A) (A) (A) (A) (A) (A) (A)
                 (A) (A) (A) (A) (A) (A) (A) (A) (A) (A) (A) (A)
                 (A) (A) (A) (A) (A)
 The electronic state is 1-A.
 Alpha  occ. eigenvalues --   -1.45698  -1.34169  -1.17893  -1.10493  -1.01205
 Alpha  occ. eigenvalues --   -0.95186  -0.86796  -0.80237  -0.67416  -0.63356
 Alpha  occ. eigenvalues --   -0.60763  -0.58937  -0.56670  -0.56335  -0.55133
 Alpha  occ. eigenvalues --   -0.54048  -0.51168  -0.50074  -0.48886  -0.48530
 Alpha  occ. eigenvalues --   -0.48290  -0.47490  -0.47045  -0.46822  -0.45469
 Alpha  occ. eigenvalues --   -0.43201  -0.42293  -0.35317  -0.34098
 Alpha virt. eigenvalues --    0.03634   0.04330   0.12159   0.12201   0.13299
 Alpha virt. eigenvalues --    0.13550   0.14112   0.14420   0.14965   0.15276
 Alpha virt. eigenvalues --    0.15469   0.15812   0.15985   0.16188   0.16469
 Alpha virt. eigenvalues --    0.16564   0.16610   0.16787   0.16949   0.17108
 Alpha virt. eigenvalues --    0.17258   0.17341   0.17643   0.17975   0.18093
 Alpha virt. eigenvalues --    0.20964   0.21165   0.22512   0.22605
          Condensed to atoms (all electrons):
               1          2          3          4          5          6
     1  C    4.045862   0.000000   0.000000   0.000000   0.000000   0.000000
     2  H    0.000000   0.952430   0.000000   0.000000   0.000000   0.000000
     3  H    0.000000   0.000000   0.943885   0.000000   0.000000   0.000000
     4  C    0.000000   0.000000   0.000000   4.125171   0.000000   0.000000
     5  C    0.000000   0.000000   0.000000   0.000000   4.067580   0.000000
     6  H    0.000000   0.000000   0.000000   0.000000   0.000000   0.954543
     7  H    0.000000   0.000000   0.000000   0.000000   0.000000   0.000000
     8  H    0.000000   0.000000   0.000000   0.000000   0.000000   0.000000
     9  C    0.000000   0.000000   0.000000   0.000000   0.000000   0.000000
    10  H    0.000000   0.000000   0.000000   0.000000   0.000000   0.000000
    11  C    0.000000   0.000000   0.000000   0.000000   0.000000   0.000000
    12  H    0.000000   0.000000   0.000000   0.000000   0.000000   0.000000
    13  H    0.000000   0.000000   0.000000   0.000000   0.000000   0.000000
    14  H    0.000000   0.000000   0.000000   0.000000   0.000000   0.000000
    15  C    0.000000   0.000000   0.000000   0.000000   0.000000   0.000000
    16  H    0.000000   0.000000   0.000000   0.000000   0.000000   0.000000
    17  H    0.000000   0.000000   0.000000   0.000000   0.000000   0.000000
    18  H    0.000000   0.000000   0.000000   0.000000   0.000000   0.000000
    19  C    0.000000   0.000000   0.000000   0.000000   0.000000   0.000000
    20  C    0.000000   0.000000   0.000000   0.000000   0.000000   0.000000
    21  H    0.000000   0.000000   0.000000   0.000000   0.000000   0.000000
    22  H    0.000000   0.000000   0.000000   0.000000   0.000000   0.000000
    23  H    0.000000   0.000000   0.000000   0.000000   0.000000   0.000000
    24  C    0.000000   0.000000   0.000000   0.000000   0.000000   0.000000
    25  H    0.000000   0.000000   0.000000   0.000000   0.000000   0.000000
    26  C    0.000000   0.000000   0.000000   0.000000   0.000000   0.000000
    27  H    0.000000   0.000000   0.000000   0.000000   0.000000   0.000000
    28  H    0.000000   0.000000   0.000000   0.000000   0.000000   0.000000
               7          8          9         10         11         12
     1  C    0.000000   0.000000   0.000000   0.000000   0.000000   0.000000
     2  H    0.000000   0.000000   0.000000   0.000000   0.000000   0.000000
     3  H    0.000000   0.000000   0.000000   0.000000   0.000000   0.000000
     4  C    0.000000   0.000000   0.000000   0.000000   0.000000   0.000000
     5  C    0.000000   0.000000   0.000000   0.000000   0.000000   0.000000
     6  H    0.000000   0.000000   0.000000   0.000000   0.000000   0.000000
     7  H    0.960141   0.000000   0.000000   0.000000   0.000000   0.000000
     8  H    0.000000   0.957022   0.000000   0.000000   0.000000   0.000000
     9  C    0.000000   0.000000   4.148394   0.000000   0.000000   0.000000
    10  H    0.000000   0.000000   0.000000   0.907598   0.000000   0.000000
    11  C    0.000000   0.000000   0.000000   0.000000   4.069951   0.000000
    12  H    0.000000   0.000000   0.000000   0.000000   0.000000   0.952100
    13  H    0.000000   0.000000   0.000000   0.000000   0.000000   0.000000
    14  H    0.000000   0.000000   0.000000   0.000000   0.000000   0.000000
    15  C    0.000000   0.000000   0.000000   0.000000   0.000000   0.000000
    16  H    0.000000   0.000000   0.000000   0.000000   0.000000   0.000000
    17  H    0.000000   0.000000   0.000000   0.000000   0.000000   0.000000
    18  H    0.000000   0.000000   0.000000   0.000000   0.000000   0.000000
    19  C    0.000000   0.000000   0.000000   0.000000   0.000000   0.000000
    20  C    0.000000   0.000000   0.000000   0.000000   0.000000   0.000000
    21  H    0.000000   0.000000   0.000000   0.000000   0.000000   0.000000
    22  H    0.000000   0.000000   0.000000   0.000000   0.000000   0.000000
    23  H    0.000000   0.000000   0.000000   0.000000   0.000000   0.000000
    24  C    0.000000   0.000000   0.000000   0.000000   0.000000   0.000000
    25  H    0.000000   0.000000   0.000000   0.000000   0.000000   0.000000
    26  C    0.000000   0.000000   0.000000   0.000000   0.000000   0.000000
    27  H    0.000000   0.000000   0.000000   0.000000   0.000000   0.000000
    28  H    0.000000   0.000000   0.000000   0.000000   0.000000   0.000000
              13         14         15         16         17         18
     1  C    0.000000   0.000000   0.000000   0.000000   0.000000   0.000000
     2  H    0.000000   0.000000   0.000000   0.000000   0.000000   0.000000
     3  H    0.000000   0.000000   0.000000   0.000000   0.000000   0.000000
     4  C    0.000000   0.000000   0.000000   0.000000   0.000000   0.000000
     5  C    0.000000   0.000000   0.000000   0.000000   0.000000   0.000000
     6  H    0.000000   0.000000   0.000000   0.000000   0.000000   0.000000
     7  H    0.000000   0.000000   0.000000   0.000000   0.000000   0.000000
     8  H    0.000000   0.000000   0.000000   0.000000   0.000000   0.000000
     9  C    0.000000   0.000000   0.000000   0.000000   0.000000   0.000000
    10  H    0.000000   0.000000   0.000000   0.000000   0.000000   0.000000
    11  C    0.000000   0.000000   0.000000   0.000000   0.000000   0.000000
    12  H    0.000000   0.000000   0.000000   0.000000   0.000000   0.000000
    13  H    0.957847   0.000000   0.000000   0.000000   0.000000   0.000000
    14  H    0.000000   0.957346   0.000000   0.000000   0.000000   0.000000
    15  C    0.000000   0.000000   4.066337   0.000000   0.000000   0.000000
    16  H    0.000000   0.000000   0.000000   0.956960   0.000000   0.000000
    17  H    0.000000   0.000000   0.000000   0.000000   0.955975   0.000000
    18  H    0.000000   0.000000   0.000000   0.000000   0.000000   0.955447
    19  C    0.000000   0.000000   0.000000   0.000000   0.000000   0.000000
    20  C    0.000000   0.000000   0.000000   0.000000   0.000000   0.000000
    21  H    0.000000   0.000000   0.000000   0.000000   0.000000   0.000000
    22  H    0.000000   0.000000   0.000000   0.000000   0.000000   0.000000
    23  H    0.000000   0.000000   0.000000   0.000000   0.000000   0.000000
    24  C    0.000000   0.000000   0.000000   0.000000   0.000000   0.000000
    25  H    0.000000   0.000000   0.000000   0.000000   0.000000   0.000000
    26  C    0.000000   0.000000   0.000000   0.000000   0.000000   0.000000
    27  H    0.000000   0.000000   0.000000   0.000000   0.000000   0.000000
    28  H    0.000000   0.000000   0.000000   0.000000   0.000000   0.000000
              19         20         21         22         23         24
     1  C    0.000000   0.000000   0.000000   0.000000   0.000000   0.000000
     2  H    0.000000   0.000000   0.000000   0.000000   0.000000   0.000000
     3  H    0.000000   0.000000   0.000000   0.000000   0.000000   0.000000
     4  C    0.000000   0.000000   0.000000   0.000000   0.000000   0.000000
     5  C    0.000000   0.000000   0.000000   0.000000   0.000000   0.000000
     6  H    0.000000   0.000000   0.000000   0.000000   0.000000   0.000000
     7  H    0.000000   0.000000   0.000000   0.000000   0.000000   0.000000
     8  H    0.000000   0.000000   0.000000   0.000000   0.000000   0.000000
     9  C    0.000000   0.000000   0.000000   0.000000   0.000000   0.000000
    10  H    0.000000   0.000000   0.000000   0.000000   0.000000   0.000000
    11  C    0.000000   0.000000   0.000000   0.000000   0.000000   0.000000
    12  H    0.000000   0.000000   0.000000   0.000000   0.000000   0.000000
    13  H    0.000000   0.000000   0.000000   0.000000   0.000000   0.000000
    14  H    0.000000   0.000000   0.000000   0.000000   0.000000   0.000000
    15  C    0.000000   0.000000   0.000000   0.000000   0.000000   0.000000
    16  H    0.000000   0.000000   0.000000   0.000000   0.000000   0.000000
    17  H    0.000000   0.000000   0.000000   0.000000   0.000000   0.000000
    18  H    0.000000   0.000000   0.000000   0.000000   0.000000   0.000000
    19  C    4.124267   0.000000   0.000000   0.000000   0.000000   0.000000
    20  C    0.000000   4.067780   0.000000   0.000000   0.000000   0.000000
    21  H    0.000000   0.000000   0.956627   0.000000   0.000000   0.000000
    22  H    0.000000   0.000000   0.000000   0.956549   0.000000   0.000000
    23  H    0.000000   0.000000   0.000000   0.000000   0.958580   0.000000
    24  C    0.000000   0.000000   0.000000   0.000000   0.000000   4.152496
    25  H    0.000000   0.000000   0.000000   0.000000   0.000000   0.000000
    26  C    0.000000   0.000000   0.000000   0.000000   0.000000   0.000000
    27  H    0.000000   0.000000   0.000000   0.000000   0.000000   0.000000
    28  H    0.000000   0.000000   0.000000   0.000000   0.000000   0.000000
              25         26         27         28
     1  C    0.000000   0.000000   0.000000   0.000000
     2  H    0.000000   0.000000   0.000000   0.000000
     3  H    0.000000   0.000000   0.000000   0.000000
     4  C    0.000000   0.000000   0.000000   0.000000
     5  C    0.000000   0.000000   0.000000   0.000000
     6  H    0.000000   0.000000   0.000000   0.000000
     7  H    0.000000   0.000000   0.000000   0.000000
     8  H    0.000000   0.000000   0.000000   0.000000
     9  C    0.000000   0.000000   0.000000   0.000000
    10  H    0.000000   0.000000   0.000000   0.000000
    11  C    0.000000   0.000000   0.000000   0.000000
    12  H    0.000000   0.000000   0.000000   0.000000
    13  H    0.000000   0.000000   0.000000   0.000000
    14  H    0.000000   0.000000   0.000000   0.000000
    15  C    0.000000   0.000000   0.000000   0.000000
    16  H    0.000000   0.000000   0.000000   0.000000
    17  H    0.000000   0.000000   0.000000   0.000000
    18  H    0.000000   0.000000   0.000000   0.000000
    19  C    0.000000   0.000000   0.000000   0.000000
    20  C    0.000000   0.000000   0.000000   0.000000
    21  H    0.000000   0.000000   0.000000   0.000000
    22  H    0.000000   0.000000   0.000000   0.000000
    23  H    0.000000   0.000000   0.000000   0.000000
    24  C    0.000000   0.000000   0.000000   0.000000
    25  H    0.901101   0.000000   0.000000   0.000000
    26  C    0.000000   4.049453   0.000000   0.000000
    27  H    0.000000   0.000000   0.950434   0.000000
    28  H    0.000000   0.000000   0.000000   0.948126
 Mulliken charges:
               1
     1  C   -0.045862
     2  H    0.047570
     3  H    0.056115
     4  C   -0.125171
     5  C   -0.067580
     6  H    0.045457
     7  H    0.039859
     8  H    0.042978
     9  C   -0.148394
    10  H    0.092402
    11  C   -0.069951
    12  H    0.047900
    13  H    0.042153
    14  H    0.042654
    15  C   -0.066337
    16  H    0.043040
    17  H    0.044025
    18  H    0.044553
    19  C   -0.124267
    20  C   -0.067780
    21  H    0.043373
    22  H    0.043451
    23  H    0.041420
    24  C   -0.152496
    25  H    0.098899
    26  C   -0.049453
    27  H    0.049566
    28  H    0.051874
 Sum of Mulliken charges =  -0.00000
 Mulliken charges with hydrogens summed into heavy atoms:
               1
     1  C    0.057823
     4  C   -0.125171
     5  C    0.060715
     9  C   -0.055992
    11  C    0.062755
    15  C    0.065281
    19  C   -0.124267
    20  C    0.060466
    24  C   -0.053597
    26  C    0.051987
 Charge=             -0.0000 electrons
 Dipole moment (field-independent basis, Debye):
    X=             -0.2283    Y=             -0.0353    Z=              0.1371  Tot=              0.2687
 N-N= 3.117252258955D+02 E-N=-5.058188201695D+02  KE=-7.900991886805D+01
 Leave Link  601 at Mon Jul 26 19:32:36 2021, MaxMem=   131072000 cpu:               0.0 elap:               0.0
 (Enter /opt/g16/l701.exe)
 ... and contract with generalized density number  0.
 Compute integral first derivatives.
 Leave Link  701 at Mon Jul 26 19:32:37 2021, MaxMem=   131072000 cpu:               0.1 elap:               0.1
 (Enter /opt/g16/l702.exe)
 L702 exits ... SP integral derivatives will be done elsewhere.
 Leave Link  702 at Mon Jul 26 19:32:37 2021, MaxMem=   131072000 cpu:               0.0 elap:               0.1
 (Enter /opt/g16/l703.exe)
 Integral derivatives from FoFJK, PRISM(SPDF).
 Compute integral first derivatives, UseDBF=F ICtDFT=           0.
 Calling FoFJK, ICntrl=      2127 FMM=F ISym2X=0 I1Cent= 0 IOpClX= 0 NMat=1 NMatS=1 NMatT=0.
 FoFJK:  IHMeth= 9 ICntrl=    2127 DoSepK=F KAlg= 0 I1Cent=           0 FoldK=F
 IRaf=         0 NMat=       1 IRICut=       1 DoRegI=T DoRafI=F ISym2E= 0 IDoP0=3 IntGTp=3.
 FoFCou: FMM=F IPFlag=           0 FMFlag=      100000 FMFlg1=         800
         NFxFlg=           0 DoJE=F BraDBF=F KetDBF=F FulRan=T
         wScrn=  0.000000 ICntrl=      2127 IOpCl=  0 I1Cent=           0 NGrid=           0
         NMat0=    1 NMatS0=      1 NMatT0=    0 NMatD0=    1 NMtDS0=    0 NMtDT0=    0
 Symmetry not used in FoFCou.
 Leave Link  703 at Mon Jul 26 19:32:37 2021, MaxMem=   131072000 cpu:               0.0 elap:               0.1
 (Enter /opt/g16/l716.exe)
 Dipole        =-8.98375131D-02-1.38878856D-02 5.39448226D-02
 ***** Axes restored to original set *****
 -------------------------------------------------------------------
 Center     Atomic                   Forces (Hartrees/Bohr)
 Number     Number              X              Y              Z
 -------------------------------------------------------------------
      1        6          -0.002679933    0.017883596   -0.004743055
      2        1          -0.005069728   -0.002430456    0.005080051
      3        1           0.004026884   -0.003159388   -0.008375595
      4        6           0.005004379   -0.002584985    0.000501220
      5        6           0.009839459   -0.008118556   -0.010539915
      6        1           0.001339558    0.000623062    0.002288689
      7        1          -0.001065250    0.001187425   -0.001214285
      8        1          -0.000716730   -0.000883502    0.001845420
      9        6           0.009933441   -0.007551053    0.008520749
     10        1          -0.004168940    0.003234987   -0.002172699
     11        6          -0.010389426    0.007003822    0.012650084
     12        1           0.002075609   -0.002879970    0.003575067
     13        1           0.001112635    0.001356617   -0.001710194
     14        1          -0.000790264   -0.001537096   -0.001546145
     15        6          -0.006156316    0.013847445   -0.005431966
     16        1           0.001705457   -0.000589080   -0.001597076
     17        1          -0.004180428   -0.000117950    0.002912046
     18        1           0.001718518    0.000084798    0.000929256
     19        6          -0.003261504   -0.003589918    0.001292228
     20        6          -0.009992405   -0.006893212    0.009294340
     21        1           0.001917298   -0.000193234    0.000242449
     22        1           0.001208005   -0.000954116   -0.001195901
     23        1          -0.000767201    0.001597604   -0.000560852
     24        6           0.003528522   -0.011402900    0.004329235
     25        1          -0.001857680    0.004229553   -0.002500712
     26        6           0.005793906    0.003007860   -0.019030472
     27        1           0.005489831   -0.007321861    0.003772402
     28        1          -0.003597696    0.006150506    0.003385633
 -------------------------------------------------------------------
 Cartesian Forces:  Max     0.019030472 RMS     0.005730426
 Leave Link  716 at Mon Jul 26 19:32:37 2021, MaxMem=   131072000 cpu:               0.0 elap:               0.0
 (Enter /opt/g16/l103.exe)

 GradGradGradGradGradGradGradGradGradGradGradGradGradGradGradGradGradGrad
 Berny optimization.
 FormGI is forming the generalized inverse of G from B-inverse, IUseBI=4.
 Internal  Forces:  Max     0.019767598 RMS     0.005139005
 Search for a local minimum.
 Step number   1 out of a maximum of  138
 All quantities printed in internal units (Hartrees-Bohrs-Radians)
 RMS Force = .51390D-02 SwitMx=.10000D-02 MixMth= 1
 Mixed Optimization -- RFO/linear search
 Second derivative matrix not updated -- first step.
 ITU=  0
     Eigenvalues ---    0.00294   0.00534   0.00657   0.00681   0.00686
     Eigenvalues ---    0.00722   0.00817   0.01200   0.01290   0.01566
     Eigenvalues ---    0.01639   0.02774   0.02786   0.03745   0.03947
     Eigenvalues ---    0.05331   0.05349   0.06982   0.07002   0.07079
     Eigenvalues ---    0.07091   0.07245   0.07301   0.07350   0.07509
     Eigenvalues ---    0.09522   0.09666   0.12946   0.13079   0.15999
     Eigenvalues ---    0.16000   0.16000   0.16000   0.16000   0.16000
     Eigenvalues ---    0.16000   0.16000   0.16000   0.16000   0.16000
     Eigenvalues ---    0.16000   0.16000   0.16000   0.21889   0.21905
     Eigenvalues ---    0.22000   0.22000   0.24989   0.24994   0.24997
     Eigenvalues ---    0.24999   0.28905   0.30602   0.31530   0.31711
     Eigenvalues ---    0.31750   0.32030   0.32783   0.33870   0.34024
     Eigenvalues ---    0.34176   0.34193   0.34219   0.34230   0.34247
     Eigenvalues ---    0.34247   0.34250   0.34259   0.34264   0.34269
     Eigenvalues ---    0.34313   0.34327   0.34546   0.34637   0.34759
     Eigenvalues ---    0.34841   0.55414   0.55598
 RFO step:  Lambda=-1.08273875D-02 EMin= 2.94010972D-03
 Linear search not attempted -- first point.
 Iteration  1 RMS(Cart)=  0.09676838 RMS(Int)=  0.00138182
 Iteration  2 RMS(Cart)=  0.00304437 RMS(Int)=  0.00010936
 Iteration  3 RMS(Cart)=  0.00000437 RMS(Int)=  0.00010934
 Iteration  4 RMS(Cart)=  0.00000000 RMS(Int)=  0.00010934
 ITry= 1 IFail=0 DXMaxC= 2.83D-01 DCOld= 1.00D+10 DXMaxT= 3.00D-01 DXLimC= 3.00D+00 Rises=F
 Variable       Old X    -DE/DX   Delta X   Delta X   Delta X     New X
                                 (Linear)    (Quad)   (Total)
    R1        2.07549   0.00742   0.00000   0.02122   0.02122   2.09672
    R2        2.07033   0.00876   0.00000   0.02483   0.02483   2.09516
    R3        2.86778  -0.01977   0.00000  -0.06239  -0.06239   2.80540
    R4        2.90201  -0.00929   0.00000  -0.03098  -0.03098   2.87103
    R5        2.85012  -0.01407   0.00000  -0.04315  -0.04315   2.80696
    R6        2.54766  -0.01927   0.00000  -0.03411  -0.03411   2.51355
    R7        2.06781   0.00249   0.00000   0.00705   0.00705   2.07486
    R8        2.06963   0.00200   0.00000   0.00566   0.00566   2.07529
    R9        2.06911   0.00191   0.00000   0.00540   0.00540   2.07451
   R10        2.05934   0.00567   0.00000   0.01578   0.01578   2.07511
   R11        2.82734  -0.01515   0.00000  -0.04474  -0.04474   2.78261
   R12        2.06268   0.00461   0.00000   0.01291   0.01291   2.07559
   R13        2.06878   0.00239   0.00000   0.00676   0.00676   2.07554
   R14        2.06806   0.00227   0.00000   0.00642   0.00642   2.07447
   R15        2.07006   0.00212   0.00000   0.00600   0.00600   2.07606
   R16        2.06418   0.00422   0.00000   0.01186   0.01186   2.07604
   R17        2.06887   0.00191   0.00000   0.00541   0.00541   2.07428
   R18        2.84090  -0.01515   0.00000  -0.04575  -0.04575   2.79514
   R19        2.84676  -0.01265   0.00000  -0.03859  -0.03859   2.80817
   R20        2.54604  -0.01869   0.00000  -0.03298  -0.03298   2.51307
   R21        2.06915   0.00170   0.00000   0.00482   0.00482   2.07397
   R22        2.06915   0.00175   0.00000   0.00496   0.00496   2.07411
   R23        2.06943   0.00186   0.00000   0.00526   0.00526   2.07470
   R24        2.06067   0.00521   0.00000   0.01453   0.01453   2.07521
   R25        2.84604  -0.01729   0.00000  -0.05266  -0.05266   2.79338
   R26        2.06895   0.00954   0.00000   0.02698   0.02698   2.09593
   R27        2.07289   0.00771   0.00000   0.02197   0.02197   2.09487
    A1        1.82592   0.00082   0.00000   0.02814   0.02803   1.85395
    A2        1.88482   0.00160   0.00000   0.00864   0.00888   1.89369
    A3        1.89179   0.00182   0.00000   0.01510   0.01509   1.90688
    A4        1.94370  -0.00014   0.00000  -0.01810  -0.01846   1.92524
    A5        1.91008   0.00220   0.00000   0.00446   0.00370   1.91378
    A6        1.99859  -0.00567   0.00000  -0.03162  -0.03190   1.96669
    A7        2.00783   0.00238   0.00000   0.00918   0.00916   2.01699
    A8        2.17731  -0.00588   0.00000  -0.02249  -0.02250   2.15480
    A9        2.09772   0.00351   0.00000   0.01355   0.01353   2.11125
   A10        1.93024  -0.00059   0.00000  -0.00491  -0.00492   1.92532
   A11        1.95932   0.00012   0.00000   0.00274   0.00274   1.96206
   A12        1.92514   0.00055   0.00000   0.00261   0.00260   1.92774
   A13        1.87573   0.00050   0.00000   0.00412   0.00412   1.87985
   A14        1.89545  -0.00080   0.00000  -0.00871  -0.00872   1.88673
   A15        1.87568   0.00021   0.00000   0.00399   0.00398   1.87966
   A16        2.06750   0.00508   0.00000   0.02162   0.02157   2.08907
   A17        2.23264  -0.01082   0.00000  -0.04683  -0.04688   2.18577
   A18        1.98291   0.00575   0.00000   0.02548   0.02544   2.00835
   A19        1.98659  -0.00304   0.00000  -0.01926  -0.01925   1.96734
   A20        1.90991   0.00131   0.00000   0.00973   0.00973   1.91964
   A21        1.91523   0.00088   0.00000   0.00449   0.00444   1.91967
   A22        1.87399   0.00104   0.00000   0.00720   0.00725   1.88124
   A23        1.88877   0.00034   0.00000  -0.00180  -0.00184   1.88693
   A24        1.88651  -0.00045   0.00000   0.00035   0.00030   1.88681
   A25        1.86382   0.00212   0.00000   0.01561   0.01566   1.87948
   A26        1.89055  -0.00058   0.00000  -0.00270  -0.00271   1.88784
   A27        1.92090   0.00077   0.00000   0.00665   0.00667   1.92757
   A28        1.88431   0.00081   0.00000   0.00089   0.00082   1.88513
   A29        1.97967  -0.00364   0.00000  -0.02169  -0.02170   1.95797
   A30        1.92168   0.00066   0.00000   0.00206   0.00201   1.92369
   A31        1.99494   0.00310   0.00000   0.01194   0.01191   2.00684
   A32        2.18450  -0.00598   0.00000  -0.02288  -0.02292   2.16158
   A33        2.10367   0.00289   0.00000   0.01113   0.01109   2.11476
   A34        1.92347   0.00030   0.00000   0.00107   0.00107   1.92454
   A35        1.92483   0.00027   0.00000   0.00072   0.00072   1.92555
   A36        1.96092   0.00013   0.00000   0.00229   0.00229   1.96320
   A37        1.89492  -0.00092   0.00000  -0.00847  -0.00847   1.88645
   A38        1.87882   0.00011   0.00000   0.00228   0.00227   1.88109
   A39        1.87885   0.00007   0.00000   0.00174   0.00173   1.88059
   A40        2.06613   0.00601   0.00000   0.02618   0.02614   2.09227
   A41        2.23223  -0.01186   0.00000  -0.05135  -0.05139   2.18084
   A42        1.98479   0.00586   0.00000   0.02530   0.02527   2.01006
   A43        1.97610  -0.00475   0.00000  -0.02600  -0.02613   1.94997
   A44        1.89747   0.00187   0.00000   0.00699   0.00674   1.90421
   A45        1.92507   0.00057   0.00000   0.00148   0.00144   1.92651
   A46        1.93752   0.00024   0.00000  -0.00793  -0.00802   1.92950
   A47        1.88814   0.00187   0.00000   0.00777   0.00773   1.89587
   A48        1.83437   0.00060   0.00000   0.02119   0.02114   1.85551
    D1        0.77085  -0.00033   0.00000   0.00977   0.00978   0.78062
    D2       -2.34283  -0.00062   0.00000  -0.00045  -0.00035  -2.34318
    D3        2.76626   0.00151   0.00000   0.03883   0.03850   2.80475
    D4       -0.34742   0.00121   0.00000   0.02861   0.02837  -0.31905
    D5       -1.33824  -0.00012   0.00000   0.00480   0.00499  -1.33325
    D6        1.83127  -0.00041   0.00000  -0.00542  -0.00514   1.82613
    D7        3.01946   0.00064   0.00000  -0.00062  -0.00053   3.01893
    D8        0.85751   0.00225   0.00000   0.02251   0.02264   0.88016
    D9       -1.14521   0.00016   0.00000  -0.00759  -0.00748  -1.15269
   D10        1.03784  -0.00243   0.00000  -0.04411  -0.04417   0.99366
   D11       -1.12412  -0.00083   0.00000  -0.02098  -0.02100  -1.14511
   D12       -3.12684  -0.00291   0.00000  -0.05107  -0.05112   3.10523
   D13       -1.15849   0.00028   0.00000   0.00066   0.00057  -1.15791
   D14        2.96274   0.00189   0.00000   0.02379   0.02375   2.98649
   D15        0.96003  -0.00020   0.00000  -0.00631  -0.00637   0.95365
   D16        1.09771  -0.00058   0.00000  -0.01403  -0.01409   1.08361
   D17       -3.09066  -0.00027   0.00000  -0.01034  -0.01042  -3.10108
   D18       -0.99940   0.00045   0.00000  -0.00168  -0.00175  -1.00115
   D19       -2.07042  -0.00046   0.00000  -0.00494  -0.00487  -2.07529
   D20        0.02440  -0.00015   0.00000  -0.00125  -0.00119   0.02321
   D21        2.11566   0.00057   0.00000   0.00741   0.00748   2.12314
   D22        3.11774   0.00022   0.00000   0.00431   0.00428   3.12202
   D23       -0.04253   0.00075   0.00000   0.02412   0.02409  -0.01843
   D24        0.00541  -0.00006   0.00000  -0.00629  -0.00627  -0.00085
   D25        3.12833   0.00047   0.00000   0.01351   0.01355  -3.14131
   D26       -0.09267   0.00031   0.00000   0.00316   0.00313  -0.08954
   D27       -2.18920   0.00006   0.00000  -0.00022  -0.00018  -2.18938
   D28        2.02672  -0.00071   0.00000  -0.00915  -0.00915   2.01757
   D29        3.03100   0.00082   0.00000   0.02218   0.02214   3.05314
   D30        0.93448   0.00057   0.00000   0.01879   0.01883   0.95330
   D31       -1.13279  -0.00020   0.00000   0.00986   0.00986  -1.12294
   D32       -0.92127  -0.00015   0.00000  -0.01411  -0.01407  -0.93534
   D33        2.20664   0.00025   0.00000   0.00148   0.00139   2.20803
   D34       -3.00799  -0.00096   0.00000  -0.02429  -0.02418  -3.03218
   D35        0.11992  -0.00057   0.00000  -0.00870  -0.00872   0.11120
   D36        1.16163   0.00003   0.00000  -0.01200  -0.01196   1.14966
   D37       -1.99365   0.00042   0.00000   0.00359   0.00350  -1.99015
   D38       -1.04152   0.00058   0.00000   0.01342   0.01353  -1.02800
   D39        1.05039  -0.00021   0.00000   0.00404   0.00415   1.05454
   D40       -3.13667   0.00015   0.00000   0.00828   0.00838  -3.12829
   D41        2.11306   0.00028   0.00000  -0.00109  -0.00119   2.11187
   D42       -2.07822  -0.00051   0.00000  -0.01046  -0.01057  -2.08878
   D43        0.01791  -0.00015   0.00000  -0.00623  -0.00634   0.01158
   D44       -3.11735  -0.00047   0.00000  -0.01218  -0.01211  -3.12946
   D45        0.03420  -0.00091   0.00000  -0.02908  -0.02904   0.00516
   D46        0.00976  -0.00005   0.00000   0.00430   0.00425   0.01402
   D47       -3.12188  -0.00049   0.00000  -0.01260  -0.01268  -3.13455
   D48       -1.79637  -0.00024   0.00000  -0.01108  -0.01119  -1.80756
   D49        0.34351  -0.00108   0.00000  -0.02689  -0.02680   0.31670
   D50        2.34765   0.00084   0.00000  -0.00129  -0.00130   2.34635
   D51        1.35479  -0.00067   0.00000  -0.02735  -0.02744   1.32735
   D52       -2.78852  -0.00151   0.00000  -0.04316  -0.04305  -2.83158
   D53       -0.78437   0.00041   0.00000  -0.01756  -0.01755  -0.80193
         Item               Value     Threshold  Converged?
 Maximum Force            0.019768     0.000450     NO 
 RMS     Force            0.005139     0.000300     NO 
 Maximum Displacement     0.283336     0.001800     NO 
 RMS     Displacement     0.095878     0.001200     NO 
 Predicted change in Energy=-5.691850D-03
 Lowest energy point so far.  Saving SCF results.
 GradGradGradGradGradGradGradGradGradGradGradGradGradGradGradGradGradGrad

 Leave Link  103 at Mon Jul 26 19:32:37 2021, MaxMem=   131072000 cpu:               0.0 elap:               0.0
 (Enter /opt/g16/l202.exe)
                          Input orientation:                          
 ---------------------------------------------------------------------
 Center     Atomic      Atomic             Coordinates (Angstroms)
 Number     Number       Type             X           Y           Z
 ---------------------------------------------------------------------
      1          6           0       -1.192784   -0.818406    0.820276
      2          1           0       -1.820189   -1.415104    1.514093
      3          1           0       -0.745247   -1.540895    0.108261
      4          6           0       -2.068041    0.140113    0.099818
      5          6           0       -3.059484    0.859235    0.940212
      6          1           0       -2.547327    1.473562    1.692427
      7          1           0       -3.705453    1.523120    0.350287
      8          1           0       -3.706419    0.145059    1.466093
      9          6           0       -2.005561    0.346497   -1.212698
     10          1           0       -2.696181    1.057685   -1.685017
     11          6           0       -1.063571   -0.312973   -2.132474
     12          1           0       -0.334488   -0.947102   -1.610265
     13          1           0       -0.504670    0.441637   -2.702143
     14          1           0       -1.613073   -0.940989   -2.845728
     15          6           0        2.641400   -1.178203    0.950953
     16          1           0        2.994077   -1.814101    0.127432
     17          1           0        1.895743   -1.750973    1.519136
     18          1           0        3.491589   -0.975386    1.614959
     19          6           0        2.089742    0.089427    0.425022
     20          6           0        2.999734    0.844326   -0.475140
     21          1           0        3.932328    1.092029    0.047747
     22          1           0        3.252942    0.239790   -1.355532
     23          1           0        2.555077    1.783155   -0.830423
     24          6           0        0.876117    0.547284    0.718288
     25          1           0        0.527734    1.492626    0.281374
     26          6           0       -0.091855   -0.128549    1.607854
     27          1           0        0.421833   -0.876762    2.245384
     28          1           0       -0.524073    0.623999    2.297604
 ---------------------------------------------------------------------
                    Distance matrix (angstroms):
                    1          2          3          4          5
     1  C    0.000000
     2  H    1.109535   0.000000
     3  H    1.108713   1.774172   0.000000
     4  C    1.484551   2.116673   2.139075   0.000000
     5  C    2.512655   2.652887   3.436344   1.485382   0.000000
     6  H    2.801526   2.984112   3.852794   2.131714   1.097966
     7  H    3.466575   3.679922   4.267269   2.157907   1.098194
     8  H    2.768339   2.448320   3.668062   2.133310   1.097781
     9  C    2.480038   3.251614   2.625942   1.330112   2.451260
    10  H    3.472235   4.137192   3.711416   2.102888   2.657668
    11  C    2.998482   3.883892   2.574882   2.489453   3.846965
    12  H    2.580846   3.491125   1.864040   2.666763   4.146492
    13  H    3.803768   4.791110   3.447707   3.222737   4.468581
    14  H    3.692054   4.390413   3.136728   3.170493   4.434666
    15  C    3.853246   4.503225   3.508712   4.963993   6.054036
    16  H    4.359042   5.025852   3.749340   5.426301   6.667303
    17  H    3.301073   3.731084   3.001588   4.615436   5.630507
    18  H    4.753894   5.330902   4.532187   5.869367   6.836496
    19  C    3.428610   4.328655   3.285643   4.170790   5.231879
    20  C    4.692547   5.682758   4.478228   5.148673   6.222345
    21  H    5.523888   6.444172   5.368022   6.075630   7.052385
    22  H    5.061462   6.058885   4.615089   5.517321   6.745434
    23  H    4.851741   5.904962   4.777298   4.993811   5.959201
    24  C    2.481101   3.428461   2.713198   3.035846   3.954178
    25  H    2.931120   3.935382   3.294343   2.932626   3.701808
    26  C    1.519285   2.156654   2.161116   2.500332   3.198169
    27  H    2.154374   2.418939   2.523974   3.440488   4.103259
    28  H    2.170301   2.540029   3.086893   2.729147   2.885509
                    6          7          8          9         10
     6  H    0.000000
     7  H    1.773430   0.000000
     8  H    1.777538   1.773155   0.000000
     9  C    3.162837   2.591717   3.179530   0.000000
    10  H    3.406206   2.318991   3.432632   1.098103   0.000000
    11  C    4.474719   4.063851   4.488220   1.472493   2.178150
    12  H    4.654465   4.616185   4.693262   2.150336   3.098766
    13  H    4.954752   4.553235   5.264347   2.116642   2.493347
    14  H    5.224724   4.545812   4.914611   2.116236   2.552464
    15  C    5.874056   6.923908   6.504706   5.347929   6.359033
    16  H    6.630617   7.488018   7.108231   5.608967   6.626549
    17  H    5.492588   6.592366   5.914555   5.204082   6.264257
    18  H    6.517043   7.722651   7.286210   6.321525   7.301487
    19  C    5.002455   5.970373   5.889177   4.418113   5.319290
    20  C    5.988670   6.789818   7.016398   5.083779   5.826900
    21  H    6.696004   7.655918   7.826807   6.115805   6.851334
    22  H    6.667485   7.278462   7.510209   5.261525   6.014114
    23  H    5.700451   6.376200   6.867581   4.796826   5.369575
    24  C    3.677895   4.698773   4.660540   3.474636   4.335631
    25  H    3.383405   4.233857   4.598645   3.156493   3.801248
    26  C    2.933130   4.167443   3.627675   3.441432   4.362644
    27  H    3.826969   5.136665   4.323641   4.398515   5.377002
    28  H    2.276302   3.836879   3.323871   3.820214   4.557127
                   11         12         13         14         15
    11  C    0.000000
    12  H    1.098355   0.000000
    13  H    1.098330   1.774755   0.000000
    14  H    1.097765   1.777973   1.777872   0.000000
    15  C    4.897240   3.933084   5.085936   5.707153   0.000000
    16  H    4.881093   3.853650   5.033495   5.552282   1.098605
    17  H    4.915246   3.925976   5.328106   5.658613   1.098591
    18  H    5.935615   5.004171   6.051067   6.779121   1.097661
    19  C    4.079963   3.330717   4.078503   5.046821   1.479127
    20  C    4.538342   3.951551   4.171636   5.484982   2.500554
    21  H    5.629068   5.011265   5.260405   6.576993   2.763373
    22  H    4.420573   3.787248   3.996717   5.224272   2.775709
    23  H    4.379920   4.051177   3.829498   5.371768   3.456934
    24  C    3.553769   3.020084   3.690133   4.594914   2.479448
    25  H    3.408680   3.205307   3.327433   4.503810   3.471203
    26  C    3.868889   3.329443   4.367105   4.775831   3.000663
    27  H    4.657245   3.929758   5.203327   5.483101   2.587063
    28  H    4.560107   4.216129   5.003110   5.485342   3.883507
                   16         17         18         19         20
    16  H    0.000000
    17  H    1.774025   0.000000
    18  H    1.778679   1.776919   0.000000
    19  C    2.128332   2.149835   2.124841   0.000000
    20  C    2.725869   3.454202   2.814568   1.486019   0.000000
    21  H    3.054874   3.794117   2.631466   2.131354   1.097497
    22  H    2.546499   3.750846   3.218295   2.132139   1.097574
    23  H    3.748393   4.294788   3.803485   2.159026   1.097882
    24  C    3.226608   2.638745   3.156459   1.329858   2.454028
    25  H    4.128073   3.731546   4.080927   2.104632   2.665219
    26  C    3.815195   2.567231   3.682153   2.491179   3.852697
    27  H    3.461324   1.861206   3.135372   2.651256   4.124193
    28  H    4.799100   3.478795   4.376023   3.259504   4.489307
                   21         22         23         24         25
    21  H    0.000000
    22  H    1.776815   0.000000
    23  H    1.773601   1.773339   0.000000
    24  C    3.175972   3.169318   2.597073   0.000000
    25  H    3.436033   3.416990   2.330369   1.098151   0.000000
    26  C    4.485287   4.483860   4.075053   1.478191   2.184410
    27  H    4.585774   4.714707   4.592001   2.136891   3.079375
    28  H    5.014023   5.268668   4.539753   2.112028   2.434336
                   26         27         28
    26  C    0.000000
    27  H    1.109118   0.000000
[...]
    26  C    4.087926   3.621959   4.527614   5.030578   3.000221
    27  H    4.925434   4.284001   5.421374   5.801888   2.557013
    28  H    4.667845   4.416497   5.082743   5.601654   3.534175
                   16         17         18         19         20
    16  H    0.000000
    17  H    1.777918   0.000000
    18  H    1.773302   1.777187   0.000000
    19  C    2.141191   2.154642   2.136075   0.000000
    20  C    2.720426   3.461022   2.865399   1.487723   0.000000
    21  H    3.013946   3.816142   2.689465   2.137848   1.098492
    22  H    2.560873   3.753537   3.297617   2.138480   1.098646
    23  H    3.756048   4.302761   3.840933   2.163201   1.098019
    24  C    3.263825   2.644449   3.147905   1.339792   2.464045
    25  H    4.168314   3.737288   4.084148   2.118254   2.683498
    26  C    3.856104   2.562186   3.635061   2.500539   3.865593
    27  H    3.335609   1.776233   3.225687   2.646726   4.126411
    28  H    4.534329   3.109438   3.876341   3.091296   4.386636
                   21         22         23         24         25
    21  H    0.000000
    22  H    1.772098   0.000000
    23  H    1.772413   1.772273   0.000000
    24  C    3.197110   3.178399   2.608359   0.000000
    25  H    3.467156   3.429395   2.352549   1.098758   0.000000
    26  C    4.505847   4.498497   4.093923   1.485830   2.193323
    27  H    4.701074   4.607507   4.608278   2.144711   3.093630
    28  H    4.827779   5.186083   4.562165   2.125637   2.655110
                   26         27         28
    26  C    0.000000
    27  H    1.112903   0.000000
    28  H    1.115076   1.780672   0.000000
 Stoichiometry    C10H18
 Framework group  C1[X(C10H18)]
 Deg. of freedom    78
 Full point group                 C1      NOp   1
 RotChk:  IX=0 Diff= 4.94D-16
 Largest Abelian subgroup         C1      NOp   1
 Largest concise Abelian subgroup C1      NOp   1
                         Standard orientation:                         
 ---------------------------------------------------------------------
 Center     Atomic      Atomic             Coordinates (Angstroms)
 Number     Number       Type             X           Y           Z
 ---------------------------------------------------------------------
      1          6           0        1.004858   -0.669403    0.941394
      2          1           0        1.385339   -1.465828    1.611306
      3          1           0        0.824538    0.217359    1.588999
      4          6           0        2.060822   -0.366712   -0.074568
      5          6           0        2.469338   -1.516007   -0.927546
      6          1           0        1.575261   -2.068141   -1.265905
      7          1           0        3.033558   -1.207732   -1.816609
      8          1           0        3.096386   -2.214924   -0.358015
      9          6           0        2.622728    0.840413   -0.222437
     10          1           0        3.398773    0.988464   -0.984717
     11          6           0        2.281224    2.036474    0.577010
     12          1           0        1.524737    1.823905    1.350599
     13          1           0        1.882238    2.829387   -0.069505
     14          1           0        3.172472    2.433126    1.080678
     15          6           0       -3.270165   -0.793829    0.554418
     16          1           0       -3.936110   -0.275149    1.256542
     17          1           0       -2.686736   -1.533475    1.127414
     18          1           0       -3.899302   -1.344000   -0.157956
     19          6           0       -2.392298    0.169855   -0.158844
     20          6           0       -3.088789    1.336586   -0.764616
     21          1           0       -3.859464    1.002077   -1.472321
     22          1           0       -3.588219    1.934615    0.009951
     23          1           0       -2.405534    2.002383   -1.308236
     24          6           0       -1.065155    0.021633   -0.267300
     25          1           0       -0.465662    0.771764   -0.801324
     26          6           0       -0.299290   -1.121347    0.293717
     27          1           0       -0.919231   -1.679940    1.030059
     28          1           0       -0.072691   -1.839875   -0.528332
 ---------------------------------------------------------------------
 Rotational constants (GHZ):           2.0211121           0.6366490           0.5488592
 Leave Link  202 at Mon Jul 26 19:32:52 2021, MaxMem=   131072000 cpu:               0.0 elap:               0.0
 (Enter /opt/g16/l601.exe)
 Copying SCF densities to generalized density rwf, IOpCl= 0 IROHF=0.

 **********************************************************************

            Population analysis using the SCF density.

 **********************************************************************

 Orbital symmetries:
       Occupied  (A) (A) (A) (A) (A) (A) (A) (A) (A) (A) (A) (A)
                 (A) (A) (A) (A) (A) (A) (A) (A) (A) (A) (A) (A)
                 (A) (A) (A) (A) (A)
       Virtual   (A) (A) (A) (A) (A) (A) (A) (A) (A) (A) (A) (A)
                 (A) (A) (A) (A) (A) (A) (A) (A) (A) (A) (A) (A)
                 (A) (A) (A) (A) (A)
 The electronic state is 1-A.
 Alpha  occ. eigenvalues --   -1.47903  -1.35722  -1.17831  -1.10227  -1.01280
 Alpha  occ. eigenvalues --   -0.94897  -0.86876  -0.79492  -0.67049  -0.64123
 Alpha  occ. eigenvalues --   -0.61246  -0.59909  -0.57803  -0.56517  -0.55214
 Alpha  occ. eigenvalues --   -0.53680  -0.51063  -0.50316  -0.48455  -0.48256
 Alpha  occ. eigenvalues --   -0.47918  -0.47611  -0.47258  -0.46945  -0.45744
 Alpha  occ. eigenvalues --   -0.42773  -0.42397  -0.35103  -0.34030
 Alpha virt. eigenvalues --    0.03678   0.04295   0.12391   0.12449   0.13237
 Alpha virt. eigenvalues --    0.13579   0.13946   0.14237   0.14753   0.14953
 Alpha virt. eigenvalues --    0.15499   0.15819   0.15908   0.16093   0.16348
 Alpha virt. eigenvalues --    0.16442   0.16450   0.16640   0.16960   0.17077
 Alpha virt. eigenvalues --    0.17187   0.17251   0.17803   0.17921   0.18001
 Alpha virt. eigenvalues --    0.21126   0.21398   0.22490   0.22584
          Condensed to atoms (all electrons):
               1          2          3          4          5          6
     1  C    4.060988   0.000000   0.000000   0.000000   0.000000   0.000000
     2  H    0.000000   0.946340   0.000000   0.000000   0.000000   0.000000
     3  H    0.000000   0.000000   0.934235   0.000000   0.000000   0.000000
     4  C    0.000000   0.000000   0.000000   4.126687   0.000000   0.000000
     5  C    0.000000   0.000000   0.000000   0.000000   4.076920   0.000000
     6  H    0.000000   0.000000   0.000000   0.000000   0.000000   0.949564
     7  H    0.000000   0.000000   0.000000   0.000000   0.000000   0.000000
     8  H    0.000000   0.000000   0.000000   0.000000   0.000000   0.000000
     9  C    0.000000   0.000000   0.000000   0.000000   0.000000   0.000000
    10  H    0.000000   0.000000   0.000000   0.000000   0.000000   0.000000
    11  C    0.000000   0.000000   0.000000   0.000000   0.000000   0.000000
    12  H    0.000000   0.000000   0.000000   0.000000   0.000000   0.000000
    13  H    0.000000   0.000000   0.000000   0.000000   0.000000   0.000000
    14  H    0.000000   0.000000   0.000000   0.000000   0.000000   0.000000
    15  C    0.000000   0.000000   0.000000   0.000000   0.000000   0.000000
    16  H    0.000000   0.000000   0.000000   0.000000   0.000000   0.000000
    17  H    0.000000   0.000000   0.000000   0.000000   0.000000   0.000000
    18  H    0.000000   0.000000   0.000000   0.000000   0.000000   0.000000
    19  C    0.000000   0.000000   0.000000   0.000000   0.000000   0.000000
    20  C    0.000000   0.000000   0.000000   0.000000   0.000000   0.000000
    21  H    0.000000   0.000000   0.000000   0.000000   0.000000   0.000000
    22  H    0.000000   0.000000   0.000000   0.000000   0.000000   0.000000
    23  H    0.000000   0.000000   0.000000   0.000000   0.000000   0.000000
    24  C    0.000000   0.000000   0.000000   0.000000   0.000000   0.000000
    25  H    0.000000   0.000000   0.000000   0.000000   0.000000   0.000000
    26  C    0.000000   0.000000   0.000000   0.000000   0.000000   0.000000
    27  H    0.000000   0.000000   0.000000   0.000000   0.000000   0.000000
    28  H    0.000000   0.000000   0.000000   0.000000   0.000000   0.000000
               7          8          9         10         11         12
     1  C    0.000000   0.000000   0.000000   0.000000   0.000000   0.000000
     2  H    0.000000   0.000000   0.000000   0.000000   0.000000   0.000000
     3  H    0.000000   0.000000   0.000000   0.000000   0.000000   0.000000
     4  C    0.000000   0.000000   0.000000   0.000000   0.000000   0.000000
     5  C    0.000000   0.000000   0.000000   0.000000   0.000000   0.000000
     6  H    0.000000   0.000000   0.000000   0.000000   0.000000   0.000000
     7  H    0.956398   0.000000   0.000000   0.000000   0.000000   0.000000
     8  H    0.000000   0.954900   0.000000   0.000000   0.000000   0.000000
     9  C    0.000000   0.000000   4.151759   0.000000   0.000000   0.000000
    10  H    0.000000   0.000000   0.000000   0.902136   0.000000   0.000000
    11  C    0.000000   0.000000   0.000000   0.000000   4.079834   0.000000
    12  H    0.000000   0.000000   0.000000   0.000000   0.000000   0.950279
    13  H    0.000000   0.000000   0.000000   0.000000   0.000000   0.000000
    14  H    0.000000   0.000000   0.000000   0.000000   0.000000   0.000000
    15  C    0.000000   0.000000   0.000000   0.000000   0.000000   0.000000
    16  H    0.000000   0.000000   0.000000   0.000000   0.000000   0.000000
    17  H    0.000000   0.000000   0.000000   0.000000   0.000000   0.000000
    18  H    0.000000   0.000000   0.000000   0.000000   0.000000   0.000000
    19  C    0.000000   0.000000   0.000000   0.000000   0.000000   0.000000
    20  C    0.000000   0.000000   0.000000   0.000000   0.000000   0.000000
    21  H    0.000000   0.000000   0.000000   0.000000   0.000000   0.000000
    22  H    0.000000   0.000000   0.000000   0.000000   0.000000   0.000000
    23  H    0.000000   0.000000   0.000000   0.000000   0.000000   0.000000
    24  C    0.000000   0.000000   0.000000   0.000000   0.000000   0.000000
    25  H    0.000000   0.000000   0.000000   0.000000   0.000000   0.000000
    26  C    0.000000   0.000000   0.000000   0.000000   0.000000   0.000000
    27  H    0.000000   0.000000   0.000000   0.000000   0.000000   0.000000
    28  H    0.000000   0.000000   0.000000   0.000000   0.000000   0.000000
              13         14         15         16         17         18
     1  C    0.000000   0.000000   0.000000   0.000000   0.000000   0.000000
     2  H    0.000000   0.000000   0.000000   0.000000   0.000000   0.000000
     3  H    0.000000   0.000000   0.000000   0.000000   0.000000   0.000000
     4  C    0.000000   0.000000   0.000000   0.000000   0.000000   0.000000
     5  C    0.000000   0.000000   0.000000   0.000000   0.000000   0.000000
     6  H    0.000000   0.000000   0.000000   0.000000   0.000000   0.000000
     7  H    0.000000   0.000000   0.000000   0.000000   0.000000   0.000000
     8  H    0.000000   0.000000   0.000000   0.000000   0.000000   0.000000
     9  C    0.000000   0.000000   0.000000   0.000000   0.000000   0.000000
    10  H    0.000000   0.000000   0.000000   0.000000   0.000000   0.000000
    11  C    0.000000   0.000000   0.000000   0.000000   0.000000   0.000000
    12  H    0.000000   0.000000   0.000000   0.000000   0.000000   0.000000
    13  H    0.955367   0.000000   0.000000   0.000000   0.000000   0.000000
    14  H    0.000000   0.955977   0.000000   0.000000   0.000000   0.000000
    15  C    0.000000   0.000000   4.074991   0.000000   0.000000   0.000000
    16  H    0.000000   0.000000   0.000000   0.955292   0.000000   0.000000
    17  H    0.000000   0.000000   0.000000   0.000000   0.951592   0.000000
    18  H    0.000000   0.000000   0.000000   0.000000   0.000000   0.954077
    19  C    0.000000   0.000000   0.000000   0.000000   0.000000   0.000000
    20  C    0.000000   0.000000   0.000000   0.000000   0.000000   0.000000
    21  H    0.000000   0.000000   0.000000   0.000000   0.000000   0.000000
    22  H    0.000000   0.000000   0.000000   0.000000   0.000000   0.000000
    23  H    0.000000   0.000000   0.000000   0.000000   0.000000   0.000000
    24  C    0.000000   0.000000   0.000000   0.000000   0.000000   0.000000
    25  H    0.000000   0.000000   0.000000   0.000000   0.000000   0.000000
    26  C    0.000000   0.000000   0.000000   0.000000   0.000000   0.000000
    27  H    0.000000   0.000000   0.000000   0.000000   0.000000   0.000000
    28  H    0.000000   0.000000   0.000000   0.000000   0.000000   0.000000
              19         20         21         22         23         24
     1  C    0.000000   0.000000   0.000000   0.000000   0.000000   0.000000
     2  H    0.000000   0.000000   0.000000   0.000000   0.000000   0.000000
     3  H    0.000000   0.000000   0.000000   0.000000   0.000000   0.000000
     4  C    0.000000   0.000000   0.000000   0.000000   0.000000   0.000000
     5  C    0.000000   0.000000   0.000000   0.000000   0.000000   0.000000
     6  H    0.000000   0.000000   0.000000   0.000000   0.000000   0.000000
     7  H    0.000000   0.000000   0.000000   0.000000   0.000000   0.000000
     8  H    0.000000   0.000000   0.000000   0.000000   0.000000   0.000000
     9  C    0.000000   0.000000   0.000000   0.000000   0.000000   0.000000
    10  H    0.000000   0.000000   0.000000   0.000000   0.000000   0.000000
    11  C    0.000000   0.000000   0.000000   0.000000   0.000000   0.000000
    12  H    0.000000   0.000000   0.000000   0.000000   0.000000   0.000000
    13  H    0.000000   0.000000   0.000000   0.000000   0.000000   0.000000
    14  H    0.000000   0.000000   0.000000   0.000000   0.000000   0.000000
    15  C    0.000000   0.000000   0.000000   0.000000   0.000000   0.000000
    16  H    0.000000   0.000000   0.000000   0.000000   0.000000   0.000000
    17  H    0.000000   0.000000   0.000000   0.000000   0.000000   0.000000
    18  H    0.000000   0.000000   0.000000   0.000000   0.000000   0.000000
    19  C    4.128288   0.000000   0.000000   0.000000   0.000000   0.000000
    20  C    0.000000   4.067337   0.000000   0.000000   0.000000   0.000000
    21  H    0.000000   0.000000   0.957148   0.000000   0.000000   0.000000
    22  H    0.000000   0.000000   0.000000   0.956791   0.000000   0.000000
    23  H    0.000000   0.000000   0.000000   0.000000   0.958192   0.000000
    24  C    0.000000   0.000000   0.000000   0.000000   0.000000   4.155982
    25  H    0.000000   0.000000   0.000000   0.000000   0.000000   0.000000
    26  C    0.000000   0.000000   0.000000   0.000000   0.000000   0.000000
    27  H    0.000000   0.000000   0.000000   0.000000   0.000000   0.000000
    28  H    0.000000   0.000000   0.000000   0.000000   0.000000   0.000000
              25         26         27         28
     1  C    0.000000   0.000000   0.000000   0.000000
     2  H    0.000000   0.000000   0.000000   0.000000
     3  H    0.000000   0.000000   0.000000   0.000000
     4  C    0.000000   0.000000   0.000000   0.000000
     5  C    0.000000   0.000000   0.000000   0.000000
     6  H    0.000000   0.000000   0.000000   0.000000
     7  H    0.000000   0.000000   0.000000   0.000000
     8  H    0.000000   0.000000   0.000000   0.000000
     9  C    0.000000   0.000000   0.000000   0.000000
    10  H    0.000000   0.000000   0.000000   0.000000
    11  C    0.000000   0.000000   0.000000   0.000000
    12  H    0.000000   0.000000   0.000000   0.000000
    13  H    0.000000   0.000000   0.000000   0.000000
    14  H    0.000000   0.000000   0.000000   0.000000
    15  C    0.000000   0.000000   0.000000   0.000000
    16  H    0.000000   0.000000   0.000000   0.000000
    17  H    0.000000   0.000000   0.000000   0.000000
    18  H    0.000000   0.000000   0.000000   0.000000
    19  C    0.000000   0.000000   0.000000   0.000000
    20  C    0.000000   0.000000   0.000000   0.000000
    21  H    0.000000   0.000000   0.000000   0.000000
    22  H    0.000000   0.000000   0.000000   0.000000
    23  H    0.000000   0.000000   0.000000   0.000000
    24  C    0.000000   0.000000   0.000000   0.000000
    25  H    0.891598   0.000000   0.000000   0.000000
    26  C    0.000000   4.072175   0.000000   0.000000
    27  H    0.000000   0.000000   0.940034   0.000000
    28  H    0.000000   0.000000   0.000000   0.935119
 Mulliken charges:
               1
     1  C   -0.060988
     2  H    0.053660
     3  H    0.065765
     4  C   -0.126687
     5  C   -0.076920
     6  H    0.050436
     7  H    0.043602
     8  H    0.045100
     9  C   -0.151759
    10  H    0.097864
    11  C   -0.079834
    12  H    0.049721
    13  H    0.044633
    14  H    0.044023
    15  C   -0.074991
    16  H    0.044708
    17  H    0.048408
    18  H    0.045923
    19  C   -0.128288
    20  C   -0.067337
    21  H    0.042852
    22  H    0.043209
    23  H    0.041808
    24  C   -0.155982
    25  H    0.108402
    26  C   -0.072175
    27  H    0.059966
    28  H    0.064881
 Sum of Mulliken charges =  -0.00000
 Mulliken charges with hydrogens summed into heavy atoms:
               1
     1  C    0.058437
     4  C   -0.126687
     5  C    0.062219
     9  C   -0.053895
    11  C    0.058543
    15  C    0.064048
    19  C   -0.128288
    20  C    0.060531
    24  C   -0.047581
    26  C    0.052672
 Charge=             -0.0000 electrons
 Dipole moment (field-independent basis, Debye):
    X=             -0.2247    Y=             -0.1560    Z=              0.1064  Tot=              0.2935
 N-N= 3.104066057888D+02 E-N=-5.029919388911D+02  KE=-7.912378411537D+01
 Leave Link  601 at Mon Jul 26 19:32:52 2021, MaxMem=   131072000 cpu:               0.0 elap:               0.0
 (Enter /opt/g16/l9999.exe)
 1\1\GINC-TOTEM\FOpt\RPM3\ZDO\C10H18\JRAMOS\26-Jul-2021\0\\#p opt pm3\\
 Conformer number 393. Energy MM = 23.486 kcal/mol\\0,1\C,-1.2194068017
 ,-0.9424539823,0.4369322896\H,-1.7981300083,-1.6732906657,1.0359283496
 \H,-0.8476207761,-1.4989132591,-0.4521026434\C,-2.1442164366,0.1556087
 562,0.0152163012\C,-2.7953061056,0.8997532796,1.127722108\H,-2.0521953
 289,1.1277419463,1.9116352253\H,-3.2450362647,1.8460204347,0.801945331
 \H,-3.5870904176,0.2923798695,1.5862144223\C,-2.3943896526,0.463394227
 2,-1.2644065713\H,-3.0915793892,1.2778353846,-1.5007313988\C,-1.795631
 6816,-0.2189422763,-2.4315435291\H,-1.1332709876,-1.0505481669,-2.1389
 570503\H,-1.2004157843,0.4872942863,-3.0255383257\H,-2.5778225702,-0.6
 280249089,-3.0843564317\C,2.9080971496,-0.8016018567,1.6137607518\H,3.
 6608211256,-1.4781661976,1.1881359638\H,2.1487177031,-1.4191719711,2.1
 214401523\H,3.4044577854,-0.1878897447,2.3772808807\C,2.3075178954,0.0
 580317881,0.5609484398\C,3.2804260662,0.7483371549,-0.3280112748\H,3.9
 659785502,1.3731742297,0.2604452219\H,3.8888418942,0.0174097069,-0.878
 0999322\H,2.7923704798,1.396835513,-1.0675356427\C,0.9871073547,0.2209
 707661,0.4028055543\H,0.6003965537,0.8645793599,-0.3993741637\C,-0.046
 202815,-0.4186055983,1.2577349139\H,0.4012285698,-1.2433914428,1.85613
 79248\H,-0.4177461077,0.3317333673,1.9941731333\\Version=ES64L-G16RevA
 .03\State=1-A\HF=-0.0276486\RMSD=3.780e-09\RMSF=2.699e-06\Dipole=0.069
 8878,-0.0529626,0.0751498\PG=C01 [X(C10H18)]\\@


 IT IS DOUBTED WHETHER A MAN EVER BRINGS HIS FACULTIES TO BEAR WITH THEIR FULL FORCE
 ON A SUBJECT UNTIL HE WRITES UPON IT.

                          -- CICERO
 Job cpu time:       0 days  0 hours  0 minutes 14.6 seconds.
 Elapsed time:       0 days  0 hours  0 minutes 13.9 seconds.
 File lengths (MBytes):  RWF=      6 Int=      0 D2E=      0 Chk=      2 Scr=      1
 Normal termination of Gaussian 16 at Mon Jul 26 19:32:52 2021.
