 Entering Gaussian System, Link 0=/opt/g16/g16
 Input=03-IsoP_067_gaussian.com
 Output=03-IsoP_067_gaussian.log
 Initial command:
 /opt/g16/l1.exe "/tmp/Gau-2626744.inp" -scrdir="/tmp/"
 Entering Link 1 = /opt/g16/l1.exe PID=   2626746.
  
 Copyright (c) 1988,1990,1992,1993,1995,1998,2003,2009,2016,
            Gaussian, Inc.  All Rights Reserved.
  
 This is part of the Gaussian(R) 16 program.  It is based on
 the Gaussian(R) 09 system (copyright 2009, Gaussian, Inc.),
 the Gaussian(R) 03 system (copyright 2003, Gaussian, Inc.),
 the Gaussian(R) 98 system (copyright 1998, Gaussian, Inc.),
 the Gaussian(R) 94 system (copyright 1995, Gaussian, Inc.),
 the Gaussian 92(TM) system (copyright 1992, Gaussian, Inc.),
 the Gaussian 90(TM) system (copyright 1990, Gaussian, Inc.),
 the Gaussian 88(TM) system (copyright 1988, Gaussian, Inc.),
 the Gaussian 86(TM) system (copyright 1986, Carnegie Mellon
 University), and the Gaussian 82(TM) system (copyright 1983,
 Carnegie Mellon University). Gaussian is a federally registered
 trademark of Gaussian, Inc.
  
 This software contains proprietary and confidential information,
 including trade secrets, belonging to Gaussian, Inc.
  
 This software is provided under written license and may be
 used, copied, transmitted, or stored only in accord with that
 written license.
  
 The following legend is applicable only to US Government
 contracts under FAR:
  
                    RESTRICTED RIGHTS LEGEND
  
 Use, reproduction and disclosure by the US Government is
 subject to restrictions as set forth in subparagraphs (a)
 and (c) of the Commercial Computer Software - Restricted
 Rights clause in FAR 52.227-19.
  
 Gaussian, Inc.
 340 Quinnipiac St., Bldg. 40, Wallingford CT 06492
  
  
 ---------------------------------------------------------------
 Warning -- This program may not be used in any manner that
 competes with the business of Gaussian, Inc. or will provide
 assistance to any competitor of Gaussian, Inc.  The licensee
 of this program is prohibited from giving any competitor of
 Gaussian, Inc. access to this program.  By using this program,
 the user acknowledges that Gaussian, Inc. is engaged in the
 business of creating and licensing software in the field of
 computational chemistry and represents and warrants to the
 licensee that it is not a competitor of Gaussian, Inc. and that
 it will not use this program in any manner prohibited above.
 ---------------------------------------------------------------
  

 Cite this work as:
 Gaussian 16, Revision A.03,
 M. J. Frisch, G. W. Trucks, H. B. Schlegel, G. E. Scuseria, 
 M. A. Robb, J. R. Cheeseman, G. Scalmani, V. Barone, 
 G. A. Petersson, H. Nakatsuji, X. Li, M. Caricato, A. V. Marenich, 
 J. Bloino, B. G. Janesko, R. Gomperts, B. Mennucci, H. P. Hratchian, 
 J. V. Ortiz, A. F. Izmaylov, J. L. Sonnenberg, D. Williams-Young, 
 F. Ding, F. Lipparini, F. Egidi, J. Goings, B. Peng, A. Petrone, 
 T. Henderson, D. Ranasinghe, V. G. Zakrzewski, J. Gao, N. Rega, 
 G. Zheng, W. Liang, M. Hada, M. Ehara, K. Toyota, R. Fukuda, 
 J. Hasegawa, M. Ishida, T. Nakajima, Y. Honda, O. Kitao, H. Nakai, 
 T. Vreven, K. Throssell, J. A. Montgomery, Jr., J. E. Peralta, 
 F. Ogliaro, M. J. Bearpark, J. J. Heyd, E. N. Brothers, K. N. Kudin, 
 V. N. Staroverov, T. A. Keith, R. Kobayashi, J. Normand, 
 K. Raghavachari, A. P. Rendell, J. C. Burant, S. S. Iyengar, 
 J. Tomasi, M. Cossi, J. M. Millam, M. Klene, C. Adamo, R. Cammi, 
 J. W. Ochterski, R. L. Martin, K. Morokuma, O. Farkas, 
 J. B. Foresman, and D. J. Fox, Gaussian, Inc., Wallingford CT, 2016.
 
 ******************************************
 Gaussian 16:  ES64L-G16RevA.03 25-Dec-2016
                26-Jul-2021 
 ******************************************
 %chk=03-IsoP_067_gaussian.chk
 %nproc=1
 Will use up to    1 processors via shared memory.
 %mem=1000Mb
 ----------
 #p opt pm3
 ----------
 1/18=20,19=15,26=1,38=1/1,3;
 2/9=110,12=2,17=6,18=5,40=1/2;
 3/5=2,25=1,41=800000,71=1/1,2,3;
 4/35=1/1;
 5/5=2,35=1,38=5/2;
 6/7=2,8=2,9=2,10=2,28=1/1;
 7//1,2,3,16;
 1/18=20,19=15,26=1/3(2);
 2/9=110/2;
 99//99;
 2/9=110/2;
 3/5=2,25=1,41=800000,71=1,135=20/1,2,3;
 4/5=5,16=3,35=1/1;
 5/5=2,35=1,38=5/2;
 7//1,2,3,16;
 1/18=20,19=15,26=1/3(-5);
 2/9=110/2;
 6/7=2,8=2,9=2,10=2,19=2,28=1/1;
 99/9=1/99;
 Leave Link    1 at Mon Jul 26 19:32:14 2021, MaxMem=   131072000 cpu:               0.0 elap:               0.0
 (Enter /opt/g16/l101.exe)
 -------------------------------------------------
 Conformer number 067. Energy MM = 23.486 kcal/mol
 -------------------------------------------------
 Symbolic Z-matrix:
 Charge =  0 Multiplicity = 1
 C                    -0.6992   -1.4041   -0.331 
 H                    -0.9206   -2.4584   -0.5443 
 H                    -0.3411   -0.9985   -1.2836 
 C                    -1.9886   -0.7333    0.1057 
 C                    -2.8186   -1.5231    1.0864 
 H                    -3.0674   -2.5046    0.6697 
 H                    -2.2719   -1.6698    2.0229 
 H                    -3.7609   -1.0213    1.331 
 C                    -2.4232    0.4616   -0.3426 
 H                    -3.378     0.8377    0.0241 
 C                    -1.7395    1.39     -1.2961 
 H                    -2.3377    1.4906   -2.2069 
 H                    -1.6486    2.3803   -0.838 
 H                    -0.7358    1.0692   -1.5807 
 C                     3.0612   -0.0547   -0.4196 
 H                     4.0134   -0.2034    0.0998 
 H                     3.2428    0.5731   -1.2987 
 H                     2.724    -1.0255   -0.7894 
 C                     2.0724    0.6127    0.4952 
 C                     2.4324    2.0262    0.8719 
 H                     3.4008    2.0466    1.3825 
 H                     1.6942    2.4795    1.5419 
 H                     2.497     2.6529   -0.0236 
 C                     0.9385    0.0492    0.9558 
 H                     0.2877    0.6441    1.5975 
 C                     0.4318   -1.3468    0.7064 
 H                     1.2423   -2.0061    0.3791 
 H                     0.0926   -1.7639    1.6625 
 
 ITRead=  0  0  0  0  0  0  0  0  0  0  0  0  0  0  0  0  0  0  0  0
 ITRead=  0  0  0  0  0  0  0  0
 MicOpt= -1 -1 -1 -1 -1 -1 -1 -1 -1 -1 -1 -1 -1 -1 -1 -1 -1 -1 -1 -1
 MicOpt= -1 -1 -1 -1 -1 -1 -1 -1
 NAtoms=     28 NQM=       28 NQMF=       0 NMMI=      0 NMMIF=      0
                NMic=       0 NMicF=      0.
                    Isotopes and Nuclear Properties:
 (Nuclear quadrupole moments (NQMom) in fm**2, nuclear magnetic moments (NMagM)
  in nuclear magnetons)

  Atom         1           2           3           4           5           6           7           8           9          10
 IAtWgt=          12           1           1          12          12           1           1           1          12           1
 AtmWgt=  12.0000000   1.0078250   1.0078250  12.0000000  12.0000000   1.0078250   1.0078250   1.0078250  12.0000000   1.0078250
 NucSpn=           0           1           1           0           0           1           1           1           0           1
 AtZEff=  -0.0000000  -0.0000000  -0.0000000  -0.0000000  -0.0000000  -0.0000000  -0.0000000  -0.0000000  -0.0000000  -0.0000000
 NQMom=    0.0000000   0.0000000   0.0000000   0.0000000   0.0000000   0.0000000   0.0000000   0.0000000   0.0000000   0.0000000
 NMagM=    0.0000000   2.7928460   2.7928460   0.0000000   0.0000000   2.7928460   2.7928460   2.7928460   0.0000000   2.7928460
 AtZNuc=   6.0000000   1.0000000   1.0000000   6.0000000   6.0000000   1.0000000   1.0000000   1.0000000   6.0000000   1.0000000

  Atom        11          12          13          14          15          16          17          18          19          20
 IAtWgt=          12           1           1           1          12           1           1           1          12          12
 AtmWgt=  12.0000000   1.0078250   1.0078250   1.0078250  12.0000000   1.0078250   1.0078250   1.0078250  12.0000000  12.0000000
 NucSpn=           0           1           1           1           0           1           1           1           0           0
 AtZEff=  -0.0000000  -0.0000000  -0.0000000  -0.0000000  -0.0000000  -0.0000000  -0.0000000  -0.0000000  -0.0000000  -0.0000000
 NQMom=    0.0000000   0.0000000   0.0000000   0.0000000   0.0000000   0.0000000   0.0000000   0.0000000   0.0000000   0.0000000
 NMagM=    0.0000000   2.7928460   2.7928460   2.7928460   0.0000000   2.7928460   2.7928460   2.7928460   0.0000000   0.0000000
 AtZNuc=   6.0000000   1.0000000   1.0000000   1.0000000   6.0000000   1.0000000   1.0000000   1.0000000   6.0000000   6.0000000

  Atom        21          22          23          24          25          26          27          28
 IAtWgt=           1           1           1          12           1          12           1           1
 AtmWgt=   1.0078250   1.0078250   1.0078250  12.0000000   1.0078250  12.0000000   1.0078250   1.0078250
 NucSpn=           1           1           1           0           1           0           1           1
 AtZEff=  -0.0000000  -0.0000000  -0.0000000  -0.0000000  -0.0000000  -0.0000000  -0.0000000  -0.0000000
 NQMom=    0.0000000   0.0000000   0.0000000   0.0000000   0.0000000   0.0000000   0.0000000   0.0000000
 NMagM=    2.7928460   2.7928460   2.7928460   0.0000000   2.7928460   0.0000000   2.7928460   2.7928460
 AtZNuc=   1.0000000   1.0000000   1.0000000   6.0000000   1.0000000   6.0000000   1.0000000   1.0000000
 Leave Link  101 at Mon Jul 26 19:32:14 2021, MaxMem=   131072000 cpu:               0.2 elap:               0.2
 (Enter /opt/g16/l103.exe)

 GradGradGradGradGradGradGradGradGradGradGradGradGradGradGradGradGradGrad
 Berny optimization.
 Initialization pass.
                           ----------------------------
                           !    Initial Parameters    !
                           ! (Angstroms and Degrees)  !
 --------------------------                            --------------------------
 ! Name  Definition              Value          Derivative Info.                !
 --------------------------------------------------------------------------------
 ! R1    R(1,2)                  1.0982         estimate D2E/DX2                !
 ! R2    R(1,3)                  1.0955         estimate D2E/DX2                !
 ! R3    R(1,4)                  1.5176         estimate D2E/DX2                !
 ! R4    R(1,26)                 1.5358         estimate D2E/DX2                !
 ! R5    R(4,5)                  1.5081         estimate D2E/DX2                !
 ! R6    R(4,9)                  1.3482         estimate D2E/DX2                !
 ! R7    R(5,6)                  1.0949         estimate D2E/DX2                !
 ! R8    R(5,7)                  1.0943         estimate D2E/DX2                !
 ! R9    R(5,8)                  1.0952         estimate D2E/DX2                !
 ! R10   R(9,10)                 1.0898         estimate D2E/DX2                !
 ! R11   R(9,11)                 1.4962         estimate D2E/DX2                !
 ! R12   R(11,12)                1.0943         estimate D2E/DX2                !
 ! R13   R(11,13)                1.0949         estimate D2E/DX2                !
 ! R14   R(11,14)                1.0915         estimate D2E/DX2                !
 ! R15   R(15,16)                1.0948         estimate D2E/DX2                !
 ! R16   R(15,17)                1.0954         estimate D2E/DX2                !
 ! R17   R(15,18)                1.0922         estimate D2E/DX2                !
 ! R18   R(15,19)                1.5033         estimate D2E/DX2                !
 ! R19   R(19,20)                1.5065         estimate D2E/DX2                !
 ! R20   R(19,24)                1.3474         estimate D2E/DX2                !
 ! R21   R(20,21)                1.095          estimate D2E/DX2                !
 ! R22   R(20,22)                1.0951         estimate D2E/DX2                !
 ! R23   R(20,23)                1.0949         estimate D2E/DX2                !
 ! R24   R(24,25)                1.0905         estimate D2E/DX2                !
 ! R25   R(24,26)                1.5059         estimate D2E/DX2                !
 ! R26   R(26,27)                1.0949         estimate D2E/DX2                !
 ! R27   R(26,28)                1.0969         estimate D2E/DX2                !
 ! A1    A(2,1,3)              104.622          estimate D2E/DX2                !
 ! A2    A(2,1,4)              107.9951         estimate D2E/DX2                !
 ! A3    A(2,1,26)             108.3897         estimate D2E/DX2                !
 ! A4    A(3,1,4)              111.3632         estimate D2E/DX2                !
 ! A5    A(3,1,26)             109.4402         estimate D2E/DX2                !
 ! A6    A(4,1,26)             114.5077         estimate D2E/DX2                !
 ! A7    A(1,4,5)              115.0383         estimate D2E/DX2                !
 ! A8    A(1,4,9)              124.746          estimate D2E/DX2                !
 ! A9    A(5,4,9)              120.1965         estimate D2E/DX2                !
 ! A10   A(4,5,6)              110.3051         estimate D2E/DX2                !
 ! A11   A(4,5,7)              110.5956         estimate D2E/DX2                !
 ! A12   A(4,5,8)              112.2584         estimate D2E/DX2                !
 ! A13   A(6,5,7)              108.6055         estimate D2E/DX2                !
 ! A14   A(6,5,8)              107.4692         estimate D2E/DX2                !
 ! A15   A(7,5,8)              107.4652         estimate D2E/DX2                !
 ! A16   A(4,9,10)             118.4522         estimate D2E/DX2                !
 ! A17   A(4,9,11)             127.9204         estimate D2E/DX2                !
 ! A18   A(10,9,11)            113.62           estimate D2E/DX2                !
 ! A19   A(9,11,12)            109.7348         estimate D2E/DX2                !
 ! A20   A(9,11,13)            109.4226         estimate D2E/DX2                !
 ! A21   A(9,11,14)            113.8291         estimate D2E/DX2                !
 ! A22   A(12,11,13)           108.0873         estimate D2E/DX2                !
 ! A23   A(12,11,14)           108.2209         estimate D2E/DX2                !
 ! A24   A(13,11,14)           107.3726         estimate D2E/DX2                !
 ! A25   A(16,15,17)           108.3243         estimate D2E/DX2                !
 ! A26   A(16,15,18)           107.9645         estimate D2E/DX2                !
 ! A27   A(16,15,19)           110.1008         estimate D2E/DX2                !
 ! A28   A(17,15,18)           106.7906         estimate D2E/DX2                !
 ! A29   A(17,15,19)           110.0572         estimate D2E/DX2                !
 ! A30   A(18,15,19)           113.4261         estimate D2E/DX2                !
 ! A31   A(15,19,20)           114.3009         estimate D2E/DX2                !
 ! A32   A(15,19,24)           125.1614         estimate D2E/DX2                !
 ! A33   A(20,19,24)           120.533          estimate D2E/DX2                !
 ! A34   A(19,20,21)           110.2082         estimate D2E/DX2                !
 ! A35   A(19,20,22)           112.3507         estimate D2E/DX2                !
 ! A36   A(19,20,23)           110.2815         estimate D2E/DX2                !
 ! A37   A(21,20,22)           107.6474         estimate D2E/DX2                !
 ! A38   A(21,20,23)           108.5749         estimate D2E/DX2                !
 ! A39   A(22,20,23)           107.6513         estimate D2E/DX2                !
 ! A40   A(19,24,25)           118.3749         estimate D2E/DX2                !
 ! A41   A(19,24,26)           127.8972         estimate D2E/DX2                !
 ! A42   A(25,24,26)           113.7257         estimate D2E/DX2                !
 ! A43   A(1,26,24)            113.219          estimate D2E/DX2                !
 ! A44   A(1,26,27)            108.7092         estimate D2E/DX2                !
 ! A45   A(1,26,28)            110.2957         estimate D2E/DX2                !
 ! A46   A(24,26,27)           111.0175         estimate D2E/DX2                !
 ! A47   A(24,26,28)           108.1918         estimate D2E/DX2                !
 ! A48   A(27,26,28)           105.1005         estimate D2E/DX2                !
 ! D1    D(2,1,4,5)             44.1626         estimate D2E/DX2                !
 ! D2    D(2,1,4,9)           -134.2392         estimate D2E/DX2                !
 ! D3    D(3,1,4,5)            158.4972         estimate D2E/DX2                !
 ! D4    D(3,1,4,9)            -19.9047         estimate D2E/DX2                !
 ! D5    D(26,1,4,5)           -76.6768         estimate D2E/DX2                !
 ! D6    D(26,1,4,9)           104.9213         estimate D2E/DX2                !
 ! D7    D(2,1,26,24)          173.0005         estimate D2E/DX2                !
 ! D8    D(2,1,26,27)           49.13           estimate D2E/DX2                !
 ! D9    D(2,1,26,28)          -65.6099         estimate D2E/DX2                !
 ! D10   D(3,1,26,24)           59.4569         estimate D2E/DX2                !
 ! D11   D(3,1,26,27)          -64.4137         estimate D2E/DX2                !
 ! D12   D(3,1,26,28)         -179.1536         estimate D2E/DX2                !
 ! D13   D(4,1,26,24)          -66.3782         estimate D2E/DX2                !
 ! D14   D(4,1,26,27)          169.7513         estimate D2E/DX2                !
 ! D15   D(4,1,26,28)           55.0114         estimate D2E/DX2                !
 ! D16   D(1,4,5,6)            -57.2617         estimate D2E/DX2                !
 ! D17   D(1,4,5,7)             62.9014         estimate D2E/DX2                !
 ! D18   D(1,4,5,8)           -177.0829         estimate D2E/DX2                !
 ! D19   D(9,4,5,6)            121.219          estimate D2E/DX2                !
 ! D20   D(9,4,5,7)           -118.6179         estimate D2E/DX2                !
 ! D21   D(9,4,5,8)              1.3978         estimate D2E/DX2                !
 ! D22   D(1,4,9,10)           178.6304         estimate D2E/DX2                !
 ! D23   D(1,4,9,11)            -2.4299         estimate D2E/DX2                !
 ! D24   D(5,4,9,10)             0.3057         estimate D2E/DX2                !
 ! D25   D(5,4,9,11)           179.2454         estimate D2E/DX2                !
 ! D26   D(4,9,11,12)          116.1223         estimate D2E/DX2                !
 ! D27   D(4,9,11,13)         -125.4381         estimate D2E/DX2                !
 ! D28   D(4,9,11,14)           -5.3166         estimate D2E/DX2                !
 ! D29   D(10,9,11,12)         -64.8951         estimate D2E/DX2                !
 ! D30   D(10,9,11,13)          53.5445         estimate D2E/DX2                !
 ! D31   D(10,9,11,14)         173.666          estimate D2E/DX2                !
 ! D32   D(16,15,19,20)         66.5597         estimate D2E/DX2                !
 ! D33   D(16,15,19,24)       -114.2275         estimate D2E/DX2                !
 ! D34   D(17,15,19,20)        -52.782          estimate D2E/DX2                !
 ! D35   D(17,15,19,24)        126.4307         estimate D2E/DX2                !
 ! D36   D(18,15,19,20)       -172.3425         estimate D2E/DX2                !
 ! D37   D(18,15,19,24)          6.8703         estimate D2E/DX2                !
 ! D38   D(15,19,20,21)        -59.6752         estimate D2E/DX2                !
 ! D39   D(15,19,20,22)       -179.7169         estimate D2E/DX2                !
 ! D40   D(15,19,20,23)         60.1861         estimate D2E/DX2                !
 ! D41   D(24,19,20,21)        121.072          estimate D2E/DX2                !
 ! D42   D(24,19,20,22)          1.0303         estimate D2E/DX2                !
 ! D43   D(24,19,20,23)       -119.0668         estimate D2E/DX2                !
 ! D44   D(15,19,24,25)       -178.6109         estimate D2E/DX2                !
 ! D45   D(15,19,24,26)          1.9687         estimate D2E/DX2                !
 ! D46   D(20,19,24,25)          0.5562         estimate D2E/DX2                !
 ! D47   D(20,19,24,26)       -178.8642         estimate D2E/DX2                !
 ! D48   D(19,24,26,1)        -102.9305         estimate D2E/DX2                !
 ! D49   D(19,24,26,27)         19.6672         estimate D2E/DX2                !
 ! D50   D(19,24,26,28)        134.5034         estimate D2E/DX2                !
 ! D51   D(25,24,26,1)          77.6265         estimate D2E/DX2                !
 ! D52   D(25,24,26,27)       -159.7758         estimate D2E/DX2                !
 ! D53   D(25,24,26,28)        -44.9395         estimate D2E/DX2                !
 --------------------------------------------------------------------------------
 Trust Radius=3.00D-01 FncErr=1.00D-07 GrdErr=1.00D-07 EigMax=2.50D+02 EigMin=1.00D-04
 Number of steps in this run=    138 maximum allowed number of steps=    168.
 GradGradGradGradGradGradGradGradGradGradGradGradGradGradGradGradGradGrad

 Leave Link  103 at Mon Jul 26 19:32:14 2021, MaxMem=   131072000 cpu:               0.0 elap:               0.0
 (Enter /opt/g16/l202.exe)
                          Input orientation:                          
 ---------------------------------------------------------------------
 Center     Atomic      Atomic             Coordinates (Angstroms)
 Number     Number       Type             X           Y           Z
 ---------------------------------------------------------------------
      1          6           0       -0.699200   -1.404100   -0.331000
      2          1           0       -0.920600   -2.458400   -0.544300
      3          1           0       -0.341100   -0.998500   -1.283600
      4          6           0       -1.988600   -0.733300    0.105700
      5          6           0       -2.818600   -1.523100    1.086400
      6          1           0       -3.067400   -2.504600    0.669700
      7          1           0       -2.271900   -1.669800    2.022900
      8          1           0       -3.760900   -1.021300    1.331000
      9          6           0       -2.423200    0.461600   -0.342600
     10          1           0       -3.378000    0.837700    0.024100
     11          6           0       -1.739500    1.390000   -1.296100
     12          1           0       -2.337700    1.490600   -2.206900
     13          1           0       -1.648600    2.380300   -0.838000
     14          1           0       -0.735800    1.069200   -1.580700
     15          6           0        3.061200   -0.054700   -0.419600
     16          1           0        4.013400   -0.203400    0.099800
     17          1           0        3.242800    0.573100   -1.298700
     18          1           0        2.724000   -1.025500   -0.789400
     19          6           0        2.072400    0.612700    0.495200
     20          6           0        2.432400    2.026200    0.871900
     21          1           0        3.400800    2.046600    1.382500
     22          1           0        1.694200    2.479500    1.541900
     23          1           0        2.497000    2.652900   -0.023600
     24          6           0        0.938500    0.049200    0.955800
     25          1           0        0.287700    0.644100    1.597500
     26          6           0        0.431800   -1.346800    0.706400
     27          1           0        1.242300   -2.006100    0.379100
     28          1           0        0.092600   -1.763900    1.662500
 ---------------------------------------------------------------------
                    Distance matrix (angstroms):
                    1          2          3          4          5
     1  C    0.000000
     2  H    1.098209   0.000000
     3  H    1.095534   1.735999   0.000000
     4  C    1.517640   2.130515   2.171346   0.000000
     5  C    2.552458   2.671399   3.468445   1.508130   0.000000
     6  H    2.796582   2.466715   3.676470   2.149281   1.094935
     7  H    2.843383   3.006396   3.887361   2.152428   1.094273
     8  H    3.504681   3.694497   4.304844   2.173787   1.095245
     9  C    2.540305   3.290120   2.711552   1.348197   2.477381
    10  H    3.511087   4.150442   3.782125   2.098841   2.648544
    11  C    3.133790   4.005744   2.767781   2.556462   3.914960
    12  H    3.818766   4.512983   3.321824   3.227340   4.489931
    13  H    3.934475   4.901965   3.650261   3.271189   4.506523
    14  H    2.771336   3.681336   2.125897   2.768115   4.262804
    15  C    3.996165   4.652747   3.634955   5.122199   6.244700
    16  H    4.882199   5.462989   4.637634   6.025349   7.027888
    17  H    4.514989   5.205095   3.913374   5.571945   6.842757
    18  H    3.474445   3.923823   3.104803   4.805745   5.872533
    19  C    3.525884   4.412512   3.403686   4.295945   5.369641
    20  C    4.798004   5.775800   4.635439   5.267556   6.341651
    21  H    5.626137   6.533152   5.512036   6.197071   7.177142
    22  H    4.931376   5.964249   4.921624   5.093895   6.049269
    23  H    5.173919   6.170616   4.793238   5.621715   6.850305
    24  C    2.539684   3.463324   2.783876   3.146886   4.074921
    25  H    2.981310   3.958889   3.375539   3.050285   3.821921
    26  C    1.535787   2.151486   2.163050   2.568182   3.277283
    27  H    2.153153   2.394865   2.507386   3.483315   4.150237
    28  H    2.174959   2.525643   3.074644   2.795918   2.977408
                    6          7          8          9         10
     6  H    0.000000
     7  H    1.777881   0.000000
     8  H    1.765910   1.765333   0.000000
     9  C    3.199701   3.187687   2.605642   0.000000
    10  H    3.418222   3.392081   2.304448   1.089754   0.000000
    11  C    4.560219   4.545502   4.099034   1.496173   2.175464
    12  H    4.976838   5.280499   4.566385   2.131142   2.546736
    13  H    5.305507   4.997656   4.553818   2.127636   2.472581
    14  H    4.824179   4.779922   4.690354   2.179309   3.100032
    15  C    6.689419   6.084103   7.109147   5.509187   6.515869
    16  H    7.467130   6.734511   7.913568   6.485967   7.464745
    17  H    7.291465   6.817297   7.649134   5.747183   6.756834
    18  H    6.152806   5.769157   6.822759   5.376315   6.431773
    19  C    6.013780   5.139710   6.115219   4.575496   5.475347
    20  C    7.128593   6.092262   6.917730   5.244028   5.990997
    21  H    7.940977   6.811848   7.791316   6.277513   7.018463
    22  H    6.948008   5.760035   6.485229   4.957443   5.543143
    23  H    7.618597   6.753984   7.382141   5.395547   6.149216
    24  C    4.759305   3.794777   4.834367   3.627250   4.485752
    25  H    4.693807   3.476586   4.385857   3.338603   3.993798
    26  C    3.685953   3.024483   4.251448   3.538607   4.444339
    27  H    4.348156   3.894198   5.187288   4.477308   5.436947
    28  H    3.394096   2.393659   3.938376   3.911844   4.636566
                   11         12         13         14         15
    11  C    0.000000
    12  H    1.094313   0.000000
    13  H    1.094903   1.772093   0.000000
    14  H    1.091478   1.770816   1.761758   0.000000
    15  C    5.089414   5.893260   5.318505   4.126562   0.000000
    16  H    6.130524   6.966130   6.293903   5.196007   1.094794
    17  H    5.048826   5.727880   5.234884   4.019316   1.095412
    18  H    5.100413   5.827596   5.542695   4.121182   1.092204
    19  C    4.282935   5.246049   4.329858   3.521894   1.503332
    20  C    4.744441   5.702607   4.438886   4.119294   2.528538
    21  H    5.833413   6.791414   5.526157   5.181440   2.788970
    22  H    4.586017   5.593536   4.104641   4.200533   3.484012
    23  H    4.600229   5.430660   4.233622   3.922201   2.793964
    24  C    3.747063   4.776379   3.917248   3.205856   2.531477
    25  H    3.610932   4.699228   3.563048   3.365890   3.499902
    26  C    4.026739   4.920192   4.539219   3.525787   3.138653
    27  H    4.819847   5.633002   5.392508   4.148634   2.784651
    28  H    4.696487   5.609847   5.143799   4.385322   4.008627
                   16         17         18         19         20
    16  H    0.000000
    17  H    1.775550   0.000000
    18  H    1.768920   1.756150   0.000000
    19  C    2.142392   2.142308   2.181394   0.000000
    20  C    2.840214   2.734914   3.486807   1.506481   0.000000
    21  H    2.661409   3.063495   3.822696   2.146629   1.094955
    22  H    3.828354   3.755201   4.333644   2.173375   1.095135
    23  H    3.236224   2.551013   3.764121   2.147523   1.094918
    24  C    3.201805   3.266043   2.718219   1.347373   2.479376
    25  H    4.103925   4.138313   3.797422   2.097905   2.652628
    26  C    3.808305   3.950717   2.755872   2.564335   3.925165
    27  H    3.317639   3.670053   2.126594   2.749665   4.233041
    28  H    4.499985   4.914675   3.671691   3.306119   4.523778
                   21         22         23         24         25
    21  H    0.000000
    22  H    1.767850   0.000000
    23  H    1.778081   1.767865   0.000000
    24  C    3.199156   2.611696   3.188636   0.000000
    25  H    3.421202   2.313012   3.397683   1.090516   0.000000
    26  C    4.559302   4.114886   4.560214   1.505909   2.185980
    27  H    4.700033   4.655848   4.841768   2.156185   3.069091
    28  H    5.053959   4.537192   5.303979   2.121863   2.416765
                   26         27         28
    26  C    0.000000
    27  H    1.094857   0.000000
    28  H    1.096885   1.739996   0.000000
 Stoichiometry    C10H18
 Framework group  C1[X(C10H18)]
 Deg. of freedom    78
 Full point group                 C1      NOp   1
 Largest Abelian subgroup         C1      NOp   1
 Largest concise Abelian subgroup C1      NOp   1
                         Standard orientation:                         
 ---------------------------------------------------------------------
 Center     Atomic      Atomic             Coordinates (Angstroms)
 Number     Number       Type             X           Y           Z
 ---------------------------------------------------------------------
      1          6           0        1.027942   -0.895956    0.833091
      2          1           0        1.542949   -1.715311    1.352214
      3          1           0        0.608864   -0.279858    1.636204
      4          6           0        2.060675   -0.128025    0.028742
      5          6           0        3.038609   -0.983618   -0.736805
      6          1           0        3.567639   -1.658172   -0.055639
      7          1           0        2.517956   -1.584486   -1.488678
      8          1           0        3.793053   -0.385438   -1.258874
      9          6           0        2.162022    1.215858   -0.007891
     10          1           0        2.958701    1.660384   -0.603930
     11          6           0        1.284715    2.222852    0.666522
     12          1           0        1.866626    2.785766    1.402747
     13          1           0        0.903095    2.929652   -0.077529
     14          1           0        0.422443    1.786831    1.174160
     15          6           0       -2.953050   -0.578570    0.975572
     16          1           0       -3.845719   -1.133033    0.668511
     17          1           0       -3.267680    0.255249    1.612505
     18          1           0       -2.344043   -1.238314    1.597469
     19          6           0       -2.226695   -0.058286   -0.233444
     20          6           0       -2.981362    0.992294   -1.005612
     21          1           0       -3.936405    0.589339   -1.358386
     22          1           0       -2.426039    1.344820   -1.881205
     23          1           0       -3.182777    1.859901   -0.368795
     24          6           0       -0.999744   -0.449598   -0.629525
     25          1           0       -0.566666    0.018985   -1.513888
     26          6           0       -0.114238   -1.493447   -0.001816
     27          1           0       -0.695011   -2.171509    0.631940
     28          1           0        0.289776   -2.125830   -0.801829
 ---------------------------------------------------------------------
 Rotational constants (GHZ):           1.8849827           0.6991714           0.6021004
 Leave Link  202 at Mon Jul 26 19:32:14 2021, MaxMem=   131072000 cpu:               0.0 elap:               0.0
 (Enter /opt/g16/l301.exe)
 Standard basis: VSTO-6G (5D, 7F)
 Ernie: Thresh=  0.10000D-02 Tol=  0.10000D-05 Strict=F.
  NNHCO=     0 NNPyr=     0 NCTC=     0               EPep=         0.000000000
    EC=       253.569341769  ECS=         3.521405391   EG=         0.892421456
   EHC=         0.000000000  EAt=       -49.524085099  AtH=         4.217842293
 EPDDG=         0.000000000  ECC=       257.983168616 EAtT=        53.741927392
 There are    58 symmetry adapted cartesian basis functions of A   symmetry.
 There are    58 symmetry adapted basis functions of A   symmetry.
    58 basis functions,   348 primitive gaussians,    58 cartesian basis functions
    29 alpha electrons       29 beta electrons
       nuclear repulsion energy       311.7250960085 Hartrees.
 IExCor=    0 DFT=F Ex=HF Corr=None ExCW=0 ScaHFX=  1.000000
 ScaDFX=  1.000000  1.000000  1.000000  1.000000 ScalE2=  1.000000  1.000000
 IRadAn=      5 IRanWt=     -1 IRanGd=            0 ICorTp=0 IEmpDi=  4
 Integral buffers will be    131072 words long.
 Regular integral format.
 Two-electron integral symmetry is turned off.
 Leave Link  301 at Mon Jul 26 19:32:14 2021, MaxMem=   131072000 cpu:               0.0 elap:               0.0
 (Enter /opt/g16/l302.exe)
 Do NDO integrals.
 NPDir=0 NMtPBC=     1 NCelOv=     1 NCel=       1 NClECP=     1 NCelD=      1
         NCelK=      1 NCelE2=     1 NClLst=     1 CellRange=     0.0.
 One-electron integrals computed using PRISM.
 NBasis=    58 RedAO= F EigKep=  0.00D+00  NBF=    58
 NBsUse=    58 1.00D-04 EigRej=  0.00D+00 NBFU=    58
 Leave Link  302 at Mon Jul 26 19:32:15 2021, MaxMem=   131072000 cpu:               0.1 elap:               0.1
 (Enter /opt/g16/l303.exe)
 DipDrv:  MaxL=1.
 Leave Link  303 at Mon Jul 26 19:32:15 2021, MaxMem=   131072000 cpu:               0.0 elap:               0.1
 (Enter /opt/g16/l401.exe)
 Simple Huckel Guess.
 JPrj=0 DoOrth=F DoCkMO=F.
 Leave Link  401 at Mon Jul 26 19:32:15 2021, MaxMem=   131072000 cpu:               0.0 elap:               0.0
 (Enter /opt/g16/l502.exe)
 Keep J ints in memory in canonical form, NReq=866866.
 FoFCou: FMM=F IPFlag=           0 FMFlag=           0 FMFlg1=           0
         NFxFlg=           0 DoJE=F BraDBF=F KetDBF=F FulRan=T
         wScrn=  0.000000 ICntrl=       600 IOpCl=  2 I1Cent=           0 NGrid=           0
         NMat0=    1 NMatS0=    118 NMatT0=    0 NMatD0=    1 NMtDS0=    0 NMtDT0=    0
 Symmetry not used in FoFCou.
 Two-electron integral symmetry not used.
 Closed shell SCF:
 Using DIIS extrapolation, IDIIS=  1040.
 Overlap will be assumed to be unity.
 NGot=   131072000 LenX=   130997697 LenY=   130993892
 Requested convergence on RMS density matrix=1.00D-08 within 128 cycles.
 Requested convergence on MAX density matrix=1.00D-06.
 Requested convergence on             energy=1.00D-06.
 No special actions if energy rises.

 Cycle   1  Pass 1  IDiag  1:
 E= 0.217349328549005    
 DIIS: error= 2.74D-02 at cycle   1 NSaved=   1.
 NSaved= 1 IEnMin= 1 EnMin= 0.217349328549005     IErMin= 1 ErrMin= 2.74D-02
 ErrMax= 2.74D-02  0.00D+00 EMaxC= 1.00D-01 BMatC= 9.41D-02 BMatP= 9.41D-02
 IDIUse=3 WtCom= 7.26D-01 WtEn= 2.74D-01
 Coeff-Com:  0.100D+01
 Coeff-En:   0.100D+01
 Coeff:      0.100D+01
 GapD=    2.000 DampG=2.000 DampE=0.500 DampFc=1.0000 IDamp=-1.
 RMSDP=7.14D-03 MaxDP=8.49D-02              OVMax= 0.00D+00

 Cycle   2  Pass 1  IDiag  1:
 E=-0.156620943249663E-02 Delta-E=       -0.218915537982 Rises=F Damp=F
 DIIS: error= 7.99D-03 at cycle   2 NSaved=   2.
 NSaved= 2 IEnMin= 2 EnMin=-0.156620943249663E-02 IErMin= 2 ErrMin= 7.99D-03
 ErrMax= 7.99D-03  0.00D+00 EMaxC= 1.00D-01 BMatC= 6.06D-03 BMatP= 9.41D-02
 IDIUse=3 WtCom= 9.20D-01 WtEn= 7.99D-02
 Coeff-Com: -0.318D+00 0.132D+01
 Coeff-En:   0.000D+00 0.100D+01
 Coeff:     -0.293D+00 0.129D+01
 RMSDP=2.60D-03 MaxDP=2.87D-02 DE=-2.19D-01 OVMax= 0.00D+00

 Cycle   3  Pass 1  IDiag  3:
 E=-0.189535932814806E-01 Delta-E=       -0.017387383849 Rises=F Damp=F
 DIIS: error= 9.53D-04 at cycle   3 NSaved=   3.
 NSaved= 3 IEnMin= 3 EnMin=-0.189535932814806E-01 IErMin= 3 ErrMin= 9.53D-04
 ErrMax= 9.53D-04  0.00D+00 EMaxC= 1.00D-01 BMatC= 7.50D-05 BMatP= 6.06D-03
 IDIUse=3 WtCom= 9.90D-01 WtEn= 9.53D-03
 Coeff-Com:  0.110D+00-0.514D+00 0.140D+01
 Coeff-En:   0.000D+00 0.000D+00 0.100D+01
 Coeff:      0.109D+00-0.509D+00 0.140D+01
 Gap=     0.377 Goal=   None    Shift=    0.000
 RMSDP=4.35D-04 MaxDP=4.17D-03 DE=-1.74D-02 OVMax= 5.87D-03

 Cycle   4  Pass 1  IDiag  3:
 E=-0.192996404488213E-01 Delta-E=       -0.000346047167 Rises=F Damp=F
 DIIS: error= 1.52D-04 at cycle   4 NSaved=   4.
 NSaved= 4 IEnMin= 4 EnMin=-0.192996404488213E-01 IErMin= 4 ErrMin= 1.52D-04
 ErrMax= 1.52D-04  0.00D+00 EMaxC= 1.00D-01 BMatC= 3.32D-06 BMatP= 7.50D-05
 IDIUse=3 WtCom= 9.98D-01 WtEn= 1.52D-03
 Coeff-Com: -0.485D-01 0.232D+00-0.743D+00 0.156D+01
 Coeff-En:   0.000D+00 0.000D+00 0.000D+00 0.100D+01
 Coeff:     -0.485D-01 0.232D+00-0.742D+00 0.156D+01
 Gap=     0.377 Goal=   None    Shift=    0.000
 RMSDP=1.11D-04 MaxDP=1.14D-03 DE=-3.46D-04 OVMax= 8.26D-04

 Cycle   5  Pass 1  IDiag  3:
 E=-0.193185495276111E-01 Delta-E=       -0.000018909079 Rises=F Damp=F
 DIIS: error= 4.25D-05 at cycle   5 NSaved=   5.
 NSaved= 5 IEnMin= 5 EnMin=-0.193185495276111E-01 IErMin= 5 ErrMin= 4.25D-05
 ErrMax= 4.25D-05  0.00D+00 EMaxC= 1.00D-01 BMatC= 1.90D-07 BMatP= 3.32D-06
 IDIUse=1 WtCom= 1.00D+00 WtEn= 0.00D+00
 Coeff-Com:  0.135D-01-0.648D-01 0.216D+00-0.601D+00 0.144D+01
 Coeff:      0.135D-01-0.648D-01 0.216D+00-0.601D+00 0.144D+01
 Gap=     0.377 Goal=   None    Shift=    0.000
 RMSDP=2.76D-05 MaxDP=3.02D-04 DE=-1.89D-05 OVMax= 2.25D-04

 Cycle   6  Pass 1  IDiag  3:
 E=-0.193197247632497E-01 Delta-E=       -0.000001175236 Rises=F Damp=F
 DIIS: error= 1.54D-05 at cycle   6 NSaved=   6.
 NSaved= 6 IEnMin= 6 EnMin=-0.193197247632497E-01 IErMin= 6 ErrMin= 1.54D-05
 ErrMax= 1.54D-05  0.00D+00 EMaxC= 1.00D-01 BMatC= 1.63D-08 BMatP= 1.90D-07
 IDIUse=1 WtCom= 1.00D+00 WtEn= 0.00D+00
 Coeff-Com: -0.508D-02 0.243D-01-0.795D-01 0.228D+00-0.762D+00 0.159D+01
 Coeff:     -0.508D-02 0.243D-01-0.795D-01 0.228D+00-0.762D+00 0.159D+01
 Gap=     0.377 Goal=   None    Shift=    0.000
 RMSDP=9.49D-06 MaxDP=1.18D-04 DE=-1.18D-06 OVMax= 9.84D-05

 Cycle   7  Pass 1  IDiag  3:
 E=-0.193198379553792E-01 Delta-E=       -0.000000113192 Rises=F Damp=F
 DIIS: error= 4.26D-06 at cycle   7 NSaved=   7.
 NSaved= 7 IEnMin= 7 EnMin=-0.193198379553792E-01 IErMin= 7 ErrMin= 4.26D-06
 ErrMax= 4.26D-06  0.00D+00 EMaxC= 1.00D-01 BMatC= 1.09D-09 BMatP= 1.63D-08
 IDIUse=1 WtCom= 1.00D+00 WtEn= 0.00D+00
 Coeff-Com:  0.130D-02-0.618D-02 0.200D-01-0.589D-01 0.262D+00-0.798D+00
 Coeff-Com:  0.158D+01
 Coeff:      0.130D-02-0.618D-02 0.200D-01-0.589D-01 0.262D+00-0.798D+00
 Coeff:      0.158D+01
 Gap=     0.377 Goal=   None    Shift=    0.000
 RMSDP=2.51D-06 MaxDP=3.11D-05 DE=-1.13D-07 OVMax= 3.19D-05

 Cycle   8  Pass 1  IDiag  3:
 E=-0.193198452713546E-01 Delta-E=       -0.000000007316 Rises=F Damp=F
 DIIS: error= 1.06D-06 at cycle   8 NSaved=   8.
 NSaved= 8 IEnMin= 8 EnMin=-0.193198452713546E-01 IErMin= 8 ErrMin= 1.06D-06
 ErrMax= 1.06D-06  0.00D+00 EMaxC= 1.00D-01 BMatC= 4.67D-11 BMatP= 1.09D-09
 IDIUse=1 WtCom= 1.00D+00 WtEn= 0.00D+00
 Coeff-Com: -0.115D-03 0.533D-03-0.162D-02 0.523D-02-0.414D-01 0.173D+00
 Coeff-Com: -0.505D+00 0.137D+01
 Coeff:     -0.115D-03 0.533D-03-0.162D-02 0.523D-02-0.414D-01 0.173D+00
 Coeff:     -0.505D+00 0.137D+01
 Gap=     0.377 Goal=   None    Shift=    0.000
 RMSDP=4.61D-07 MaxDP=7.21D-06 DE=-7.32D-09 OVMax= 7.12D-06

 Cycle   9  Pass 1  IDiag  3:
 E=-0.193198455711467E-01 Delta-E=       -0.000000000300 Rises=F Damp=F
 DIIS: error= 2.30D-07 at cycle   9 NSaved=   9.
 NSaved= 9 IEnMin= 9 EnMin=-0.193198455711467E-01 IErMin= 9 ErrMin= 2.30D-07
 ErrMax= 2.30D-07  0.00D+00 EMaxC= 1.00D-01 BMatC= 4.64D-12 BMatP= 4.67D-11
 IDIUse=1 WtCom= 1.00D+00 WtEn= 0.00D+00
 Coeff-Com:  0.373D-04-0.170D-03 0.469D-03-0.146D-02 0.160D-01-0.743D-01
 Coeff-Com:  0.236D+00-0.843D+00 0.167D+01
 Coeff:      0.373D-04-0.170D-03 0.469D-03-0.146D-02 0.160D-01-0.743D-01
 Coeff:      0.236D+00-0.843D+00 0.167D+01
 Gap=     0.377 Goal=   None    Shift=    0.000
 RMSDP=1.65D-07 MaxDP=2.23D-06 DE=-3.00D-10 OVMax= 2.41D-06

 Cycle  10  Pass 1  IDiag  3:
 E=-0.193198456042296E-01 Delta-E=       -0.000000000033 Rises=F Damp=F
 DIIS: error= 5.73D-08 at cycle  10 NSaved=  10.
 NSaved=10 IEnMin=10 EnMin=-0.193198456042296E-01 IErMin=10 ErrMin= 5.73D-08
 ErrMax= 5.73D-08  0.00D+00 EMaxC= 1.00D-01 BMatC= 2.57D-13 BMatP= 4.64D-12
 IDIUse=1 WtCom= 1.00D+00 WtEn= 0.00D+00
 Coeff-Com: -0.346D-05 0.136D-04-0.166D-04 0.103D-03-0.400D-02 0.213D-01
 Coeff-Com: -0.721D-01 0.293D+00-0.781D+00 0.154D+01
 Coeff:     -0.346D-05 0.136D-04-0.166D-04 0.103D-03-0.400D-02 0.213D-01
 Coeff:     -0.721D-01 0.293D+00-0.781D+00 0.154D+01
 Gap=     0.377 Goal=   None    Shift=    0.000
 RMSDP=3.91D-08 MaxDP=5.01D-07 DE=-3.31D-11 OVMax= 4.67D-07

 Cycle  11  Pass 1  IDiag  3:
 E=-0.193198456054233E-01 Delta-E=       -0.000000000001 Rises=F Damp=F
 DIIS: error= 9.23D-09 at cycle  11 NSaved=  11.
 NSaved=11 IEnMin=11 EnMin=-0.193198456054233E-01 IErMin=11 ErrMin= 9.23D-09
 ErrMax= 9.23D-09  0.00D+00 EMaxC= 1.00D-01 BMatC= 8.51D-15 BMatP= 2.57D-13
 IDIUse=1 WtCom= 1.00D+00 WtEn= 0.00D+00
 Coeff-Com:  0.223D-06-0.804D-07-0.919D-05 0.946D-05 0.120D-02-0.682D-02
 Coeff-Com:  0.237D-01-0.999D-01 0.286D+00-0.679D+00 0.147D+01
 Coeff:      0.223D-06-0.804D-07-0.919D-05 0.946D-05 0.120D-02-0.682D-02
 Coeff:      0.237D-01-0.999D-01 0.286D+00-0.679D+00 0.147D+01
 Gap=     0.377 Goal=   None    Shift=    0.000
 RMSDP=5.89D-09 MaxDP=8.09D-08 DE=-1.19D-12 OVMax= 5.04D-08

 Cycle  12  Pass 2  IDiag  1:
 SCF Done:  E(RPM3) = -0.193198456054E-01 A.U. after   12 cycles
            NFock= 11  Conv=0.59D-08     -V/T= 0.9998
 KE=-7.900990714430D+01 PE=-5.058186685761D+02 EE= 2.730841598664D+02
 Leave Link  502 at Mon Jul 26 19:32:15 2021, MaxMem=   131072000 cpu:               0.0 elap:               0.0
 (Enter /opt/g16/l601.exe)
 Copying SCF densities to generalized density rwf, IOpCl= 0 IROHF=0.

 **********************************************************************

            Population analysis using the SCF density.

 **********************************************************************

 Orbital symmetries:
       Occupied  (A) (A) (A) (A) (A) (A) (A) (A) (A) (A) (A) (A)
                 (A) (A) (A) (A) (A) (A) (A) (A) (A) (A) (A) (A)
                 (A) (A) (A) (A) (A)
       Virtual   (A) (A) (A) (A) (A) (A) (A) (A) (A) (A) (A) (A)
                 (A) (A) (A) (A) (A) (A) (A) (A) (A) (A) (A) (A)
                 (A) (A) (A) (A) (A)
 The electronic state is 1-A.
 Alpha  occ. eigenvalues --   -1.45697  -1.34168  -1.17893  -1.10494  -1.01205
 Alpha  occ. eigenvalues --   -0.95185  -0.86795  -0.80237  -0.67415  -0.63356
 Alpha  occ. eigenvalues --   -0.60762  -0.58937  -0.56670  -0.56336  -0.55134
 Alpha  occ. eigenvalues --   -0.54047  -0.51167  -0.50074  -0.48886  -0.48531
 Alpha  occ. eigenvalues --   -0.48289  -0.47490  -0.47044  -0.46823  -0.45469
 Alpha  occ. eigenvalues --   -0.43203  -0.42293  -0.35316  -0.34097
 Alpha virt. eigenvalues --    0.03633   0.04329   0.12159   0.12201   0.13300
 Alpha virt. eigenvalues --    0.13550   0.14113   0.14420   0.14966   0.15277
 Alpha virt. eigenvalues --    0.15469   0.15812   0.15984   0.16188   0.16469
 Alpha virt. eigenvalues --    0.16564   0.16611   0.16787   0.16949   0.17108
 Alpha virt. eigenvalues --    0.17257   0.17342   0.17643   0.17975   0.18094
 Alpha virt. eigenvalues --    0.20965   0.21164   0.22512   0.22605
          Condensed to atoms (all electrons):
               1          2          3          4          5          6
     1  C    4.045868   0.000000   0.000000   0.000000   0.000000   0.000000
     2  H    0.000000   0.952434   0.000000   0.000000   0.000000   0.000000
     3  H    0.000000   0.000000   0.943888   0.000000   0.000000   0.000000
     4  C    0.000000   0.000000   0.000000   4.125189   0.000000   0.000000
     5  C    0.000000   0.000000   0.000000   0.000000   4.067584   0.000000
     6  H    0.000000   0.000000   0.000000   0.000000   0.000000   0.957006
     7  H    0.000000   0.000000   0.000000   0.000000   0.000000   0.000000
     8  H    0.000000   0.000000   0.000000   0.000000   0.000000   0.000000
     9  C    0.000000   0.000000   0.000000   0.000000   0.000000   0.000000
    10  H    0.000000   0.000000   0.000000   0.000000   0.000000   0.000000
    11  C    0.000000   0.000000   0.000000   0.000000   0.000000   0.000000
    12  H    0.000000   0.000000   0.000000   0.000000   0.000000   0.000000
    13  H    0.000000   0.000000   0.000000   0.000000   0.000000   0.000000
    14  H    0.000000   0.000000   0.000000   0.000000   0.000000   0.000000
    15  C    0.000000   0.000000   0.000000   0.000000   0.000000   0.000000
    16  H    0.000000   0.000000   0.000000   0.000000   0.000000   0.000000
    17  H    0.000000   0.000000   0.000000   0.000000   0.000000   0.000000
    18  H    0.000000   0.000000   0.000000   0.000000   0.000000   0.000000
    19  C    0.000000   0.000000   0.000000   0.000000   0.000000   0.000000
    20  C    0.000000   0.000000   0.000000   0.000000   0.000000   0.000000
    21  H    0.000000   0.000000   0.000000   0.000000   0.000000   0.000000
    22  H    0.000000   0.000000   0.000000   0.000000   0.000000   0.000000
    23  H    0.000000   0.000000   0.000000   0.000000   0.000000   0.000000
    24  C    0.000000   0.000000   0.000000   0.000000   0.000000   0.000000
    25  H    0.000000   0.000000   0.000000   0.000000   0.000000   0.000000
    26  C    0.000000   0.000000   0.000000   0.000000   0.000000   0.000000
    27  H    0.000000   0.000000   0.000000   0.000000   0.000000   0.000000
    28  H    0.000000   0.000000   0.000000   0.000000   0.000000   0.000000
               7          8          9         10         11         12
     1  C    0.000000   0.000000   0.000000   0.000000   0.000000   0.000000
     2  H    0.000000   0.000000   0.000000   0.000000   0.000000   0.000000
     3  H    0.000000   0.000000   0.000000   0.000000   0.000000   0.000000
     4  C    0.000000   0.000000   0.000000   0.000000   0.000000   0.000000
     5  C    0.000000   0.000000   0.000000   0.000000   0.000000   0.000000
     6  H    0.000000   0.000000   0.000000   0.000000   0.000000   0.000000
     7  H    0.954538   0.000000   0.000000   0.000000   0.000000   0.000000
     8  H    0.000000   0.960149   0.000000   0.000000   0.000000   0.000000
     9  C    0.000000   0.000000   4.148394   0.000000   0.000000   0.000000
    10  H    0.000000   0.000000   0.000000   0.907598   0.000000   0.000000
    11  C    0.000000   0.000000   0.000000   0.000000   4.069937   0.000000
    12  H    0.000000   0.000000   0.000000   0.000000   0.000000   0.957347
    13  H    0.000000   0.000000   0.000000   0.000000   0.000000   0.000000
    14  H    0.000000   0.000000   0.000000   0.000000   0.000000   0.000000
    15  C    0.000000   0.000000   0.000000   0.000000   0.000000   0.000000
    16  H    0.000000   0.000000   0.000000   0.000000   0.000000   0.000000
    17  H    0.000000   0.000000   0.000000   0.000000   0.000000   0.000000
    18  H    0.000000   0.000000   0.000000   0.000000   0.000000   0.000000
    19  C    0.000000   0.000000   0.000000   0.000000   0.000000   0.000000
    20  C    0.000000   0.000000   0.000000   0.000000   0.000000   0.000000
    21  H    0.000000   0.000000   0.000000   0.000000   0.000000   0.000000
    22  H    0.000000   0.000000   0.000000   0.000000   0.000000   0.000000
    23  H    0.000000   0.000000   0.000000   0.000000   0.000000   0.000000
    24  C    0.000000   0.000000   0.000000   0.000000   0.000000   0.000000
    25  H    0.000000   0.000000   0.000000   0.000000   0.000000   0.000000
    26  C    0.000000   0.000000   0.000000   0.000000   0.000000   0.000000
    27  H    0.000000   0.000000   0.000000   0.000000   0.000000   0.000000
    28  H    0.000000   0.000000   0.000000   0.000000   0.000000   0.000000
              13         14         15         16         17         18
     1  C    0.000000   0.000000   0.000000   0.000000   0.000000   0.000000
     2  H    0.000000   0.000000   0.000000   0.000000   0.000000   0.000000
     3  H    0.000000   0.000000   0.000000   0.000000   0.000000   0.000000
     4  C    0.000000   0.000000   0.000000   0.000000   0.000000   0.000000
     5  C    0.000000   0.000000   0.000000   0.000000   0.000000   0.000000
     6  H    0.000000   0.000000   0.000000   0.000000   0.000000   0.000000
     7  H    0.000000   0.000000   0.000000   0.000000   0.000000   0.000000
     8  H    0.000000   0.000000   0.000000   0.000000   0.000000   0.000000
     9  C    0.000000   0.000000   0.000000   0.000000   0.000000   0.000000
    10  H    0.000000   0.000000   0.000000   0.000000   0.000000   0.000000
    11  C    0.000000   0.000000   0.000000   0.000000   0.000000   0.000000
    12  H    0.000000   0.000000   0.000000   0.000000   0.000000   0.000000
    13  H    0.957853   0.000000   0.000000   0.000000   0.000000   0.000000
    14  H    0.000000   0.952090   0.000000   0.000000   0.000000   0.000000
    15  C    0.000000   0.000000   4.066334   0.000000   0.000000   0.000000
    16  H    0.000000   0.000000   0.000000   0.955445   0.000000   0.000000
    17  H    0.000000   0.000000   0.000000   0.000000   0.956957   0.000000
    18  H    0.000000   0.000000   0.000000   0.000000   0.000000   0.955976
    19  C    0.000000   0.000000   0.000000   0.000000   0.000000   0.000000
    20  C    0.000000   0.000000   0.000000   0.000000   0.000000   0.000000
    21  H    0.000000   0.000000   0.000000   0.000000   0.000000   0.000000
    22  H    0.000000   0.000000   0.000000   0.000000   0.000000   0.000000
    23  H    0.000000   0.000000   0.000000   0.000000   0.000000   0.000000
    24  C    0.000000   0.000000   0.000000   0.000000   0.000000   0.000000
    25  H    0.000000   0.000000   0.000000   0.000000   0.000000   0.000000
    26  C    0.000000   0.000000   0.000000   0.000000   0.000000   0.000000
    27  H    0.000000   0.000000   0.000000   0.000000   0.000000   0.000000
    28  H    0.000000   0.000000   0.000000   0.000000   0.000000   0.000000
              19         20         21         22         23         24
     1  C    0.000000   0.000000   0.000000   0.000000   0.000000   0.000000
     2  H    0.000000   0.000000   0.000000   0.000000   0.000000   0.000000
     3  H    0.000000   0.000000   0.000000   0.000000   0.000000   0.000000
     4  C    0.000000   0.000000   0.000000   0.000000   0.000000   0.000000
     5  C    0.000000   0.000000   0.000000   0.000000   0.000000   0.000000
     6  H    0.000000   0.000000   0.000000   0.000000   0.000000   0.000000
     7  H    0.000000   0.000000   0.000000   0.000000   0.000000   0.000000
     8  H    0.000000   0.000000   0.000000   0.000000   0.000000   0.000000
     9  C    0.000000   0.000000   0.000000   0.000000   0.000000   0.000000
    10  H    0.000000   0.000000   0.000000   0.000000   0.000000   0.000000
    11  C    0.000000   0.000000   0.000000   0.000000   0.000000   0.000000
    12  H    0.000000   0.000000   0.000000   0.000000   0.000000   0.000000
    13  H    0.000000   0.000000   0.000000   0.000000   0.000000   0.000000
    14  H    0.000000   0.000000   0.000000   0.000000   0.000000   0.000000
    15  C    0.000000   0.000000   0.000000   0.000000   0.000000   0.000000
    16  H    0.000000   0.000000   0.000000   0.000000   0.000000   0.000000
    17  H    0.000000   0.000000   0.000000   0.000000   0.000000   0.000000
    18  H    0.000000   0.000000   0.000000   0.000000   0.000000   0.000000
    19  C    4.124288   0.000000   0.000000   0.000000   0.000000   0.000000
    20  C    0.000000   4.067770   0.000000   0.000000   0.000000   0.000000
    21  H    0.000000   0.000000   0.956623   0.000000   0.000000   0.000000
    22  H    0.000000   0.000000   0.000000   0.958583   0.000000   0.000000
    23  H    0.000000   0.000000   0.000000   0.000000   0.956549   0.000000
    24  C    0.000000   0.000000   0.000000   0.000000   0.000000   4.152487
    25  H    0.000000   0.000000   0.000000   0.000000   0.000000   0.000000
    26  C    0.000000   0.000000   0.000000   0.000000   0.000000   0.000000
    27  H    0.000000   0.000000   0.000000   0.000000   0.000000   0.000000
    28  H    0.000000   0.000000   0.000000   0.000000   0.000000   0.000000
              25         26         27         28
     1  C    0.000000   0.000000   0.000000   0.000000
     2  H    0.000000   0.000000   0.000000   0.000000
     3  H    0.000000   0.000000   0.000000   0.000000
     4  C    0.000000   0.000000   0.000000   0.000000
     5  C    0.000000   0.000000   0.000000   0.000000
     6  H    0.000000   0.000000   0.000000   0.000000
     7  H    0.000000   0.000000   0.000000   0.000000
     8  H    0.000000   0.000000   0.000000   0.000000
     9  C    0.000000   0.000000   0.000000   0.000000
    10  H    0.000000   0.000000   0.000000   0.000000
    11  C    0.000000   0.000000   0.000000   0.000000
    12  H    0.000000   0.000000   0.000000   0.000000
    13  H    0.000000   0.000000   0.000000   0.000000
    14  H    0.000000   0.000000   0.000000   0.000000
    15  C    0.000000   0.000000   0.000000   0.000000
    16  H    0.000000   0.000000   0.000000   0.000000
    17  H    0.000000   0.000000   0.000000   0.000000
    18  H    0.000000   0.000000   0.000000   0.000000
    19  C    0.000000   0.000000   0.000000   0.000000
    20  C    0.000000   0.000000   0.000000   0.000000
    21  H    0.000000   0.000000   0.000000   0.000000
    22  H    0.000000   0.000000   0.000000   0.000000
    23  H    0.000000   0.000000   0.000000   0.000000
    24  C    0.000000   0.000000   0.000000   0.000000
    25  H    0.901099   0.000000   0.000000   0.000000
    26  C    0.000000   4.049456   0.000000   0.000000
    27  H    0.000000   0.000000   0.950437   0.000000
    28  H    0.000000   0.000000   0.000000   0.948118
 Mulliken charges:
               1
     1  C   -0.045868
     2  H    0.047566
     3  H    0.056112
     4  C   -0.125189
     5  C   -0.067584
     6  H    0.042994
     7  H    0.045462
     8  H    0.039851
     9  C   -0.148394
    10  H    0.092402
    11  C   -0.069937
    12  H    0.042653
    13  H    0.042147
    14  H    0.047910
    15  C   -0.066334
    16  H    0.044555
    17  H    0.043043
    18  H    0.044024
    19  C   -0.124288
    20  C   -0.067770
    21  H    0.043377
    22  H    0.041417
    23  H    0.043451
    24  C   -0.152487
    25  H    0.098901
    26  C   -0.049456
    27  H    0.049563
    28  H    0.051882
 Sum of Mulliken charges =   0.00000
 Mulliken charges with hydrogens summed into heavy atoms:
               1
     1  C    0.057809
     4  C   -0.125189
     5  C    0.060724
     9  C   -0.055992
    11  C    0.062772
    15  C    0.065287
    19  C   -0.124288
    20  C    0.060475
    24  C   -0.053586
    26  C    0.051989
 Charge=              0.0000 electrons
 Dipole moment (field-independent basis, Debye):
    X=             -0.2284    Y=             -0.0353    Z=              0.1371  Tot=              0.2687
 N-N= 3.117250960085D+02 E-N=-5.058186687926D+02  KE=-7.900990714430D+01
 Leave Link  601 at Mon Jul 26 19:32:15 2021, MaxMem=   131072000 cpu:               0.0 elap:               0.0
 (Enter /opt/g16/l701.exe)
 ... and contract with generalized density number  0.
 Compute integral first derivatives.
 Leave Link  701 at Mon Jul 26 19:32:15 2021, MaxMem=   131072000 cpu:               0.1 elap:               0.1
 (Enter /opt/g16/l702.exe)
 L702 exits ... SP integral derivatives will be done elsewhere.
 Leave Link  702 at Mon Jul 26 19:32:15 2021, MaxMem=   131072000 cpu:               0.0 elap:               0.0
 (Enter /opt/g16/l703.exe)
 Integral derivatives from FoFJK, PRISM(SPDF).
 Compute integral first derivatives, UseDBF=F ICtDFT=           0.
 Calling FoFJK, ICntrl=      2127 FMM=F ISym2X=0 I1Cent= 0 IOpClX= 0 NMat=1 NMatS=1 NMatT=0.
 FoFJK:  IHMeth= 9 ICntrl=    2127 DoSepK=F KAlg= 0 I1Cent=           0 FoldK=F
 IRaf=         0 NMat=       1 IRICut=       1 DoRegI=T DoRafI=F ISym2E= 0 IDoP0=3 IntGTp=3.
 FoFCou: FMM=F IPFlag=           0 FMFlag=      100000 FMFlg1=         800
         NFxFlg=           0 DoJE=F BraDBF=F KetDBF=F FulRan=T
         wScrn=  0.000000 ICntrl=      2127 IOpCl=  0 I1Cent=           0 NGrid=           0
         NMat0=    1 NMatS0=      1 NMatT0=    0 NMatD0=    1 NMtDS0=    0 NMtDT0=    0
 Symmetry not used in FoFCou.
 Leave Link  703 at Mon Jul 26 19:32:15 2021, MaxMem=   131072000 cpu:               0.0 elap:               0.0
 (Enter /opt/g16/l716.exe)
 Dipole        =-8.98456185D-02-1.38765999D-02 5.39240406D-02
 ***** Axes restored to original set *****
 -------------------------------------------------------------------
 Center     Atomic                   Forces (Hartrees/Bohr)
 Number     Number              X              Y              Z
 -------------------------------------------------------------------
      1        6          -0.008119201    0.009943070    0.013715084
      2        1          -0.002452976   -0.007223904   -0.000227430
      3        1           0.001709700    0.007329470   -0.006332465
      4        6           0.005414171    0.000574811   -0.001812999
      5        6           0.007421572    0.009471333   -0.011272506
      6        1           0.000150375   -0.002154160    0.000001649
      7        1           0.001820547   -0.001140020    0.001647200
      8        1          -0.001625932    0.001037667    0.000436531
      9        6           0.013629911   -0.006193350   -0.002255424
     10        1          -0.005271129    0.001444449    0.001633513
     11        6          -0.007048666   -0.011785095    0.011332918
     12        1          -0.000890862    0.000379642   -0.002142463
     13        1           0.000149954    0.002307512    0.000469171
     14        1           0.003753207   -0.003295024   -0.000829135
     15        6          -0.010590220    0.007565103    0.009539183
     16        1           0.001866303   -0.000063946    0.000602184
     17        1           0.001188235    0.001776675   -0.001139709
     18        1          -0.002883063   -0.004180783    0.000904207
     19        6          -0.001806292   -0.003764550   -0.002801586
     20        6          -0.004586358   -0.014387706   -0.002598873
     21        1           0.001876377    0.000475243    0.000055328
     22        1          -0.001237147    0.000779246    0.001106751
     23        1           0.000943155    0.001109641   -0.001318485
     24        6           0.007365573   -0.006538588   -0.007964951
     25        1          -0.003475460    0.002982951    0.002504646
     26        6          -0.001624834    0.019217445   -0.005575724
     27        1           0.007948259   -0.003832621   -0.004470682
     28        1          -0.003625198   -0.001834509    0.006794070
 -------------------------------------------------------------------
 Cartesian Forces:  Max     0.019217445 RMS     0.005735306
 Leave Link  716 at Mon Jul 26 19:32:15 2021, MaxMem=   131072000 cpu:               0.0 elap:               0.0
 (Enter /opt/g16/l103.exe)

 GradGradGradGradGradGradGradGradGradGradGradGradGradGradGradGradGradGrad
 Berny optimization.
 FormGI is forming the generalized inverse of G from B-inverse, IUseBI=4.
 Internal  Forces:  Max     0.019807795 RMS     0.005142832
 Search for a local minimum.
 Step number   1 out of a maximum of  138
 All quantities printed in internal units (Hartrees-Bohrs-Radians)
 RMS Force = .51428D-02 SwitMx=.10000D-02 MixMth= 1
 Mixed Optimization -- RFO/linear search
 Second derivative matrix not updated -- first step.
 ITU=  0
     Eigenvalues ---    0.00293   0.00533   0.00658   0.00680   0.00688
     Eigenvalues ---    0.00722   0.00817   0.01200   0.01290   0.01567
     Eigenvalues ---    0.01639   0.02774   0.02785   0.03744   0.03947
     Eigenvalues ---    0.05331   0.05349   0.06983   0.07001   0.07081
     Eigenvalues ---    0.07091   0.07245   0.07301   0.07351   0.07510
     Eigenvalues ---    0.09521   0.09665   0.12946   0.13078   0.15999
     Eigenvalues ---    0.16000   0.16000   0.16000   0.16000   0.16000
     Eigenvalues ---    0.16000   0.16000   0.16000   0.16000   0.16000
     Eigenvalues ---    0.16000   0.16000   0.16000   0.21889   0.21905
     Eigenvalues ---    0.22000   0.22000   0.24989   0.24994   0.24997
     Eigenvalues ---    0.24999   0.28895   0.30595   0.31539   0.31707
     Eigenvalues ---    0.31765   0.32030   0.32782   0.33881   0.34029
     Eigenvalues ---    0.34181   0.34195   0.34213   0.34226   0.34246
     Eigenvalues ---    0.34249   0.34250   0.34252   0.34257   0.34265
     Eigenvalues ---    0.34319   0.34323   0.34559   0.34642   0.34753
     Eigenvalues ---    0.34841   0.55407   0.55584
 RFO step:  Lambda=-1.08362953D-02 EMin= 2.92548350D-03
 Linear search not attempted -- first point.
 Iteration  1 RMS(Cart)=  0.09678997 RMS(Int)=  0.00138155
 Iteration  2 RMS(Cart)=  0.00304118 RMS(Int)=  0.00010928
 Iteration  3 RMS(Cart)=  0.00000436 RMS(Int)=  0.00010926
 Iteration  4 RMS(Cart)=  0.00000000 RMS(Int)=  0.00010926
 ITry= 1 IFail=0 DXMaxC= 3.02D-01 DCOld= 1.00D+10 DXMaxT= 3.00D-01 DXLimC= 3.00D+00 Rises=F
 Variable       Old X    -DE/DX   Delta X   Delta X   Delta X     New X
                                 (Linear)    (Quad)   (Total)
    R1        2.07531   0.00747   0.00000   0.02138   0.02138   2.09669
    R2        2.07026   0.00878   0.00000   0.02489   0.02489   2.09515
    R3        2.86792  -0.01981   0.00000  -0.06253  -0.06253   2.80540
    R4        2.90222  -0.00934   0.00000  -0.03114  -0.03114   2.87107
    R5        2.84995  -0.01403   0.00000  -0.04300  -0.04300   2.80696
    R6        2.54772  -0.01932   0.00000  -0.03419  -0.03419   2.51353
    R7        2.06913   0.00190   0.00000   0.00537   0.00537   2.07449
    R8        2.06788   0.00247   0.00000   0.00698   0.00698   2.07486
    R9        2.06971   0.00197   0.00000   0.00559   0.00559   2.07530
   R10        2.05934   0.00567   0.00000   0.01577   0.01577   2.07511
   R11        2.82736  -0.01516   0.00000  -0.04477  -0.04477   2.78259
   R12        2.06795   0.00231   0.00000   0.00651   0.00651   2.07446
   R13        2.06907   0.00230   0.00000   0.00650   0.00650   2.07556
   R14        2.06259   0.00464   0.00000   0.01298   0.01298   2.07557
   R15        2.06886   0.00192   0.00000   0.00542   0.00542   2.07428
   R16        2.07003   0.00213   0.00000   0.00604   0.00604   2.07607
   R17        2.06397   0.00430   0.00000   0.01206   0.01206   2.07603
   R18        2.84089  -0.01514   0.00000  -0.04573  -0.04573   2.79515
   R19        2.84684  -0.01269   0.00000  -0.03870  -0.03870   2.80814
   R20        2.54617  -0.01877   0.00000  -0.03313  -0.03313   2.51304
   R21        2.06917   0.00169   0.00000   0.00480   0.00480   2.07396
   R22        2.06950   0.00183   0.00000   0.00519   0.00519   2.07470
   R23        2.06910   0.00177   0.00000   0.00501   0.00501   2.07410
   R24        2.06078   0.00518   0.00000   0.01444   0.01444   2.07522
   R25        2.84576  -0.01721   0.00000  -0.05238  -0.05238   2.79338
   R26        2.06898   0.00953   0.00000   0.02696   0.02696   2.09594
   R27        2.07281   0.00774   0.00000   0.02205   0.02205   2.09486
    A1        1.82600   0.00082   0.00000   0.02813   0.02803   1.85403
    A2        1.88487   0.00159   0.00000   0.00861   0.00884   1.89371
    A3        1.89176   0.00182   0.00000   0.01512   0.01511   1.90687
    A4        1.94365  -0.00014   0.00000  -0.01807  -0.01843   1.92522
    A5        1.91009   0.00220   0.00000   0.00444   0.00368   1.91377
    A6        1.99854  -0.00567   0.00000  -0.03162  -0.03190   1.96664
    A7        2.00780   0.00238   0.00000   0.00921   0.00919   2.01699
    A8        2.17723  -0.00588   0.00000  -0.02247  -0.02248   2.15475
    A9        2.09782   0.00350   0.00000   0.01350   0.01349   2.11131
   A10        1.92519   0.00055   0.00000   0.00259   0.00258   1.92777
   A11        1.93026  -0.00059   0.00000  -0.00491  -0.00492   1.92534
   A12        1.95928   0.00012   0.00000   0.00281   0.00280   1.96208
   A13        1.89552  -0.00081   0.00000  -0.00877  -0.00879   1.88674
   A14        1.87569   0.00021   0.00000   0.00397   0.00395   1.87964
   A15        1.87562   0.00051   0.00000   0.00417   0.00417   1.87979
   A16        2.06738   0.00509   0.00000   0.02169   0.02164   2.08903
   A17        2.23263  -0.01082   0.00000  -0.04682  -0.04687   2.18576
   A18        1.98304   0.00573   0.00000   0.02540   0.02536   2.00840
   A19        1.91523   0.00089   0.00000   0.00450   0.00445   1.91968
   A20        1.90978   0.00132   0.00000   0.00981   0.00981   1.91959
   A21        1.98669  -0.00305   0.00000  -0.01933  -0.01933   1.96737
   A22        1.88648  -0.00045   0.00000   0.00035   0.00030   1.88678
   A23        1.88881   0.00034   0.00000  -0.00179  -0.00183   1.88698
   A24        1.87401   0.00104   0.00000   0.00717   0.00722   1.88123
   A25        1.89062  -0.00059   0.00000  -0.00275  -0.00276   1.88785
   A26        1.88434   0.00080   0.00000   0.00089   0.00082   1.88516
   A27        1.92162   0.00066   0.00000   0.00208   0.00204   1.92366
   A28        1.86385   0.00211   0.00000   0.01561   0.01566   1.87950
   A29        1.92086   0.00077   0.00000   0.00666   0.00668   1.92754
   A30        1.97966  -0.00364   0.00000  -0.02167  -0.02169   1.95797
   A31        1.99493   0.00311   0.00000   0.01196   0.01193   2.00685
   A32        2.18448  -0.00598   0.00000  -0.02285  -0.02289   2.16159
   A33        2.10370   0.00287   0.00000   0.01108   0.01104   2.11474
   A34        1.92350   0.00030   0.00000   0.00104   0.00104   1.92454
   A35        1.96089   0.00013   0.00000   0.00230   0.00229   1.96318
   A36        1.92478   0.00027   0.00000   0.00077   0.00076   1.92554
   A37        1.87880   0.00011   0.00000   0.00228   0.00228   1.88108
   A38        1.89499  -0.00093   0.00000  -0.00850  -0.00850   1.88649
   A39        1.87887   0.00007   0.00000   0.00174   0.00173   1.88060
   A40        2.06603   0.00601   0.00000   0.02619   0.02616   2.09219
   A41        2.23223  -0.01185   0.00000  -0.05133  -0.05137   2.18086
   A42        1.98489   0.00585   0.00000   0.02527   0.02523   2.01012
   A43        1.97604  -0.00474   0.00000  -0.02595  -0.02608   1.94997
   A44        1.89733   0.00188   0.00000   0.00706   0.00681   1.90414
   A45        1.92502   0.00057   0.00000   0.00148   0.00143   1.92646
   A46        1.93762   0.00023   0.00000  -0.00797  -0.00806   1.92956
   A47        1.88830   0.00186   0.00000   0.00768   0.00765   1.89595
   A48        1.83435   0.00060   0.00000   0.02120   0.02115   1.85550
    D1        0.77078  -0.00033   0.00000   0.00977   0.00978   0.78056
    D2       -2.34292  -0.00062   0.00000  -0.00044  -0.00035  -2.34326
    D3        2.76630   0.00151   0.00000   0.03882   0.03849   2.80479
    D4       -0.34740   0.00121   0.00000   0.02861   0.02836  -0.31904
    D5       -1.33826  -0.00012   0.00000   0.00480   0.00499  -1.33327
    D6        1.83122  -0.00041   0.00000  -0.00542  -0.00514   1.82609
    D7        3.01943   0.00064   0.00000  -0.00059  -0.00050   3.01893
    D8        0.85748   0.00225   0.00000   0.02251   0.02265   0.88013
    D9       -1.14511   0.00016   0.00000  -0.00763  -0.00752  -1.15263
   D10        1.03772  -0.00243   0.00000  -0.04407  -0.04414   0.99358
   D11       -1.12423  -0.00082   0.00000  -0.02097  -0.02099  -1.14522
   D12       -3.12682  -0.00292   0.00000  -0.05111  -0.05116   3.10520
   D13       -1.15852   0.00028   0.00000   0.00067   0.00059  -1.15793
   D14        2.96272   0.00189   0.00000   0.02377   0.02373   2.98645
   D15        0.96013  -0.00020   0.00000  -0.00637  -0.00644   0.95369
   D16       -0.99941   0.00045   0.00000  -0.00165  -0.00171  -1.00112
   D17        1.09784  -0.00058   0.00000  -0.01409  -0.01416   1.08368
   D18       -3.09068  -0.00026   0.00000  -0.01030  -0.01038  -3.10106
   D19        2.11567   0.00057   0.00000   0.00744   0.00751   2.12318
   D20       -2.07027  -0.00047   0.00000  -0.00500  -0.00493  -2.07520
   D21        0.02440  -0.00015   0.00000  -0.00121  -0.00115   0.02324
   D22        3.11769   0.00022   0.00000   0.00437   0.00434   3.12203
   D23       -0.04241   0.00075   0.00000   0.02403   0.02401  -0.01840
   D24        0.00534  -0.00006   0.00000  -0.00623  -0.00621  -0.00087
   D25        3.12842   0.00046   0.00000   0.01343   0.01346  -3.14130
   D26        2.02672  -0.00071   0.00000  -0.00911  -0.00911   2.01760
   D27       -2.18931   0.00006   0.00000  -0.00013  -0.00009  -2.18939
   D28       -0.09279   0.00031   0.00000   0.00323   0.00320  -0.08959
   D29       -1.13263  -0.00020   0.00000   0.00977   0.00976  -1.12287
   D30        0.93453   0.00057   0.00000   0.01875   0.01879   0.95332
   D31        3.03104   0.00082   0.00000   0.02211   0.02207   3.05312
   D32        1.16169   0.00003   0.00000  -0.01203  -0.01199   1.14969
   D33       -1.99365   0.00042   0.00000   0.00358   0.00349  -1.99015
   D34       -0.92122  -0.00014   0.00000  -0.01410  -0.01406  -0.93528
   D35        2.20663   0.00025   0.00000   0.00151   0.00143   2.20806
   D36       -3.00794  -0.00097   0.00000  -0.02430  -0.02419  -3.03213
   D37        0.11991  -0.00057   0.00000  -0.00869  -0.00870   0.11121
   D38       -1.04153   0.00058   0.00000   0.01343   0.01354  -1.02799
   D39       -3.13665   0.00015   0.00000   0.00830   0.00840  -3.12825
   D40        1.05045  -0.00021   0.00000   0.00404   0.00414   1.05459
   D41        2.11310   0.00028   0.00000  -0.00109  -0.00119   2.11191
   D42        0.01798  -0.00015   0.00000  -0.00622  -0.00633   0.01165
   D43       -2.07811  -0.00051   0.00000  -0.01049  -0.01059  -2.08870
   D44       -3.11735  -0.00047   0.00000  -0.01218  -0.01210  -3.12945
   D45        0.03436  -0.00091   0.00000  -0.02920  -0.02916   0.00520
   D46        0.00971  -0.00005   0.00000   0.00433   0.00429   0.01399
   D47       -3.12177  -0.00049   0.00000  -0.01270  -0.01277  -3.13454
   D48       -1.79648  -0.00025   0.00000  -0.01103  -0.01114  -1.80761
   D49        0.34326  -0.00108   0.00000  -0.02675  -0.02666   0.31659
   D50        2.34753   0.00084   0.00000  -0.00120  -0.00122   2.34631
   D51        1.35484  -0.00068   0.00000  -0.02742  -0.02751   1.32733
   D52       -2.78861  -0.00151   0.00000  -0.04314  -0.04303  -2.83165
   D53       -0.78434   0.00041   0.00000  -0.01760  -0.01759  -0.80193
         Item               Value     Threshold  Converged?
 Maximum Force            0.019808     0.000450     NO 
 RMS     Force            0.005143     0.000300     NO 
 Maximum Displacement     0.301832     0.001800     NO 
 RMS     Displacement     0.095902     0.001200     NO 
 Predicted change in Energy=-5.696594D-03
 Lowest energy point so far.  Saving SCF results.
 GradGradGradGradGradGradGradGradGradGradGradGradGradGradGradGradGradGrad

 Leave Link  103 at Mon Jul 26 19:32:15 2021, MaxMem=   131072000 cpu:               0.0 elap:               0.0
 (Enter /opt/g16/l202.exe)
                          Input orientation:                          
 ---------------------------------------------------------------------
 Center     Atomic      Atomic             Coordinates (Angstroms)
 Number     Number       Type             X           Y           Z
 ---------------------------------------------------------------------
      1          6           0       -0.684976   -1.353063   -0.360572
      2          1           0       -0.897379   -2.410273   -0.621776
      3          1           0       -0.339383   -0.866477   -1.294933
      4          6           0       -1.942826   -0.723093    0.113608
      5          6           0       -2.744784   -1.531643    1.067262
      6          1           0       -3.002626   -2.502603    0.624697
      7          1           0       -2.172190   -1.716598    1.985663
      8          1           0       -3.682022   -1.035271    1.352302
      9          6           0       -2.359579    0.474698   -0.287376
     10          1           0       -3.310427    0.874115    0.089690
     11          6           0       -1.642463    1.353106   -1.226708
     12          1           0       -2.233520    1.485700   -2.142210
     13          1           0       -1.488877    2.341690   -0.773425
     14          1           0       -0.657885    0.957357   -1.510168
     15          6           0        2.957173   -0.095043   -0.373386
     16          1           0        3.905976   -0.234368    0.160682
     17          1           0        3.159620    0.480887   -1.286764
     18          1           0        2.589971   -1.084806   -0.677400
     19          6           0        1.988023    0.620885    0.484534
     20          6           0        2.356039    2.022736    0.812540
     21          1           0        3.324231    2.050822    1.328588
     22          1           0        1.616299    2.510238    1.460979
     23          1           0        2.441461    2.619099   -0.104908
     24          6           0        0.864661    0.078456    0.945299
     25          1           0        0.185244    0.674431    1.569124
     26          6           0        0.421744   -1.306501    0.679281
     27          1           0        1.272515   -1.927499    0.331852
     28          1           0        0.075982   -1.756782    1.631426
 ---------------------------------------------------------------------
                    Distance matrix (angstroms):
                    1          2          3          4          5
     1  C    0.000000
     2  H    1.109520   0.000000
     3  H    1.108707   1.774206   0.000000
     4  C    1.484552   2.116677   2.139059   0.000000
     5  C    2.512650   2.652875   3.436330   1.485377   0.000000
     6  H    2.768339   2.448323   3.668072   2.133317   1.097775
     7  H    2.801568   2.984136   3.852817   2.131725   1.097968
     8  H    3.466585   3.679925   4.267268   2.157920   1.098201
     9  C    2.479993   3.251601   2.625855   1.330103   2.451291
    10  H    3.472183   4.137172   3.711326   2.102851   2.657681
    11  C    2.998386   3.883827   2.574726   2.489431   3.846971
    12  H    3.691991   4.390398   3.136617   3.170486   4.434688
    13  H    3.803670   4.791035   3.447556   3.222700   4.468572
    14  H    2.580764   3.491064   1.863904   2.666765   4.146494
    15  C    3.853314   4.503284   3.508795   4.964031   6.054057
    16  H    4.753948   5.330949   4.532268   5.869374   6.836477
    17  H    4.359142   5.025958   3.749464   5.426377   6.667361
    18  H    3.301154   3.731161   3.001688   4.615493   5.630552
    19  C    3.428644   4.328671   3.285661   4.170785   5.231865
    20  C    4.692545   5.682742   4.478202   5.148624   6.222290
    21  H    5.523897   6.444167   5.368013   6.075581   7.052325
    22  H    4.851701   5.904902   4.777232   4.993717   5.959099
    23  H    5.061427   6.058844   4.615029   5.517243   6.745352
    24  C    2.481113   3.428452   2.713164   3.035816   3.954161
    25  H    2.931167   3.935418   3.294306   2.932624   3.701850
    26  C    1.519306   2.156652   2.161124   2.500309   3.198144
    27  H    2.154345   2.418867   2.523968   3.440443   4.103197
    28  H    2.170277   2.539961   3.086867   2.729079   2.885428
                    6          7          8          9         10
     6  H    0.000000
     7  H    1.777542   0.000000
     8  H    1.773147   1.773399   0.000000
     9  C    3.179577   3.162847   2.591795   0.000000
    10  H    3.432667   3.406185   2.319058   1.098101   0.000000
    11  C    4.488233   4.474709   4.063919   1.472481   2.178174
    12  H    4.914658   5.224731   4.545884   2.116229   2.552477
    13  H    5.264348   4.954714   4.553292   2.116607   2.493349
    14  H    4.693270   4.654459   4.616243   2.150336   3.098783
    15  C    6.504746   5.874089   6.923939   5.347884   6.358972
    16  H    7.286218   6.517029   7.722636   6.321448   7.301387
    17  H    7.108317   6.630680   7.488088   5.608955   6.626520
    18  H    5.914621   5.492654   6.592422   5.204058   6.264224
    19  C    5.889177   5.002459   5.970367   4.418016   5.319174
    20  C    7.016357   5.988631   6.789766   5.083630   5.826721
    21  H    7.826766   6.695958   7.655854   6.115652   6.851146
    22  H    6.867489   5.700358   6.376099   4.796642   5.369354
    23  H    7.510142   6.667423   7.278387   5.261344   6.013905
    24  C    4.660532   3.677912   4.698761   3.474510   4.335493
    25  H    4.598695   3.383492   4.233891   3.156360   3.801094
    26  C    3.627665   2.933140   4.167423   3.441345   4.362547
    27  H    4.323579   3.826953   5.136616   4.398421   5.376900
    28  H    3.323790   2.276264   3.836806   3.820113   4.557010
                   11         12         13         14         15
    11  C    0.000000
    12  H    1.097758   0.000000
    13  H    1.098341   1.777859   0.000000
    14  H    1.098345   1.777990   1.774745   0.000000
    15  C    4.897136   5.707082   5.085771   3.932996   0.000000
    16  H    5.935494   6.779038   6.050874   5.004075   1.097664
    17  H    4.881021   5.552242   5.033352   3.853605   1.098607
    18  H    4.915145   5.658554   5.327955   3.925875   1.098588
    19  C    4.079819   5.046693   4.078292   3.330597   1.479132
    20  C    4.538166   5.484797   4.171379   3.951423   2.500554
    21  H    5.628889   6.576807   5.260140   5.011133   2.763365
    22  H    4.379742   5.371569   3.829242   4.051057   3.456924
    23  H    4.420363   5.224045   3.996428   3.787095   2.775716
    24  C    3.553592   4.594755   3.689903   3.019922   2.479444
    25  H    3.408487   4.503618   3.327157   3.205145   3.471171
    26  C    3.868753   4.775733   4.366936   3.329315   3.000690
    27  H    4.657099   5.482991   5.203163   3.929615   2.587147
    28  H    4.559976   5.485236   5.002956   4.216008   3.883543
                   16         17         18         19         20
    16  H    0.000000
    17  H    1.778690   0.000000
    18  H    1.776935   1.774040   0.000000
    19  C    2.124825   2.128317   2.149841   0.000000
    20  C    2.814559   2.725824   3.454195   1.486004   0.000000
    21  H    2.631450   3.054810   3.794113   2.131337   1.097493
    22  H    3.803453   3.748359   4.294769   2.158999   1.097883
    23  H    3.218325   2.546465   3.750828   2.132113   1.097568
    24  C    3.156435   3.226592   2.638755   1.329841   2.453988
    25  H    4.080867   4.128010   3.731555   2.104571   2.665089
    26  C    3.682157   3.815239   2.567282   2.491179   3.852671
    27  H    3.135459   3.461416   1.861292   2.651326   4.124251
    28  H    4.376035   4.799147   3.478845   3.259534   4.489319
                   21         22         23         24         25
    21  H    0.000000
    22  H    1.773590   0.000000
    23  H    1.776832   1.773343   0.000000
    24  C    3.175945   2.597007   3.169243   0.000000
    25  H    3.435921   2.330193   3.416816   1.098158   0.000000
    26  C    4.485270   4.074986   4.483809   1.478191   2.184456
    27  H    4.585855   4.592018   4.714737   2.136942   3.079455
    28  H    5.014048   4.539723   5.268650   2.112080   2.434464
                   26         27         28
    26  C    0.000000
    27  H    1.109124   0.000000
[...]
    26  C    4.087932   5.030584   4.527618   3.621965   3.000223
    27  H    4.925438   5.801892   5.421377   4.284004   2.557017
    28  H    4.667851   5.601661   5.082747   4.416503   3.534173
                   16         17         18         19         20
    16  H    0.000000
    17  H    1.773302   0.000000
    18  H    1.777187   1.777919   0.000000
    19  C    2.136075   2.141191   2.154643   0.000000
    20  C    2.865403   2.720422   3.461021   1.487723   0.000000
    21  H    2.689463   3.013926   3.816137   2.137848   1.098492
    22  H    3.840931   3.756048   4.302761   2.163201   1.098019
    23  H    3.297634   2.560878   3.753538   2.138480   1.098646
    24  C    3.147901   3.263830   2.644452   1.339792   2.464045
    25  H    4.084145   4.168318   3.737291   2.118255   2.683498
    26  C    3.635057   3.856112   2.562191   2.500540   3.865592
    27  H    3.225686   3.335619   1.776239   2.646727   4.126412
    28  H    3.876330   4.534331   3.109442   3.091294   4.386634
                   21         22         23         24         25
    21  H    0.000000
    22  H    1.772413   0.000000
    23  H    1.772098   1.772273   0.000000
    24  C    3.197114   2.608358   3.178394   0.000000
    25  H    3.467164   2.352548   3.429386   1.098758   0.000000
    26  C    4.505852   4.093923   4.498493   1.485831   2.193323
    27  H    4.701076   4.608279   4.607507   2.144712   3.093630
    28  H    4.827783   4.562160   5.186078   2.125636   2.655109
                   26         27         28
    26  C    0.000000
    27  H    1.112903   0.000000
    28  H    1.115076   1.780673   0.000000
 Stoichiometry    C10H18
 Framework group  C1[X(C10H18)]
 Deg. of freedom    78
 Full point group                 C1      NOp   1
 RotChk:  IX=0 Diff= 3.25D-15
 Largest Abelian subgroup         C1      NOp   1
 Largest concise Abelian subgroup C1      NOp   1
                         Standard orientation:                         
 ---------------------------------------------------------------------
 Center     Atomic      Atomic             Coordinates (Angstroms)
 Number     Number       Type             X           Y           Z
 ---------------------------------------------------------------------
      1          6           0        1.004857   -0.669397    0.941393
      2          1           0        1.385337   -1.465817    1.611311
      3          1           0        0.824538    0.217370    1.588992
      4          6           0        2.060823   -0.366715   -0.074568
      5          6           0        2.469331   -1.516013   -0.927547
      6          1           0        3.096361   -2.214943   -0.358012
      7          1           0        1.575250   -2.068131   -1.265919
      8          1           0        3.033566   -1.207743   -1.816602
      9          6           0        2.622738    0.840406   -0.222437
     10          1           0        3.398787    0.988450   -0.984716
     11          6           0        2.281241    2.036470    0.577007
     12          1           0        3.172491    2.433120    1.080673
     13          1           0        1.882257    2.829383   -0.069509
     14          1           0        1.524755    1.823906    1.350598
     15          6           0       -3.270170   -0.793825    0.554420
     16          1           0       -3.899299   -1.344004   -0.157955
     17          1           0       -3.936123   -0.275142    1.256534
     18          1           0       -2.686743   -1.533464    1.127426
     19          6           0       -2.392302    0.169857   -0.158843
     20          6           0       -3.088792    1.336587   -0.764618
     21          1           0       -3.859479    1.002076   -1.472311
     22          1           0       -2.405540    2.002374   -1.308253
     23          1           0       -3.588209    1.934627    0.009949
     24          6           0       -1.065159    0.021635   -0.267299
     25          1           0       -0.465666    0.771764   -0.801326
     26          6           0       -0.299293   -1.121342    0.293722
     27          1           0       -0.919232   -1.679932    1.030069
     28          1           0       -0.072698   -1.839874   -0.528326
 ---------------------------------------------------------------------
 Rotational constants (GHZ):           2.0211151           0.6366468           0.5488579
 Leave Link  202 at Mon Jul 26 19:32:37 2021, MaxMem=   131072000 cpu:               0.0 elap:               0.0
 (Enter /opt/g16/l601.exe)
 Copying SCF densities to generalized density rwf, IOpCl= 0 IROHF=0.

 **********************************************************************

            Population analysis using the SCF density.

 **********************************************************************

 Orbital symmetries:
       Occupied  (A) (A) (A) (A) (A) (A) (A) (A) (A) (A) (A) (A)
                 (A) (A) (A) (A) (A) (A) (A) (A) (A) (A) (A) (A)
                 (A) (A) (A) (A) (A)
       Virtual   (A) (A) (A) (A) (A) (A) (A) (A) (A) (A) (A) (A)
                 (A) (A) (A) (A) (A) (A) (A) (A) (A) (A) (A) (A)
                 (A) (A) (A) (A) (A)
 The electronic state is 1-A.
 Alpha  occ. eigenvalues --   -1.47903  -1.35722  -1.17831  -1.10227  -1.01280
 Alpha  occ. eigenvalues --   -0.94897  -0.86876  -0.79492  -0.67049  -0.64123
 Alpha  occ. eigenvalues --   -0.61246  -0.59909  -0.57803  -0.56517  -0.55214
 Alpha  occ. eigenvalues --   -0.53680  -0.51063  -0.50316  -0.48455  -0.48256
 Alpha  occ. eigenvalues --   -0.47918  -0.47611  -0.47258  -0.46945  -0.45744
 Alpha  occ. eigenvalues --   -0.42773  -0.42397  -0.35103  -0.34030
 Alpha virt. eigenvalues --    0.03678   0.04295   0.12391   0.12449   0.13237
 Alpha virt. eigenvalues --    0.13579   0.13946   0.14237   0.14753   0.14953
 Alpha virt. eigenvalues --    0.15499   0.15819   0.15908   0.16093   0.16348
 Alpha virt. eigenvalues --    0.16442   0.16450   0.16640   0.16960   0.17077
 Alpha virt. eigenvalues --    0.17187   0.17251   0.17803   0.17921   0.18001
 Alpha virt. eigenvalues --    0.21126   0.21398   0.22490   0.22584
          Condensed to atoms (all electrons):
               1          2          3          4          5          6
     1  C    4.060988   0.000000   0.000000   0.000000   0.000000   0.000000
     2  H    0.000000   0.946340   0.000000   0.000000   0.000000   0.000000
     3  H    0.000000   0.000000   0.934235   0.000000   0.000000   0.000000
     4  C    0.000000   0.000000   0.000000   4.126687   0.000000   0.000000
     5  C    0.000000   0.000000   0.000000   0.000000   4.076920   0.000000
     6  H    0.000000   0.000000   0.000000   0.000000   0.000000   0.954900
     7  H    0.000000   0.000000   0.000000   0.000000   0.000000   0.000000
     8  H    0.000000   0.000000   0.000000   0.000000   0.000000   0.000000
     9  C    0.000000   0.000000   0.000000   0.000000   0.000000   0.000000
    10  H    0.000000   0.000000   0.000000   0.000000   0.000000   0.000000
    11  C    0.000000   0.000000   0.000000   0.000000   0.000000   0.000000
    12  H    0.000000   0.000000   0.000000   0.000000   0.000000   0.000000
    13  H    0.000000   0.000000   0.000000   0.000000   0.000000   0.000000
    14  H    0.000000   0.000000   0.000000   0.000000   0.000000   0.000000
    15  C    0.000000   0.000000   0.000000   0.000000   0.000000   0.000000
    16  H    0.000000   0.000000   0.000000   0.000000   0.000000   0.000000
    17  H    0.000000   0.000000   0.000000   0.000000   0.000000   0.000000
    18  H    0.000000   0.000000   0.000000   0.000000   0.000000   0.000000
    19  C    0.000000   0.000000   0.000000   0.000000   0.000000   0.000000
    20  C    0.000000   0.000000   0.000000   0.000000   0.000000   0.000000
    21  H    0.000000   0.000000   0.000000   0.000000   0.000000   0.000000
    22  H    0.000000   0.000000   0.000000   0.000000   0.000000   0.000000
    23  H    0.000000   0.000000   0.000000   0.000000   0.000000   0.000000
    24  C    0.000000   0.000000   0.000000   0.000000   0.000000   0.000000
    25  H    0.000000   0.000000   0.000000   0.000000   0.000000   0.000000
    26  C    0.000000   0.000000   0.000000   0.000000   0.000000   0.000000
    27  H    0.000000   0.000000   0.000000   0.000000   0.000000   0.000000
    28  H    0.000000   0.000000   0.000000   0.000000   0.000000   0.000000
               7          8          9         10         11         12
     1  C    0.000000   0.000000   0.000000   0.000000   0.000000   0.000000
     2  H    0.000000   0.000000   0.000000   0.000000   0.000000   0.000000
     3  H    0.000000   0.000000   0.000000   0.000000   0.000000   0.000000
     4  C    0.000000   0.000000   0.000000   0.000000   0.000000   0.000000
     5  C    0.000000   0.000000   0.000000   0.000000   0.000000   0.000000
     6  H    0.000000   0.000000   0.000000   0.000000   0.000000   0.000000
     7  H    0.949564   0.000000   0.000000   0.000000   0.000000   0.000000
     8  H    0.000000   0.956398   0.000000   0.000000   0.000000   0.000000
     9  C    0.000000   0.000000   4.151759   0.000000   0.000000   0.000000
    10  H    0.000000   0.000000   0.000000   0.902136   0.000000   0.000000
    11  C    0.000000   0.000000   0.000000   0.000000   4.079834   0.000000
    12  H    0.000000   0.000000   0.000000   0.000000   0.000000   0.955977
    13  H    0.000000   0.000000   0.000000   0.000000   0.000000   0.000000
    14  H    0.000000   0.000000   0.000000   0.000000   0.000000   0.000000
    15  C    0.000000   0.000000   0.000000   0.000000   0.000000   0.000000
    16  H    0.000000   0.000000   0.000000   0.000000   0.000000   0.000000
    17  H    0.000000   0.000000   0.000000   0.000000   0.000000   0.000000
    18  H    0.000000   0.000000   0.000000   0.000000   0.000000   0.000000
    19  C    0.000000   0.000000   0.000000   0.000000   0.000000   0.000000
    20  C    0.000000   0.000000   0.000000   0.000000   0.000000   0.000000
    21  H    0.000000   0.000000   0.000000   0.000000   0.000000   0.000000
    22  H    0.000000   0.000000   0.000000   0.000000   0.000000   0.000000
    23  H    0.000000   0.000000   0.000000   0.000000   0.000000   0.000000
    24  C    0.000000   0.000000   0.000000   0.000000   0.000000   0.000000
    25  H    0.000000   0.000000   0.000000   0.000000   0.000000   0.000000
    26  C    0.000000   0.000000   0.000000   0.000000   0.000000   0.000000
    27  H    0.000000   0.000000   0.000000   0.000000   0.000000   0.000000
    28  H    0.000000   0.000000   0.000000   0.000000   0.000000   0.000000
              13         14         15         16         17         18
     1  C    0.000000   0.000000   0.000000   0.000000   0.000000   0.000000
     2  H    0.000000   0.000000   0.000000   0.000000   0.000000   0.000000
     3  H    0.000000   0.000000   0.000000   0.000000   0.000000   0.000000
     4  C    0.000000   0.000000   0.000000   0.000000   0.000000   0.000000
     5  C    0.000000   0.000000   0.000000   0.000000   0.000000   0.000000
     6  H    0.000000   0.000000   0.000000   0.000000   0.000000   0.000000
     7  H    0.000000   0.000000   0.000000   0.000000   0.000000   0.000000
     8  H    0.000000   0.000000   0.000000   0.000000   0.000000   0.000000
     9  C    0.000000   0.000000   0.000000   0.000000   0.000000   0.000000
    10  H    0.000000   0.000000   0.000000   0.000000   0.000000   0.000000
    11  C    0.000000   0.000000   0.000000   0.000000   0.000000   0.000000
    12  H    0.000000   0.000000   0.000000   0.000000   0.000000   0.000000
    13  H    0.955367   0.000000   0.000000   0.000000   0.000000   0.000000
    14  H    0.000000   0.950279   0.000000   0.000000   0.000000   0.000000
    15  C    0.000000   0.000000   4.074991   0.000000   0.000000   0.000000
    16  H    0.000000   0.000000   0.000000   0.954077   0.000000   0.000000
    17  H    0.000000   0.000000   0.000000   0.000000   0.955292   0.000000
    18  H    0.000000   0.000000   0.000000   0.000000   0.000000   0.951592
    19  C    0.000000   0.000000   0.000000   0.000000   0.000000   0.000000
    20  C    0.000000   0.000000   0.000000   0.000000   0.000000   0.000000
    21  H    0.000000   0.000000   0.000000   0.000000   0.000000   0.000000
    22  H    0.000000   0.000000   0.000000   0.000000   0.000000   0.000000
    23  H    0.000000   0.000000   0.000000   0.000000   0.000000   0.000000
    24  C    0.000000   0.000000   0.000000   0.000000   0.000000   0.000000
    25  H    0.000000   0.000000   0.000000   0.000000   0.000000   0.000000
    26  C    0.000000   0.000000   0.000000   0.000000   0.000000   0.000000
    27  H    0.000000   0.000000   0.000000   0.000000   0.000000   0.000000
    28  H    0.000000   0.000000   0.000000   0.000000   0.000000   0.000000
              19         20         21         22         23         24
     1  C    0.000000   0.000000   0.000000   0.000000   0.000000   0.000000
     2  H    0.000000   0.000000   0.000000   0.000000   0.000000   0.000000
     3  H    0.000000   0.000000   0.000000   0.000000   0.000000   0.000000
     4  C    0.000000   0.000000   0.000000   0.000000   0.000000   0.000000
     5  C    0.000000   0.000000   0.000000   0.000000   0.000000   0.000000
     6  H    0.000000   0.000000   0.000000   0.000000   0.000000   0.000000
     7  H    0.000000   0.000000   0.000000   0.000000   0.000000   0.000000
     8  H    0.000000   0.000000   0.000000   0.000000   0.000000   0.000000
     9  C    0.000000   0.000000   0.000000   0.000000   0.000000   0.000000
    10  H    0.000000   0.000000   0.000000   0.000000   0.000000   0.000000
    11  C    0.000000   0.000000   0.000000   0.000000   0.000000   0.000000
    12  H    0.000000   0.000000   0.000000   0.000000   0.000000   0.000000
    13  H    0.000000   0.000000   0.000000   0.000000   0.000000   0.000000
    14  H    0.000000   0.000000   0.000000   0.000000   0.000000   0.000000
    15  C    0.000000   0.000000   0.000000   0.000000   0.000000   0.000000
    16  H    0.000000   0.000000   0.000000   0.000000   0.000000   0.000000
    17  H    0.000000   0.000000   0.000000   0.000000   0.000000   0.000000
    18  H    0.000000   0.000000   0.000000   0.000000   0.000000   0.000000
    19  C    4.128288   0.000000   0.000000   0.000000   0.000000   0.000000
    20  C    0.000000   4.067337   0.000000   0.000000   0.000000   0.000000
    21  H    0.000000   0.000000   0.957148   0.000000   0.000000   0.000000
    22  H    0.000000   0.000000   0.000000   0.958192   0.000000   0.000000
    23  H    0.000000   0.000000   0.000000   0.000000   0.956791   0.000000
    24  C    0.000000   0.000000   0.000000   0.000000   0.000000   4.155982
    25  H    0.000000   0.000000   0.000000   0.000000   0.000000   0.000000
    26  C    0.000000   0.000000   0.000000   0.000000   0.000000   0.000000
    27  H    0.000000   0.000000   0.000000   0.000000   0.000000   0.000000
    28  H    0.000000   0.000000   0.000000   0.000000   0.000000   0.000000
              25         26         27         28
     1  C    0.000000   0.000000   0.000000   0.000000
     2  H    0.000000   0.000000   0.000000   0.000000
     3  H    0.000000   0.000000   0.000000   0.000000
     4  C    0.000000   0.000000   0.000000   0.000000
     5  C    0.000000   0.000000   0.000000   0.000000
     6  H    0.000000   0.000000   0.000000   0.000000
     7  H    0.000000   0.000000   0.000000   0.000000
     8  H    0.000000   0.000000   0.000000   0.000000
     9  C    0.000000   0.000000   0.000000   0.000000
    10  H    0.000000   0.000000   0.000000   0.000000
    11  C    0.000000   0.000000   0.000000   0.000000
    12  H    0.000000   0.000000   0.000000   0.000000
    13  H    0.000000   0.000000   0.000000   0.000000
    14  H    0.000000   0.000000   0.000000   0.000000
    15  C    0.000000   0.000000   0.000000   0.000000
    16  H    0.000000   0.000000   0.000000   0.000000
    17  H    0.000000   0.000000   0.000000   0.000000
    18  H    0.000000   0.000000   0.000000   0.000000
    19  C    0.000000   0.000000   0.000000   0.000000
    20  C    0.000000   0.000000   0.000000   0.000000
    21  H    0.000000   0.000000   0.000000   0.000000
    22  H    0.000000   0.000000   0.000000   0.000000
    23  H    0.000000   0.000000   0.000000   0.000000
    24  C    0.000000   0.000000   0.000000   0.000000
    25  H    0.891598   0.000000   0.000000   0.000000
    26  C    0.000000   4.072174   0.000000   0.000000
    27  H    0.000000   0.000000   0.940034   0.000000
    28  H    0.000000   0.000000   0.000000   0.935119
 Mulliken charges:
               1
     1  C   -0.060988
     2  H    0.053660
     3  H    0.065765
     4  C   -0.126687
     5  C   -0.076920
     6  H    0.045100
     7  H    0.050436
     8  H    0.043602
     9  C   -0.151759
    10  H    0.097864
    11  C   -0.079834
    12  H    0.044023
    13  H    0.044633
    14  H    0.049721
    15  C   -0.074991
    16  H    0.045923
    17  H    0.044708
    18  H    0.048408
    19  C   -0.128288
    20  C   -0.067337
    21  H    0.042852
    22  H    0.041808
    23  H    0.043209
    24  C   -0.155982
    25  H    0.108402
    26  C   -0.072174
    27  H    0.059966
    28  H    0.064881
 Sum of Mulliken charges =   0.00000
 Mulliken charges with hydrogens summed into heavy atoms:
               1
     1  C    0.058437
     4  C   -0.126687
     5  C    0.062219
     9  C   -0.053895
    11  C    0.058543
    15  C    0.064048
    19  C   -0.128288
    20  C    0.060531
    24  C   -0.047581
    26  C    0.052673
 Charge=             -0.0000 electrons
 Dipole moment (field-independent basis, Debye):
    X=             -0.2247    Y=             -0.1560    Z=              0.1064  Tot=              0.2935
 N-N= 3.104064998920D+02 E-N=-5.029917281297D+02  KE=-7.912378340042D+01
 Leave Link  601 at Mon Jul 26 19:32:37 2021, MaxMem=   131072000 cpu:               0.0 elap:               0.0
 (Enter /opt/g16/l9999.exe)
 1\1\GINC-TOTEM\FOpt\RPM3\ZDO\C10H18\JRAMOS\26-Jul-2021\0\\#p opt pm3\\
 Conformer number 067. Energy MM = 23.486 kcal/mol\\0,1\C,-0.8053374732
 ,-1.0928181041,-0.6448688833\H,-0.9729922999,-2.1043313915,-1.06507438
 06\H,-0.6249991137,-0.4238497071,-1.5156244568\C,-2.0437473763,-0.6765
 559054,0.0844636403\C,-2.450893549,-1.5680617909,1.2046362751\H,-2.888
 0704644,-2.49817216,0.8175815602\H,-1.5671065853,-1.8394735436,1.80793
 45667\H,-3.1874047647,-1.1041788229,1.8725979782\C,-2.7600353498,0.410
 5128225,-0.2317114181\H,-3.6640433855,0.6511797028,0.3428203455\C,-2.4
 328890469,1.3510606032,-1.3247108881\H,-3.2681684802,1.427279023,-2.03
 31138548\H,-2.2428124468,2.3552909403,-0.92312077\H,-1.5385873995,1.04
 31609564,-1.8915613413\C,3.3303683858,-0.3949166569,0.2770609913\H,3.8
 922858168,-0.5957664109,1.1989543912\H,4.0384018411,-0.0088667505,-0.4
 680186926\H,2.9412317387,-1.357202075,-0.094917337\C,2.239199144,0.581
 0765156,0.5317494195\C,2.6835024116,1.973108521,0.8113238393\H,3.35950
 55519,1.9967159348,1.6768567921\H,1.8460287818,2.6500900256,1.02575006
 85\H,3.2312386902,2.3848151989,-0.0474571675\C,0.9391747567,0.25727813
 52,0.5201824397\H,0.1754172926,1.0243524172,0.7087063661\C,0.416715812
 9,-1.1103610267,0.2666230951\H,1.2117022334,-1.7546720127,-0.170884844
 3\H,0.1423152776,-1.5764944382,1.2417222654\\Version=ES64L-G16RevA.03\
 State=1-A\HF=-0.0276486\RMSD=3.900e-09\RMSF=2.691e-06\Dipole=0.1007337
 ,-0.0557653,-0.0089387\PG=C01 [X(C10H18)]\\@


 TRUTH, IN SCIENCE, CAN BE DEFINED AS THE WORKING HYPOTHESIS 
 BEST FITTED TO OPEN THE WAY TO THE NEXT BETTER ONE.

                              -- KONRAD LORENZ
 Job cpu time:       0 days  0 hours  0 minutes 15.5 seconds.
 Elapsed time:       0 days  0 hours  0 minutes 19.1 seconds.
 File lengths (MBytes):  RWF=      6 Int=      0 D2E=      0 Chk=      2 Scr=      1
 Normal termination of Gaussian 16 at Mon Jul 26 19:32:37 2021.
