 Copyright (c) 1988-2019, Gaussian, Inc.  All Rights Reserved.
  
 This is part of the Gaussian(R) 16 program.  It is based on
 the Gaussian(R) 09 system (copyright 2009, Gaussian, Inc.),
 the Gaussian(R) 03 system (copyright 2003, Gaussian, Inc.),
 the Gaussian(R) 98 system (copyright 1998, Gaussian, Inc.),
 the Gaussian(R) 94 system (copyright 1995, Gaussian, Inc.),
 the Gaussian 92(TM) system (copyright 1992, Gaussian, Inc.),
 the Gaussian 90(TM) system (copyright 1990, Gaussian, Inc.),
 the Gaussian 88(TM) system (copyright 1988, Gaussian, Inc.),
 the Gaussian 86(TM) system (copyright 1986, Carnegie Mellon
 University), and the Gaussian 82(TM) system (copyright 1983,
 Carnegie Mellon University). Gaussian is a federally registered
 trademark of Gaussian, Inc.
 Cite this work as:
 Gaussian 16, Revision C.01,
 M. J. Frisch, G. W. Trucks, H. B. Schlegel, G. E. Scuseria, 
 M. A. Robb, J. R. Cheeseman, G. Scalmani, V. Barone, 
 G. A. Petersson, H. Nakatsuji, X. Li, M. Caricato, A. V. Marenich, 
 J. Bloino, B. G. Janesko, R. Gomperts, B. Mennucci, H. P. Hratchian, 
 J. V. Ortiz, A. F. Izmaylov, J. L. Sonnenberg, D. Williams-Young, 
 F. Ding, F. Lipparini, F. Egidi, J. Goings, B. Peng, A. Petrone, 
 T. Henderson, D. Ranasinghe, V. G. Zakrzewski, J. Gao, N. Rega, 
 G. Zheng, W. Liang, M. Hada, M. Ehara, K. Toyota, R. Fukuda, 
 J. Hasegawa, M. Ishida, T. Nakajima, Y. Honda, O. Kitao, H. Nakai, 
 T. Vreven, K. Throssell, J. A. Montgomery, Jr., J. E. Peralta, 
 F. Ogliaro, M. J. Bearpark, J. J. Heyd, E. N. Brothers, K. N. Kudin, 
 V. N. Staroverov, T. A. Keith, R. Kobayashi, J. Normand, 
 K. Raghavachari, A. P. Rendell, J. C. Burant, S. S. Iyengar, 
 J. Tomasi, M. Cossi, J. M. Millam, M. Klene, C. Adamo, R. Cammi, 
 J. W. Ochterski, R. L. Martin, K. Morokuma, O. Farkas, 
 J. B. Foresman, and D. J. Fox, Gaussian, Inc., Wallingford CT, 2019.
 
 ******************************************
 Gaussian 16:  EM64L-G16RevC.01  3-Jul-2019
                 8-Jul-2023 
 ******************************************
 ----------------------------------------------------------------------
 #P HF/6-31G(d) Opt=(Tight,MaxCycle=55) GFInput GFPrint SCF(Conver=8,XQ
 C,MaxConventionalCycles=64,MaxCycle=128) Test
 ----------------------------------------------------------------------
 1/6=55,7=10,18=20,19=15,38=1/1,3;
 2/9=110,12=2,17=6,18=5,40=1/2;
 3/5=1,6=6,7=1,11=9,24=110,25=1,30=1,71=1/1,2,3;
 4//1;
 5/5=2,6=8,7=128,8=3,13=1,38=5,85=64/2,8;
 6/7=2,8=2,9=2,10=2,28=1/1;
 7//1,2,3,16;
 1/6=55,7=10,18=20,19=15/3(2);
 2/9=110/2;
 99//99;
 2/9=110/2;
 3/5=1,6=6,7=1,11=9,25=1,30=1,71=1/1,2,3;
 4/5=5,16=3,69=1/1;
 5/5=2,6=8,7=128,8=3,13=1,38=5,85=64/2,8;
 7//1,2,3,16;
 1/6=55,7=10,18=20,19=15/3(-5);
 2/9=110/2;
 6/7=2,8=2,9=2,10=2,19=2,28=1/1;
 99/9=1/99;
 ----------------------------------------------------------
 Optimization step - Input generated by PyRED DVE-DMDS-OPLS
 ----------------------------------------------------------
 Symbolic Z-matrix:
 Charge =  0 Multiplicity = 1
 C                     4.53392   5.2397    0.35937 
 H                     4.04973   5.36555  -0.6024 
 H                     4.06328   5.90826   1.07343 
 H                     5.57554   5.52157   0.25552 
 C                     4.42118   3.80168   0.82507 
 H                     4.89581   3.67815   1.79695 
 H                     3.37536   3.52372   0.93708 
 O                     5.05586   2.98291  -0.11897 
 C                     5.0254    1.60976   0.1397 
 H                     5.02619   1.40735   1.20779 
 H                     5.93415   1.18911  -0.27364 
 C                     3.80563   0.95835  -0.50293 
 H                     2.89725   1.37814  -0.08947 
 H                     3.80517   1.15919  -1.57057 
 O                     3.76938  -0.41923  -0.24811 
 C                     4.42824  -1.23681  -1.17282 
 H                     5.4991   -1.03876  -1.17716 
 H                     4.04812  -1.05325  -2.17462 
 C                     4.20008  -2.69066  -0.81309 
 H                     4.51121  -2.86801   0.21282 
 H                     4.81696  -3.30452  -1.46055 
 O                     2.8749   -3.08894  -1.01142 
 C                     2.03644  -3.04257   0.11114 
 H                     2.04773  -2.05564   0.55394 
 H                     2.37237  -3.75357   0.86222 
 C                     0.64131  -3.41377  -0.36423 
 H                     0.65079  -4.41864  -0.76654 
 H                     0.33612  -2.75261  -1.16457 
 S                    -0.59963  -3.41759   0.96351 
 C                    -0.96693  -1.64553   1.1699 
 H                    -1.42632  -1.5686    2.14701 
 H                    -0.04714  -1.0781    1.207 
 C                    -1.89593  -1.08586   0.09446 
 H                    -2.81449  -1.65644   0.05224 
 H                    -1.43302  -1.16125  -0.88092 
 S                    -2.27023   0.68445   0.30313 
 C                    -3.53276   0.66096   1.61255 
 H                    -3.53672   1.66245   2.02228 
 H                    -3.20475  -0.00363   2.40413 
 C                    -4.95104   0.27466   1.18739 
 H                    -4.96513  -0.67546   0.66736 
 H                    -5.54321   0.14517   2.08661 
 S                    -5.84378   1.50864   0.19251 
 C                    -5.56787   0.9433   -1.51755 
 H                    -4.51232   0.98219  -1.74261 
 H                    -5.89891  -0.0855   -1.59973 
 C                    -6.35418   1.82763  -2.48109 
 H                    -7.41777   1.78941  -2.27305 
 H                    -6.03233   2.86115  -2.4152 
 H                    -6.19658   1.49178  -3.50101 
 
 ITRead=  0  0  0  0  0  0  0  0  0  0  0  0  0  0  0  0  0  0  0  0
 ITRead=  0  0  0  0  0  0  0  0  0  0  0  0  0  0  0  0  0  0  0  0
 ITRead=  0  0  0  0  0  0  0  0  0  0
 MicOpt= -1 -1 -1 -1 -1 -1 -1 -1 -1 -1 -1 -1 -1 -1 -1 -1 -1 -1 -1 -1
 MicOpt= -1 -1 -1 -1 -1 -1 -1 -1 -1 -1 -1 -1 -1 -1 -1 -1 -1 -1 -1 -1
 MicOpt= -1 -1 -1 -1 -1 -1 -1 -1 -1 -1
 NAtoms=     50 NQM=       50 NQMF=       0 NMMI=      0 NMMIF=      0
                NMic=       0 NMicF=      0.
                          Input orientation:                          
 ---------------------------------------------------------------------
 Center     Atomic      Atomic             Coordinates (Angstroms)
 Number     Number       Type             X           Y           Z
 ---------------------------------------------------------------------
      1          6           0        4.533924    5.239699    0.359368
      2          1           0        4.049727    5.365548   -0.602402
      3          1           0        4.063277    5.908256    1.073430
      4          1           0        5.575535    5.521569    0.255517
      5          6           0        4.421183    3.801676    0.825071
      6          1           0        4.895813    3.678148    1.796948
      7          1           0        3.375362    3.523722    0.937076
      8          8           0        5.055860    2.982910   -0.118974
      9          6           0        5.025396    1.609761    0.139700
     10          1           0        5.026190    1.407353    1.207788
     11          1           0        5.934151    1.189108   -0.273640
     12          6           0        3.805628    0.958353   -0.502926
     13          1           0        2.897253    1.378142   -0.089470
     14          1           0        3.805173    1.159190   -1.570567
     15          8           0        3.769378   -0.419227   -0.248106
     16          6           0        4.428240   -1.236809   -1.172818
     17          1           0        5.499103   -1.038760   -1.177160
     18          1           0        4.048122   -1.053251   -2.174624
     19          6           0        4.200079   -2.690657   -0.813090
     20          1           0        4.511210   -2.868007    0.212822
     21          1           0        4.816964   -3.304518   -1.460549
     22          8           0        2.874895   -3.088945   -1.011416
     23          6           0        2.036439   -3.042573    0.111142
     24          1           0        2.047733   -2.055641    0.553943
     25          1           0        2.372365   -3.753565    0.862218
     26          6           0        0.641310   -3.413770   -0.364230
     27          1           0        0.650791   -4.418642   -0.766542
     28          1           0        0.336121   -2.752609   -1.164568
     29         16           0       -0.599628   -3.417590    0.963512
     30          6           0       -0.966929   -1.645532    1.169898
     31          1           0       -1.426323   -1.568601    2.147009
     32          1           0       -0.047138   -1.078100    1.207004
     33          6           0       -1.895927   -1.085860    0.094455
     34          1           0       -2.814485   -1.656439    0.052240
     35          1           0       -1.433015   -1.161246   -0.880924
     36         16           0       -2.270226    0.684447    0.303129
     37          6           0       -3.532760    0.660958    1.612549
     38          1           0       -3.536723    1.662454    2.022284
     39          1           0       -3.204752   -0.003633    2.404125
     40          6           0       -4.951044    0.274657    1.187393
     41          1           0       -4.965129   -0.675456    0.667358
     42          1           0       -5.543209    0.145167    2.086606
     43         16           0       -5.843784    1.508635    0.192511
     44          6           0       -5.567866    0.943304   -1.517550
     45          1           0       -4.512318    0.982186   -1.742608
     46          1           0       -5.898909   -0.085499   -1.599729
     47          6           0       -6.354183    1.827625   -2.481091
     48          1           0       -7.417773    1.789410   -2.273049
     49          1           0       -6.032326    2.861147   -2.415201
     50          1           0       -6.196576    1.491783   -3.501012
 ---------------------------------------------------------------------
 Stoichiometry    C14H30O3S3
 Framework group  C1[X(C14H30O3S3)]
                         Standard orientation:                         
 ---------------------------------------------------------------------
 Center     Atomic      Atomic             Coordinates (Angstroms)
 Number     Number       Type             X           Y           Z
 ---------------------------------------------------------------------
      1          6           0       -4.533924    5.239699   -0.359368
      2          1           0       -4.049727    5.365548    0.602402
      3          1           0       -4.063277    5.908256   -1.073430
      4          1           0       -5.575535    5.521569   -0.255517
      5          6           0       -4.421183    3.801676   -0.825071
      6          1           0       -4.895813    3.678148   -1.796948
      7          1           0       -3.375362    3.523722   -0.937076
      8          8           0       -5.055860    2.982910    0.118974
      9          6           0       -5.025396    1.609761   -0.139700
     10          1           0       -5.026190    1.407353   -1.207788
     11          1           0       -5.934151    1.189108    0.273640
     12          6           0       -3.805628    0.958353    0.502926
     13          1           0       -2.897253    1.378142    0.089470
     14          1           0       -3.805173    1.159190    1.570567
     15          8           0       -3.769378   -0.419227    0.248106
     16          6           0       -4.428240   -1.236809    1.172818
     17          1           0       -5.499103   -1.038760    1.177160
     18          1           0       -4.048122   -1.053251    2.174624
     19          6           0       -4.200079   -2.690657    0.813090
     20          1           0       -4.511210   -2.868007   -0.212822
     21          1           0       -4.816964   -3.304518    1.460549
     22          8           0       -2.874895   -3.088945    1.011416
     23          6           0       -2.036439   -3.042573   -0.111142
     24          1           0       -2.047733   -2.055641   -0.553943
     25          1           0       -2.372365   -3.753565   -0.862218
     26          6           0       -0.641310   -3.413770    0.364230
     27          1           0       -0.650791   -4.418642    0.766542
     28          1           0       -0.336121   -2.752609    1.164568
     29         16           0        0.599628   -3.417590   -0.963512
     30          6           0        0.966929   -1.645532   -1.169898
     31          1           0        1.426323   -1.568601   -2.147009
     32          1           0        0.047138   -1.078100   -1.207004
     33          6           0        1.895927   -1.085860   -0.094455
     34          1           0        2.814485   -1.656439   -0.052240
     35          1           0        1.433015   -1.161246    0.880924
     36         16           0        2.270226    0.684447   -0.303129
     37          6           0        3.532760    0.660958   -1.612549
     38          1           0        3.536723    1.662454   -2.022284
     39          1           0        3.204752   -0.003633   -2.404125
     40          6           0        4.951044    0.274657   -1.187393
     41          1           0        4.965129   -0.675456   -0.667358
     42          1           0        5.543209    0.145167   -2.086606
     43         16           0        5.843784    1.508635   -0.192511
     44          6           0        5.567866    0.943304    1.517550
     45          1           0        4.512318    0.982186    1.742608
     46          1           0        5.898909   -0.085499    1.599729
     47          6           0        6.354183    1.827625    2.481091
     48          1           0        7.417773    1.789410    2.273049
     49          1           0        6.032326    2.861147    2.415201
     50          1           0        6.196576    1.491783    3.501012
 ---------------------------------------------------------------------
 Standard basis: 6-31G(d) (6D, 7F)
   372 basis functions,   752 primitive gaussians,   372 cartesian basis functions
    93 alpha electrons       93 beta electrons
 Requested convergence on RMS density matrix=1.00D-08 within  64 cycles.
 Requested convergence on MAX density matrix=1.00D-06.
 Requested convergence on             energy=1.00D-06.
 SCF Done:  E(RHF) =  -1964.69168231     A.U. after   13 cycles
            NFock= 13  Conv=0.39D-08     -V/T= 2.0006
 Mulliken charges:
     1  C   -0.488615
     2  H    0.173862
     3  H    0.158226
     4  H    0.174987
     5  C    0.015752
     6  H    0.142804
     7  H    0.140102
     8  O   -0.631124
     9  C   -0.002195
    10  H    0.152513
    11  H    0.168231
    12  C   -0.005392
    13  H    0.174134
    14  H    0.158104
    15  O   -0.642702
    16  C    0.009450
    17  H    0.136747
    18  H    0.157834
    19  C    0.000072
    20  H    0.156203
    21  H    0.170080
    22  O   -0.638012
    23  C    0.025498
    24  H    0.179594
    25  H    0.153424
    26  C   -0.495247
    27  H    0.211524
    28  H    0.200983
    29  S    0.107185
    30  C   -0.475366
    31  H    0.200478
    32  H    0.214407
    33  C   -0.476550
    34  H    0.204554
    35  H    0.205407
    36  S    0.118413
    37  C   -0.470220
    38  H    0.217875
    39  H    0.191318
    40  C   -0.478260
    41  H    0.194640
    42  H    0.204545
    43  S    0.114721
    44  C   -0.460339
    45  H    0.218673
    46  H    0.179813
    47  C   -0.497538
    48  H    0.177976
    49  H    0.179769
    50  H    0.171661
 Sum of Mulliken charges =  -0.00000
 Dipole moment (field-independent basis, Debye):
    X=             -1.6316    Y=             -0.5130    Z=             -0.3541  Tot=              1.7466
 Quadrupole moment (field-independent basis, Debye-Ang):
   XX=           -150.0061   YY=           -158.8834   ZZ=           -143.1485
   XY=             -2.5613   XZ=              3.4476   YZ=             -4.6891
 Traceless Quadrupole moment (field-independent basis, Debye-Ang):
   XX=              0.6732   YY=             -8.2041   ZZ=              7.5309
   XY=             -2.5613   XZ=              3.4476   YZ=             -4.6891
 Octapole moment (field-independent basis, Debye-Ang**2):
  XXX=           -155.8028  YYY=             35.4323  ZZZ=              3.2068  XYY=            -44.8269
  XXY=            -93.8490  XXZ=             13.1909  XZZ=              8.4053  YZZ=             15.0269
  YYZ=             -1.4601  XYZ=             22.3410
 Hexadecapole moment (field-independent basis, Debye-Ang**3):
 XXXX=         -15072.7458 YYYY=          -5485.0203 ZZZZ=          -1094.4016 XXXY=             -0.6332
 XXXZ=            166.5693 YYYX=             -5.6106 YYYZ=           -109.4093 ZZZX=            -43.0204
 ZZZY=            -23.4554 XXYY=          -3452.4103 XXZZ=          -2422.0048 YYZZ=          -1119.9337
 XXYZ=            -47.6180 YYXZ=            106.6856 ZZXY=              3.3837
 Step number   1 out of a maximum of   55
     Eigenvalues ---    0.00230   0.00230   0.00230   0.00230   0.00230
     Eigenvalues ---    0.00230   0.00366   0.00404   0.00422   0.00437
     Eigenvalues ---    0.00502   0.00558   0.00568   0.01667   0.01671
     Eigenvalues ---    0.01673   0.01703   0.01720   0.01723   0.04182
     Eigenvalues ---    0.04187   0.04474   0.04487   0.04567   0.04983
     Eigenvalues ---    0.05010   0.05014   0.05045   0.05339   0.05386
     Eigenvalues ---    0.05515   0.05515   0.05640   0.05647   0.05671
     Eigenvalues ---    0.05686   0.05706   0.05743   0.05755   0.05768
     Eigenvalues ---    0.05810   0.05883   0.05899   0.05935   0.05968
     Eigenvalues ---    0.06068   0.06138   0.11042   0.11148   0.11280
     Eigenvalues ---    0.11288   0.11496   0.11583   0.11588   0.11597
     Eigenvalues ---    0.11623   0.11694   0.11800   0.11857   0.13595
     Eigenvalues ---    0.13612   0.13710   0.13773   0.13910   0.13925
     Eigenvalues ---    0.13936   0.13943   0.13950   0.14008   0.14122
     Eigenvalues ---    0.14142   0.16000   0.16000   0.16000   0.16000
     Eigenvalues ---    0.16000   0.16000   0.21957   0.21958   0.22014
     Eigenvalues ---    0.22015   0.22016   0.22017   0.22023   0.22025
     Eigenvalues ---    0.22036   0.22057   0.22073   0.22079   0.24450
     Eigenvalues ---    0.24497   0.24498   0.24661   0.24668   0.24795
     Eigenvalues ---    0.25000   0.25000   0.25000   0.25000   0.25000
     Eigenvalues ---    0.25000   0.29405   0.29668   0.29794   0.29905
     Eigenvalues ---    0.30374   0.30780   0.30856   0.34925   0.34973
     Eigenvalues ---    0.35055   0.35113   0.35149   0.35150   0.35206
     Eigenvalues ---    0.35236   0.35335   0.35362   0.35432   0.35458
     Eigenvalues ---    0.35463   0.35466   0.35471   0.35503   0.35508
     Eigenvalues ---    0.35531   0.35593   0.35609   0.35666   0.35699
     Eigenvalues ---    0.35699   0.35720   0.35733   0.35744   0.35749
     Eigenvalues ---    0.35781   0.35829   0.35997   0.45309   0.45360
     Eigenvalues ---    0.45386   0.45761   0.45973   0.46015
 Maximum Force            0.000001     0.000015     YES
 RMS     Force            0.000000     0.000010     YES
 Maximum Displacement     0.000928     0.000060     NO 
 RMS     Displacement     0.000193     0.000040     NO 
                          Input orientation:                          
 ---------------------------------------------------------------------
 Center     Atomic      Atomic             Coordinates (Angstroms)
 Number     Number       Type             X           Y           Z
 ---------------------------------------------------------------------
      1          6           0        4.534145    5.239668    0.359456
      2          1           0        4.049958    5.365533   -0.602317
      3          1           0        4.063509    5.908234    1.073517
      4          1           0        5.575763    5.521513    0.255613
      5          6           0        4.421366    3.801646    0.825152
      6          1           0        4.895985    3.678102    1.797032
      7          1           0        3.375537    3.523717    0.937146
      8          8           0        5.056029    2.982867   -0.118892
      9          6           0        5.025528    1.609717    0.139773
     10          1           0        5.026301    1.407305    1.207859
     11          1           0        5.934279    1.189040   -0.273556
     12          6           0        3.805753    0.958345   -0.502874
     13          1           0        2.897382    1.378154   -0.089432
     14          1           0        3.805324    1.159189   -1.570513
     15          8           0        3.769471   -0.419235   -0.248064
     16          6           0        4.428325   -1.236823   -1.172776
     17          1           0        5.499192   -1.038795   -1.177103
     18          1           0        4.048222   -1.053248   -2.174584
     19          6           0        4.200126   -2.690670   -0.813067
     20          1           0        4.511240   -2.868037    0.212847
     21          1           0        4.817002   -3.304543   -1.460524
     22          8           0        2.874934   -3.088919   -1.011412
     23          6           0        2.036459   -3.042521    0.111130
     24          1           0        2.047778   -2.055588    0.553929
     25          1           0        2.372349   -3.753522    0.862212
     26          6           0        0.641325   -3.413670   -0.364269
     27          1           0        0.650784   -4.418541   -0.766586
     28          1           0        0.336173   -2.752497   -1.164611
     29         16           0       -0.599642   -3.417453    0.963445
     30          6           0       -0.966970   -1.645391    1.169754
     31          1           0       -1.426347   -1.568416    2.146869
     32          1           0       -0.047186   -1.077945    1.206815
     33          6           0       -1.895993   -1.085782    0.094299
     34          1           0       -2.814538   -1.656383    0.052114
     35          1           0       -1.433087   -1.161192   -0.881080
     36         16           0       -2.270329    0.684524    0.302912
     37          6           0       -3.532763    0.661068    1.612429
     38          1           0       -3.536726    1.662587    2.022110
     39          1           0       -3.204675   -0.003469    2.404017
     40          6           0       -4.951069    0.274701    1.187407
     41          1           0       -4.965165   -0.675442    0.667426
     42          1           0       -5.543159    0.145242    2.086674
     43         16           0       -5.843929    1.508595    0.192529
     44          6           0       -5.568125    0.943184   -1.517523
     45          1           0       -4.512601    0.982134   -1.742681
     46          1           0       -5.899098   -0.085647   -1.599613
     47          6           0       -6.354599    1.827391   -2.481042
     48          1           0       -7.418166    1.789103   -2.272903
     49          1           0       -6.032817    2.860942   -2.415238
     50          1           0       -6.197056    1.491506   -3.500959
 ---------------------------------------------------------------------
 Stoichiometry    C14H30O3S3
 Framework group  C1[X(C14H30O3S3)]
                         Standard orientation:                         
 ---------------------------------------------------------------------
 Center     Atomic      Atomic             Coordinates (Angstroms)
 Number     Number       Type             X           Y           Z
 ---------------------------------------------------------------------
      1          6           0       -4.534190    5.239623   -0.359473
      2          1           0       -4.050005    5.365491    0.602300
      3          1           0       -4.063560    5.908192   -1.073534
      4          1           0       -5.575811    5.521460   -0.255631
      5          6           0       -4.421402    3.801601   -0.825169
      6          1           0       -4.896019    3.678054   -1.797050
      7          1           0       -3.375571    3.523679   -0.937163
      8          8           0       -5.056059    2.982818    0.118874
      9          6           0       -5.025549    1.609668   -0.139790
     10          1           0       -5.026320    1.407256   -1.207876
     11          1           0       -5.934296    1.188985    0.273539
     12          6           0       -3.805769    0.958305    0.502857
     13          1           0       -2.897401    1.378120    0.089415
     14          1           0       -3.805342    1.159149    1.570496
     15          8           0       -3.769478   -0.419275    0.248047
     16          6           0       -4.428326   -1.236868    1.172758
     17          1           0       -5.499194   -1.038846    1.177086
     18          1           0       -4.048224   -1.053289    2.174566
     19          6           0       -4.200117   -2.690713    0.813050
     20          1           0       -4.511230   -2.868082   -0.212865
     21          1           0       -4.816988   -3.304590    1.460506
     22          8           0       -2.874922   -3.088953    1.011395
     23          6           0       -2.036447   -3.042549   -0.111147
     24          1           0       -2.047773   -2.055616   -0.553946
     25          1           0       -2.372332   -3.753552   -0.862230
     26          6           0       -0.641311   -3.413689    0.364251
     27          1           0       -0.650762   -4.418559    0.766569
     28          1           0       -0.336163   -2.752513    1.164593
     29         16           0        0.599656   -3.417463   -0.963462
     30          6           0        0.966972   -1.645398   -1.169772
     31          1           0        1.426349   -1.568420   -2.146887
     32          1           0        0.047184   -1.077959   -1.206833
     33          6           0        1.895992   -1.085782   -0.094316
     34          1           0        2.814540   -1.656378   -0.052131
     35          1           0        1.433086   -1.161196    0.881063
     36         16           0        2.270315    0.684526   -0.302929
     37          6           0        3.532750    0.661079   -1.612446
     38          1           0        3.536705    1.662598   -2.022127
     39          1           0        3.204666   -0.003460   -2.404034
     40          6           0        4.951058    0.274721   -1.187424
     41          1           0        4.965160   -0.675421   -0.667443
     42          1           0        5.543148    0.145266   -2.086691
     43         16           0        5.843909    1.508621   -0.192547
     44          6           0        5.568110    0.943209    1.517506
     45          1           0        4.512585    0.982151    1.742664
     46          1           0        5.899089   -0.085620    1.599596
     47          6           0        6.354577    1.827421    2.481025
     48          1           0        7.418144    1.789141    2.272886
     49          1           0        6.032788    2.860970    2.415220
     50          1           0        6.197036    1.491535    3.500942
 ---------------------------------------------------------------------
 Standard basis: 6-31G(d) (6D, 7F)
   372 basis functions,   752 primitive gaussians,   372 cartesian basis functions
    93 alpha electrons       93 beta electrons
 Requested convergence on RMS density matrix=1.00D-08 within  64 cycles.
 Requested convergence on MAX density matrix=1.00D-06.
 Requested convergence on             energy=1.00D-06.
 SCF Done:  E(RHF) =  -1964.69168231     A.U. after    6 cycles
            NFock=  6  Conv=0.34D-08     -V/T= 2.0006
 Step number   2 out of a maximum of   55
     Eigenvalues ---    0.00202   0.00230   0.00230   0.00230   0.00230
     Eigenvalues ---    0.00365   0.00382   0.00418   0.00437   0.00480
     Eigenvalues ---    0.00503   0.00557   0.00576   0.01564   0.01668
     Eigenvalues ---    0.01671   0.01699   0.01704   0.01743   0.04018
     Eigenvalues ---    0.04190   0.04196   0.04503   0.04570   0.04981
     Eigenvalues ---    0.05013   0.05032   0.05201   0.05345   0.05399
     Eigenvalues ---    0.05514   0.05583   0.05643   0.05666   0.05682
     Eigenvalues ---    0.05704   0.05739   0.05744   0.05762   0.05781
     Eigenvalues ---    0.05836   0.05894   0.05899   0.05947   0.05969
     Eigenvalues ---    0.06072   0.06149   0.11041   0.11208   0.11254
     Eigenvalues ---    0.11288   0.11474   0.11566   0.11593   0.11596
     Eigenvalues ---    0.11620   0.11686   0.11800   0.11855   0.13328
     Eigenvalues ---    0.13613   0.13664   0.13711   0.13853   0.13920
     Eigenvalues ---    0.13930   0.13943   0.13952   0.14011   0.14116
     Eigenvalues ---    0.14215   0.15985   0.16000   0.16000   0.16000
     Eigenvalues ---    0.16000   0.16016   0.21089   0.21960   0.21962
     Eigenvalues ---    0.22015   0.22016   0.22018   0.22023   0.22028
     Eigenvalues ---    0.22047   0.22061   0.22077   0.22893   0.24342
     Eigenvalues ---    0.24472   0.24503   0.24546   0.24669   0.24695
     Eigenvalues ---    0.24833   0.25000   0.25000   0.25000   0.25000
     Eigenvalues ---    0.28274   0.29393   0.29605   0.29788   0.30006
     Eigenvalues ---    0.30642   0.30777   0.30937   0.34820   0.34927
     Eigenvalues ---    0.34990   0.35076   0.35138   0.35150   0.35210
     Eigenvalues ---    0.35228   0.35317   0.35348   0.35373   0.35442
     Eigenvalues ---    0.35459   0.35463   0.35495   0.35502   0.35507
     Eigenvalues ---    0.35524   0.35595   0.35611   0.35643   0.35689
     Eigenvalues ---    0.35699   0.35727   0.35741   0.35743   0.35766
     Eigenvalues ---    0.35788   0.35969   0.36127   0.45245   0.45332
     Eigenvalues ---    0.45503   0.45740   0.45961   0.46017
 Maximum Force            0.000002     0.000015     YES
 RMS     Force            0.000000     0.000010     YES
 Maximum Displacement     0.000988     0.000060     NO 
 RMS     Displacement     0.000193     0.000040     NO 
                          Input orientation:                          
 ---------------------------------------------------------------------
 Center     Atomic      Atomic             Coordinates (Angstroms)
 Number     Number       Type             X           Y           Z
 ---------------------------------------------------------------------
      1          6           0        4.533909    5.239685    0.359391
      2          1           0        4.049687    5.365534   -0.602367
      3          1           0        4.063279    5.908241    1.073465
      4          1           0        5.575516    5.521558    0.255512
      5          6           0        4.421185    3.801661    0.825094
      6          1           0        4.895838    3.678132    1.796959
      7          1           0        3.375367    3.523704    0.937122
      8          8           0        5.055838    2.982897   -0.118969
      9          6           0        5.025383    1.609746    0.139698
     10          1           0        5.026190    1.407337    1.207785
     11          1           0        5.934134    1.189093   -0.273654
     12          6           0        3.805609    0.958341   -0.502915
     13          1           0        2.897237    1.378124   -0.089450
     14          1           0        3.805148    1.159184   -1.570554
     15          8           0        3.769374   -0.419240   -0.248103
     16          6           0        4.428221   -1.236810   -1.172835
     17          1           0        5.499082   -1.038749   -1.177197
     18          1           0        4.048081   -1.053245   -2.174631
     19          6           0        4.200074   -2.690664   -0.813121
     20          1           0        4.511224   -2.868023    0.212784
     21          1           0        4.816947   -3.304520   -1.460596
     22          8           0        2.874888   -3.088949   -1.011428
     23          6           0        2.036440   -3.042571    0.111136
     24          1           0        2.047743   -2.055636    0.553931
     25          1           0        2.372368   -3.753560    0.862211
     26          6           0        0.641304   -3.413758   -0.364228
     27          1           0        0.650779   -4.418627   -0.766547
     28          1           0        0.336114   -2.752591   -1.164561
     29         16           0       -0.599631   -3.417569    0.963515
     30          6           0       -0.966919   -1.645508    1.169899
     31          1           0       -1.426292   -1.568559    2.147018
     32          1           0       -0.047120   -1.078087    1.206982
     33          6           0       -1.895927   -1.085832    0.094465
     34          1           0       -2.814485   -1.656409    0.052253
     35          1           0       -1.433018   -1.161213   -0.880915
     36         16           0       -2.270217    0.684476    0.303145
     37          6           0       -3.532759    0.660998    1.612557
     38          1           0       -3.536733    1.662501    2.022275
     39          1           0       -3.204752   -0.003576    2.404147
     40          6           0       -4.951039    0.274678    1.187404
     41          1           0       -4.965113   -0.675446    0.667390
     42          1           0       -5.543206    0.145201    2.086618
     43         16           0       -5.843790    1.508625    0.192497
     44          6           0       -5.567826    0.943291   -1.517555
     45          1           0       -4.512278    0.982219   -1.742602
     46          1           0       -5.898822   -0.085526   -1.599731
     47          6           0       -6.354173    1.827571   -2.481111
     48          1           0       -7.417763    1.789304   -2.273085
     49          1           0       -6.032368    2.861109   -2.415220
     50          1           0       -6.196533    1.491733   -3.501028
 ---------------------------------------------------------------------
 Stoichiometry    C14H30O3S3
 Framework group  C1[X(C14H30O3S3)]
                         Standard orientation:                         
 ---------------------------------------------------------------------
 Center     Atomic      Atomic             Coordinates (Angstroms)
 Number     Number       Type             X           Y           Z
 ---------------------------------------------------------------------
      1          6           0       -4.533902    5.239690   -0.359390
      2          1           0       -4.049680    5.365538    0.602368
      3          1           0       -4.063271    5.908245   -1.073464
      4          1           0       -5.575509    5.521565   -0.255512
      5          6           0       -4.421181    3.801666   -0.825093
      6          1           0       -4.895834    3.678138   -1.796958
      7          1           0       -3.375363    3.523707   -0.937122
      8          8           0       -5.055835    2.982903    0.118969
      9          6           0       -5.025382    1.609752   -0.139698
     10          1           0       -5.026190    1.407343   -1.207784
     11          1           0       -5.934133    1.189100    0.273654
     12          6           0       -3.805609    0.958345    0.502916
     13          1           0       -2.897236    1.378127    0.089451
     14          1           0       -3.805147    1.159188    1.570555
     15          8           0       -3.769376   -0.419236    0.248104
     16          6           0       -4.428225   -1.236805    1.172836
     17          1           0       -5.499085   -1.038743    1.177197
     18          1           0       -4.048084   -1.053241    2.174631
     19          6           0       -4.200080   -2.690659    0.813121
     20          1           0       -4.511229   -2.868018   -0.212784
     21          1           0       -4.816953   -3.304514    1.460596
     22          8           0       -2.874894   -3.088946    1.011429
     23          6           0       -2.036446   -3.042569   -0.111135
     24          1           0       -2.047748   -2.055635   -0.553931
     25          1           0       -2.372375   -3.753558   -0.862210
     26          6           0       -0.641310   -3.413759    0.364228
     27          1           0       -0.650787   -4.418628    0.766548
     28          1           0       -0.336119   -2.752593    1.164562
     29         16           0        0.599624   -3.417572   -0.963515
     30          6           0        0.966915   -1.645512   -1.169899
     31          1           0        1.426288   -1.568563   -2.147017
     32          1           0        0.047117   -1.078089   -1.206981
     33          6           0        1.895924   -1.085837   -0.094465
     34          1           0        2.814481   -1.656415   -0.052252
     35          1           0        1.433015   -1.161217    0.880916
     36         16           0        2.270216    0.684471   -0.303144
     37          6           0        3.532759    0.660990   -1.612556
     38          1           0        3.536734    1.662494   -2.022274
     39          1           0        3.204751   -0.003583   -2.404147
     40          6           0        4.951038    0.274669   -1.187404
     41          1           0        4.965110   -0.675456   -0.667389
     42          1           0        5.543205    0.145190   -2.086617
     43         16           0        5.843791    1.508614   -0.192496
     44          6           0        5.567827    0.943281    1.517556
     45          1           0        4.512278    0.982210    1.742602
     46          1           0        5.898821   -0.085537    1.599731
     47          6           0        6.354175    1.827559    2.481111
     48          1           0        7.417764    1.789290    2.273086
     49          1           0        6.032371    2.861098    2.415221
     50          1           0        6.196534    1.491722    3.501029
 ---------------------------------------------------------------------
 Standard basis: 6-31G(d) (6D, 7F)
   372 basis functions,   752 primitive gaussians,   372 cartesian basis functions
    93 alpha electrons       93 beta electrons
 Requested convergence on RMS density matrix=1.00D-08 within  64 cycles.
 Requested convergence on MAX density matrix=1.00D-06.
 Requested convergence on             energy=1.00D-06.
 SCF Done:  E(RHF) =  -1964.69168231     A.U. after    7 cycles
            NFock=  7  Conv=0.65D-08     -V/T= 2.0006
 Step number   3 out of a maximum of   55
     Eigenvalues ---    0.00221   0.00230   0.00230   0.00230   0.00234
     Eigenvalues ---    0.00365   0.00378   0.00419   0.00437   0.00496
     Eigenvalues ---    0.00557   0.00565   0.00634   0.01338   0.01669
     Eigenvalues ---    0.01671   0.01703   0.01706   0.01756   0.04017
     Eigenvalues ---    0.04193   0.04443   0.04543   0.04962   0.05011
     Eigenvalues ---    0.05030   0.05066   0.05296   0.05345   0.05439
     Eigenvalues ---    0.05512   0.05625   0.05648   0.05679   0.05683
     Eigenvalues ---    0.05705   0.05741   0.05752   0.05761   0.05789
     Eigenvalues ---    0.05854   0.05899   0.05939   0.05964   0.05975
     Eigenvalues ---    0.06088   0.06193   0.11034   0.11203   0.11288
     Eigenvalues ---    0.11330   0.11430   0.11563   0.11592   0.11603
     Eigenvalues ---    0.11624   0.11685   0.11800   0.11908   0.13370
     Eigenvalues ---    0.13613   0.13652   0.13711   0.13869   0.13925
     Eigenvalues ---    0.13930   0.13945   0.13966   0.14084   0.14143
     Eigenvalues ---    0.14381   0.15981   0.16000   0.16000   0.16000
     Eigenvalues ---    0.16002   0.16049   0.20184   0.21960   0.21971
     Eigenvalues ---    0.22016   0.22018   0.22019   0.22023   0.22028
     Eigenvalues ---    0.22053   0.22070   0.22692   0.23377   0.24367
     Eigenvalues ---    0.24465   0.24509   0.24573   0.24685   0.24711
     Eigenvalues ---    0.24843   0.25000   0.25000   0.25000   0.26913
     Eigenvalues ---    0.28281   0.29470   0.29682   0.29786   0.30132
     Eigenvalues ---    0.30742   0.30792   0.31107   0.34923   0.34958
     Eigenvalues ---    0.34999   0.35113   0.35148   0.35163   0.35208
     Eigenvalues ---    0.35310   0.35336   0.35352   0.35378   0.35458
     Eigenvalues ---    0.35463   0.35486   0.35502   0.35507   0.35514
     Eigenvalues ---    0.35572   0.35605   0.35639   0.35689   0.35699
     Eigenvalues ---    0.35706   0.35739   0.35742   0.35747   0.35785
     Eigenvalues ---    0.35908   0.36043   0.36810   0.45223   0.45329
     Eigenvalues ---    0.45612   0.45887   0.46009   0.46488
 Maximum Force            0.000001     0.000015     YES
 RMS     Force            0.000000     0.000010     YES
 Maximum Displacement     0.000335     0.000060     NO 
 RMS     Displacement     0.000064     0.000040     NO 
                          Input orientation:                          
 ---------------------------------------------------------------------
 Center     Atomic      Atomic             Coordinates (Angstroms)
 Number     Number       Type             X           Y           Z
 ---------------------------------------------------------------------
      1          6           0        4.533976    5.239684    0.359396
      2          1           0        4.049771    5.365532   -0.602371
      3          1           0        4.063340    5.908248    1.073458
      4          1           0        5.575588    5.521548    0.255533
      5          6           0        4.421231    3.801664    0.825106
      6          1           0        4.895866    3.678138    1.796980
      7          1           0        3.375409    3.523717    0.937119
      8          8           0        5.055894    2.982890   -0.118940
      9          6           0        5.025422    1.609741    0.139736
     10          1           0        5.026202    1.407338    1.207824
     11          1           0        5.934179    1.189079   -0.273592
     12          6           0        3.805658    0.958340   -0.502904
     13          1           0        2.897280    1.378131   -0.089461
     14          1           0        3.805222    1.159179   -1.570544
     15          8           0        3.769407   -0.419240   -0.248086
     16          6           0        4.428258   -1.236821   -1.172805
     17          1           0        5.499122   -1.038772   -1.177153
     18          1           0        4.048134   -1.053258   -2.174607
     19          6           0        4.200092   -2.690671   -0.813086
     20          1           0        4.511223   -2.868029    0.212825
     21          1           0        4.816970   -3.304534   -1.460548
     22          8           0        2.874906   -3.088948   -1.011414
     23          6           0        2.036438   -3.042559    0.111135
     24          1           0        2.047740   -2.055623    0.553928
     25          1           0        2.372348   -3.753549    0.862219
     26          6           0        0.641309   -3.413739   -0.364251
     27          1           0        0.650786   -4.418609   -0.766570
     28          1           0        0.336137   -2.752572   -1.164591
     29         16           0       -0.599647   -3.417544    0.963471
     30          6           0       -0.966935   -1.645481    1.169839
     31          1           0       -1.426313   -1.568524    2.146955
     32          1           0       -0.047136   -1.078060    1.206921
     33          6           0       -1.895938   -1.085813    0.094397
     34          1           0       -2.814493   -1.656395    0.052182
     35          1           0       -1.433024   -1.161196   -0.880981
     36         16           0       -2.270238    0.684493    0.303070
     37          6           0       -3.532745    0.661015    1.612516
     38          1           0       -3.536714    1.662522    2.022225
     39          1           0       -3.204711   -0.003551    2.404102
     40          6           0       -4.951034    0.274682    1.187406
     41          1           0       -4.965118   -0.675446    0.667399
     42          1           0       -5.543173    0.145208    2.086638
     43         16           0       -5.843826    1.508615    0.192517
     44          6           0       -5.567920    0.943269   -1.517540
     45          1           0       -4.512381    0.982211   -1.742629
     46          1           0       -5.898903   -0.085554   -1.599692
     47          6           0       -6.354319    1.827526   -2.481074
     48          1           0       -7.417900    1.789241   -2.273009
     49          1           0       -6.032529    2.861071   -2.415204
     50          1           0       -6.196710    1.491683   -3.500995
 ---------------------------------------------------------------------
 Stoichiometry    C14H30O3S3
 Framework group  C1[X(C14H30O3S3)]
                         Standard orientation:                         
 ---------------------------------------------------------------------
 Center     Atomic      Atomic             Coordinates (Angstroms)
 Number     Number       Type             X           Y           Z
 ---------------------------------------------------------------------
      1          6           0       -4.533982    5.239677   -0.359401
      2          1           0       -4.049778    5.365525    0.602365
      3          1           0       -4.063347    5.908241   -1.073464
      4          1           0       -5.575594    5.521539   -0.255539
      5          6           0       -4.421237    3.801657   -0.825111
      6          1           0       -4.895872    3.678130   -1.796985
      7          1           0       -3.375414    3.523710   -0.937124
      8          8           0       -5.055899    2.982882    0.118935
      9          6           0       -5.025426    1.609733   -0.139741
     10          1           0       -5.026206    1.407330   -1.207829
     11          1           0       -5.934183    1.189071    0.273587
     12          6           0       -3.805662    0.958333    0.502899
     13          1           0       -2.897284    1.378125    0.089455
     14          1           0       -3.805226    1.159172    1.570538
     15          8           0       -3.769409   -0.419247    0.248081
     16          6           0       -4.428261   -1.236828    1.172799
     17          1           0       -5.499124   -1.038780    1.177147
     18          1           0       -4.048137   -1.053265    2.174602
     19          6           0       -4.200093   -2.690678    0.813080
     20          1           0       -4.511224   -2.868036   -0.212831
     21          1           0       -4.816971   -3.304542    1.460543
     22          8           0       -2.874907   -3.088954    1.011409
     23          6           0       -2.036439   -3.042565   -0.111141
     24          1           0       -2.047742   -2.055629   -0.553934
     25          1           0       -2.372349   -3.753555   -0.862224
     26          6           0       -0.641310   -3.413744    0.364246
     27          1           0       -0.650786   -4.418614    0.766564
     28          1           0       -0.336138   -2.752576    1.164585
     29         16           0        0.599646   -3.417548   -0.963477
     30          6           0        0.966933   -1.645485   -1.169845
     31          1           0        1.426311   -1.568528   -2.146960
     32          1           0        0.047134   -1.078064   -1.206927
     33          6           0        1.895936   -1.085816   -0.094402
     34          1           0        2.814491   -1.656398   -0.052187
     35          1           0        1.433022   -1.161200    0.880975
     36         16           0        2.270235    0.684490   -0.303075
     37          6           0        3.532742    0.661013   -1.612521
     38          1           0        3.536710    1.662520   -2.022231
     39          1           0        3.204708   -0.003553   -2.404108
     40          6           0        4.951031    0.274681   -1.187411
     41          1           0        4.965115   -0.675448   -0.667405
     42          1           0        5.543170    0.145207   -2.086643
     43         16           0        5.843822    1.508615   -0.192522
     44          6           0        5.567916    0.943268    1.517535
     45          1           0        4.512377    0.982209    1.742624
     46          1           0        5.898900   -0.085555    1.599687
     47          6           0        6.354314    1.827526    2.481069
     48          1           0        7.417896    1.789241    2.273003
     49          1           0        6.032525    2.861070    2.415198
     50          1           0        6.196706    1.491683    3.500989
 ---------------------------------------------------------------------
 Standard basis: 6-31G(d) (6D, 7F)
   372 basis functions,   752 primitive gaussians,   372 cartesian basis functions
    93 alpha electrons       93 beta electrons
 Requested convergence on RMS density matrix=1.00D-08 within  64 cycles.
 Requested convergence on MAX density matrix=1.00D-06.
 Requested convergence on             energy=1.00D-06.
 SCF Done:  E(RHF) =  -1964.69168231     A.U. after    4 cycles
            NFock=  4  Conv=0.57D-08     -V/T= 2.0006
 Step number   4 out of a maximum of   55
     Eigenvalues ---    0.00154   0.00228   0.00230   0.00230   0.00278
     Eigenvalues ---    0.00365   0.00400   0.00427   0.00437   0.00493
     Eigenvalues ---    0.00557   0.00572   0.00825   0.01203   0.01670
     Eigenvalues ---    0.01685   0.01703   0.01709   0.01739   0.04152
     Eigenvalues ---    0.04273   0.04473   0.04649   0.04966   0.05013
     Eigenvalues ---    0.05030   0.05253   0.05306   0.05352   0.05434
     Eigenvalues ---    0.05517   0.05642   0.05657   0.05679   0.05686
     Eigenvalues ---    0.05714   0.05741   0.05754   0.05764   0.05778
     Eigenvalues ---    0.05835   0.05892   0.05901   0.05948   0.05971
     Eigenvalues ---    0.06075   0.06147   0.11039   0.11227   0.11289
     Eigenvalues ---    0.11301   0.11471   0.11579   0.11594   0.11613
     Eigenvalues ---    0.11626   0.11710   0.11803   0.11896   0.13600
     Eigenvalues ---    0.13644   0.13705   0.13729   0.13884   0.13929
     Eigenvalues ---    0.13932   0.13948   0.14020   0.14124   0.14192
     Eigenvalues ---    0.14221   0.15986   0.16000   0.16000   0.16000
     Eigenvalues ---    0.16004   0.16024   0.20984   0.21960   0.21979
     Eigenvalues ---    0.22016   0.22018   0.22023   0.22025   0.22039
     Eigenvalues ---    0.22069   0.22271   0.22866   0.23826   0.24412
     Eigenvalues ---    0.24462   0.24510   0.24570   0.24684   0.24816
     Eigenvalues ---    0.24921   0.25000   0.25000   0.25154   0.27123
     Eigenvalues ---    0.28955   0.29575   0.29709   0.29789   0.30190
     Eigenvalues ---    0.30611   0.30791   0.31498   0.34924   0.34978
     Eigenvalues ---    0.35041   0.35136   0.35148   0.35172   0.35208
     Eigenvalues ---    0.35286   0.35338   0.35363   0.35441   0.35458
     Eigenvalues ---    0.35474   0.35487   0.35502   0.35508   0.35528
     Eigenvalues ---    0.35571   0.35606   0.35670   0.35699   0.35709
     Eigenvalues ---    0.35740   0.35742   0.35744   0.35759   0.35822
     Eigenvalues ---    0.35853   0.36072   0.36224   0.45327   0.45417
     Eigenvalues ---    0.45509   0.45812   0.46011   0.46042
 Maximum Force            0.000000     0.000015     YES
 RMS     Force            0.000000     0.000010     YES
 Maximum Displacement     0.000198     0.000060     NO 
 RMS     Displacement     0.000054     0.000040     NO 
                          Input orientation:                          
 ---------------------------------------------------------------------
 Center     Atomic      Atomic             Coordinates (Angstroms)
 Number     Number       Type             X           Y           Z
 ---------------------------------------------------------------------
      1          6           0        4.534045    5.239689    0.359391
      2          1           0        4.049821    5.365538   -0.602366
      3          1           0        4.063430    5.908259    1.073461
      4          1           0        5.575657    5.521544    0.255505
      5          6           0        4.421298    3.801672    0.825108
      6          1           0        4.895951    3.678144    1.796973
      7          1           0        3.375475    3.523733    0.937142
      8          8           0        5.055936    2.982890   -0.118948
      9          6           0        5.025455    1.609742    0.139732
     10          1           0        5.026236    1.407340    1.207821
     11          1           0        5.934208    1.189073   -0.273596
     12          6           0        3.805686    0.958348   -0.502906
     13          1           0        2.897311    1.378144   -0.089459
     14          1           0        3.805248    1.159191   -1.570545
     15          8           0        3.769428   -0.419232   -0.248092
     16          6           0        4.428249   -1.236816   -1.172831
     17          1           0        5.499114   -1.038778   -1.177205
     18          1           0        4.048101   -1.053247   -2.174623
     19          6           0        4.200076   -2.690666   -0.813112
     20          1           0        4.511228   -2.868032    0.212792
     21          1           0        4.816936   -3.304530   -1.460591
     22          8           0        2.874884   -3.088934   -1.011415
     23          6           0        2.036436   -3.042539    0.111149
     24          1           0        2.047756   -2.055606    0.553947
     25          1           0        2.372351   -3.753537    0.862223
     26          6           0        0.641296   -3.413704   -0.364218
     27          1           0        0.650760   -4.418568   -0.766550
     28          1           0        0.336115   -2.752524   -1.164544
     29         16           0       -0.599638   -3.417518    0.963525
     30          6           0       -0.966953   -1.645459    1.169877
     31          1           0       -1.426343   -1.568500    2.146986
     32          1           0       -0.047162   -1.078025    1.206965
     33          6           0       -1.895950   -1.085813    0.094417
     34          1           0       -2.814489   -1.656418    0.052182
     35          1           0       -1.433014   -1.161181   -0.880951
     36         16           0       -2.270299    0.684483    0.303088
     37          6           0       -3.532819    0.660972    1.612520
     38          1           0       -3.536805    1.662476    2.022238
     39          1           0       -3.204783   -0.003595    2.404104
     40          6           0       -4.951098    0.274624    1.187394
     41          1           0       -4.965165   -0.675502    0.667381
     42          1           0       -5.543243    0.145135    2.086620
     43         16           0       -5.843902    1.508551    0.192510
     44          6           0       -5.567903    0.943278   -1.517557
     45          1           0       -4.512360    0.982301   -1.742613
     46          1           0       -5.898810   -0.085566   -1.599751
     47          6           0       -6.354335    1.827510   -2.481086
     48          1           0       -7.417921    1.789136   -2.273059
     49          1           0       -6.032627    2.861077   -2.415167
     50          1           0       -6.196665    1.491717   -3.501014
 ---------------------------------------------------------------------
 Stoichiometry    C14H30O3S3
 Framework group  C1[X(C14H30O3S3)]
                         Standard orientation:                         
 ---------------------------------------------------------------------
 Center     Atomic      Atomic             Coordinates (Angstroms)
 Number     Number       Type             X           Y           Z
 ---------------------------------------------------------------------
      1          6           0       -4.534108    5.239643   -0.359391
      2          1           0       -4.049885    5.365497    0.602365
      3          1           0       -4.063499    5.908218   -1.073462
      4          1           0       -5.575723    5.521488   -0.255506
      5          6           0       -4.421347    3.801627   -0.825108
      6          1           0       -4.895999    3.678095   -1.796973
      7          1           0       -3.375521    3.523698   -0.937143
      8          8           0       -5.055977    2.982839    0.118947
      9          6           0       -5.025482    1.609692   -0.139733
     10          1           0       -5.026261    1.407290   -1.207821
     11          1           0       -5.934232    1.189014    0.273596
     12          6           0       -3.805708    0.958310    0.502906
     13          1           0       -2.897337    1.378114    0.089458
     14          1           0       -3.805271    1.159153    1.570545
     15          8           0       -3.769436   -0.419270    0.248092
     16          6           0       -4.428249   -1.236861    1.172830
     17          1           0       -5.499116   -1.038833    1.177205
     18          1           0       -4.048103   -1.053288    2.174622
     19          6           0       -4.200062   -2.690708    0.813111
     20          1           0       -4.511212   -2.868078   -0.212792
     21          1           0       -4.816915   -3.304578    1.460590
     22          8           0       -2.874866   -3.088963    1.011415
     23          6           0       -2.036419   -3.042560   -0.111150
     24          1           0       -2.047748   -2.055628   -0.553947
     25          1           0       -2.372326   -3.753561   -0.862224
     26          6           0       -0.641275   -3.413711    0.364217
     27          1           0       -0.650729   -4.418576    0.766549
     28          1           0       -0.336100   -2.752529    1.164543
     29         16           0        0.599659   -3.417514   -0.963525
     30          6           0        0.966957   -1.645451   -1.169877
     31          1           0        1.426346   -1.568488   -2.146986
     32          1           0        0.047161   -1.078026   -1.206965
     33          6           0        1.895949   -1.085796   -0.094418
     34          1           0        2.814493   -1.656393   -0.052183
     35          1           0        1.433013   -1.161168    0.880950
     36         16           0        2.270280    0.684504   -0.303089
     37          6           0        3.532800    0.661005   -1.612521
     38          1           0        3.536776    1.662509   -2.022238
     39          1           0        3.204771   -0.003565   -2.404105
     40          6           0        4.951083    0.274670   -1.187394
     41          1           0        4.965159   -0.675455   -0.667381
     42          1           0        5.543230    0.145187   -2.086621
     43         16           0        5.843876    1.508606   -0.192510
     44          6           0        5.567881    0.943331    1.517556
     45          1           0        4.512338    0.982344    1.742612
     46          1           0        5.898799   -0.085510    1.599751
     47          6           0        6.354305    1.827571    2.481086
     48          1           0        7.417891    1.789207    2.273059
     49          1           0        6.032587    2.861134    2.415167
     50          1           0        6.196638    1.491775    3.501013
 ---------------------------------------------------------------------
 Standard basis: 6-31G(d) (6D, 7F)
   372 basis functions,   752 primitive gaussians,   372 cartesian basis functions
    93 alpha electrons       93 beta electrons
 Requested convergence on RMS density matrix=1.00D-08 within  64 cycles.
 Requested convergence on MAX density matrix=1.00D-06.
 Requested convergence on             energy=1.00D-06.
 SCF Done:  E(RHF) =  -1964.69168231     A.U. after    4 cycles
            NFock=  4  Conv=0.66D-08     -V/T= 2.0006
 Step number   5 out of a maximum of   55
     Eigenvalues ---    0.00140   0.00229   0.00230   0.00254   0.00327
     Eigenvalues ---    0.00365   0.00414   0.00436   0.00491   0.00550
     Eigenvalues ---    0.00558   0.00578   0.00863   0.01101   0.01673
     Eigenvalues ---    0.01689   0.01706   0.01722   0.01803   0.04111
     Eigenvalues ---    0.04276   0.04552   0.04789   0.04926   0.04990
     Eigenvalues ---    0.05026   0.05064   0.05351   0.05362   0.05429
     Eigenvalues ---    0.05516   0.05646   0.05654   0.05679   0.05706
     Eigenvalues ---    0.05712   0.05742   0.05757   0.05769   0.05801
     Eigenvalues ---    0.05873   0.05897   0.05958   0.05965   0.06060
     Eigenvalues ---    0.06079   0.06211   0.11039   0.11243   0.11287
     Eigenvalues ---    0.11291   0.11406   0.11566   0.11592   0.11616
     Eigenvalues ---    0.11653   0.11723   0.11812   0.11909   0.13470
     Eigenvalues ---    0.13618   0.13652   0.13719   0.13876   0.13924
     Eigenvalues ---    0.13934   0.13966   0.14021   0.14048   0.14197
     Eigenvalues ---    0.14215   0.15977   0.16000   0.16000   0.16001
     Eigenvalues ---    0.16006   0.16041   0.20245   0.21960   0.21987
     Eigenvalues ---    0.22016   0.22020   0.22024   0.22028   0.22059
     Eigenvalues ---    0.22074   0.22608   0.23341   0.23836   0.24411
     Eigenvalues ---    0.24465   0.24510   0.24563   0.24679   0.24793
     Eigenvalues ---    0.24868   0.25000   0.25011   0.25719   0.27264
     Eigenvalues ---    0.29424   0.29602   0.29738   0.29785   0.30237
     Eigenvalues ---    0.30721   0.30794   0.32760   0.34919   0.34974
     Eigenvalues ---    0.35028   0.35120   0.35147   0.35152   0.35212
     Eigenvalues ---    0.35264   0.35339   0.35363   0.35432   0.35460
     Eigenvalues ---    0.35463   0.35486   0.35502   0.35509   0.35517
     Eigenvalues ---    0.35543   0.35605   0.35626   0.35685   0.35699
     Eigenvalues ---    0.35724   0.35741   0.35744   0.35774   0.35788
     Eigenvalues ---    0.35987   0.36173   0.36987   0.45326   0.45375
     Eigenvalues ---    0.45721   0.45773   0.46012   0.46154
 Maximum Force            0.000001     0.000015     YES
 RMS     Force            0.000000     0.000010     YES
 Maximum Displacement     0.000552     0.000060     NO 
 RMS     Displacement     0.000126     0.000040     NO 
                          Input orientation:                          
 ---------------------------------------------------------------------
 Center     Atomic      Atomic             Coordinates (Angstroms)
 Number     Number       Type             X           Y           Z
 ---------------------------------------------------------------------
      1          6           0        4.534202    5.239664    0.359478
      2          1           0        4.049981    5.365533   -0.602278
      3          1           0        4.063600    5.908235    1.073555
      4          1           0        5.575820    5.521498    0.255596
      5          6           0        4.421425    3.801643    0.825179
      6          1           0        4.896074    3.678095    1.797043
      7          1           0        3.375596    3.523724    0.937208
      8          8           0        5.056047    2.982858   -0.118885
      9          6           0        5.025533    1.609708    0.139778
     10          1           0        5.026294    1.407294    1.207864
     11          1           0        5.934283    1.189021   -0.273542
     12          6           0        3.805759    0.958351   -0.502885
     13          1           0        2.897387    1.378160   -0.089443
     14          1           0        3.805338    1.159209   -1.570521
     15          8           0        3.769471   -0.419233   -0.248091
     16          6           0        4.428271   -1.236817   -1.172844
     17          1           0        5.499140   -1.038800   -1.177220
     18          1           0        4.048123   -1.053226   -2.174632
     19          6           0        4.200072   -2.690667   -0.813145
     20          1           0        4.511222   -2.868053    0.212756
     21          1           0        4.816918   -3.304535   -1.460633
     22          8           0        2.874871   -3.088906   -1.011449
     23          6           0        2.036426   -3.042496    0.111116
     24          1           0        2.047769   -2.055565    0.553917
     25          1           0        2.372325   -3.753504    0.862187
     26          6           0        0.641276   -3.413625   -0.364251
     27          1           0        0.650717   -4.418487   -0.766590
     28          1           0        0.336108   -2.752433   -1.164572
     29         16           0       -0.599655   -3.417418    0.963495
     30          6           0       -0.966961   -1.645355    1.169825
     31          1           0       -1.426324   -1.568377    2.146946
     32          1           0       -0.047168   -1.077921    1.206878
     33          6           0       -1.895987   -1.085725    0.094382
     34          1           0       -2.814525   -1.656336    0.052175
     35          1           0       -1.433073   -1.161103   -0.880996
     36         16           0       -2.270337    0.684572    0.303035
     37          6           0       -3.532835    0.661079    1.612489
     38          1           0       -3.536846    1.662600    2.022163
     39          1           0       -3.204764   -0.003443    2.404097
     40          6           0       -4.951109    0.274665    1.187406
     41          1           0       -4.965155   -0.675486    0.667439
     42          1           0       -5.543232    0.145198    2.086651
     43         16           0       -5.843979    1.508515    0.192486
     44          6           0       -5.568022    0.943162   -1.517561
     45          1           0       -4.512493    0.982239   -1.742670
     46          1           0       -5.898868   -0.085708   -1.599681
     47          6           0       -6.354558    1.827288   -2.481104
     48          1           0       -7.418132    1.788851   -2.273029
     49          1           0       -6.032919    2.860881   -2.415254
     50          1           0       -6.196907    1.491451   -3.501020
 ---------------------------------------------------------------------
 Stoichiometry    C14H30O3S3
 Framework group  C1[X(C14H30O3S3)]
                         Standard orientation:                         
 ---------------------------------------------------------------------
 Center     Atomic      Atomic             Coordinates (Angstroms)
 Number     Number       Type             X           Y           Z
 ---------------------------------------------------------------------
      1          6           0       -4.534320    5.239561   -0.359486
      2          1           0       -4.050102    5.365440    0.602269
      3          1           0       -4.063731    5.908142   -1.073564
      4          1           0       -5.575943    5.521375   -0.255604
      5          6           0       -4.421515    3.801543   -0.825187
      6          1           0       -4.896162    3.677986   -1.797052
      7          1           0       -3.375681    3.523644   -0.937216
      8          8           0       -5.056122    2.982746    0.118877
      9          6           0       -5.025581    1.609596   -0.139786
     10          1           0       -5.026338    1.407182   -1.207872
     11          1           0       -5.934323    1.188892    0.273534
     12          6           0       -3.805794    0.958262    0.502876
     13          1           0       -2.897431    1.378089    0.089435
     14          1           0       -3.805378    1.159121    1.570512
     15          8           0       -3.769480   -0.419320    0.248083
     16          6           0       -4.428264   -1.236917    1.172836
     17          1           0       -5.499137   -1.038921    1.177212
     18          1           0       -4.048120   -1.053319    2.174624
     19          6           0       -4.200037   -2.690763    0.813136
     20          1           0       -4.511184   -2.868155   -0.212764
     21          1           0       -4.816871   -3.304642    1.460625
     22          8           0       -2.874828   -3.088976    1.011441
     23          6           0       -2.036384   -3.042550   -0.111124
     24          1           0       -2.047746   -2.055619   -0.553925
     25          1           0       -2.372269   -3.753564   -0.862196
     26          6           0       -0.641227   -3.413652    0.364242
     27          1           0       -0.650648   -4.418514    0.766582
     28          1           0       -0.336072   -2.752454    1.164563
     29         16           0        0.599704   -3.417421   -0.963503
     30          6           0        0.966976   -1.645351   -1.169834
     31          1           0        1.426337   -1.568364   -2.146954
     32          1           0        0.047172   -1.077935   -1.206887
     33          6           0        1.895991   -1.085703   -0.094390
     34          1           0        2.814540   -1.656296   -0.052183
     35          1           0        1.433079   -1.161090    0.880988
     36         16           0        2.270307    0.684602   -0.303044
     37          6           0        3.532805    0.661133   -1.612498
     38          1           0        3.536797    1.662654   -2.022172
     39          1           0        3.204747   -0.003396   -2.404106
     40          6           0        4.951087    0.274746   -1.187415
     41          1           0        4.965151   -0.675405   -0.667447
     42          1           0        5.543213    0.145291   -2.086659
     43         16           0        5.843932    1.508613   -0.192495
     44          6           0        5.567987    0.943255    1.517553
     45          1           0        4.512457    0.982312    1.742661
     46          1           0        5.898852   -0.085609    1.599672
     47          6           0        6.354505    1.827396    2.481095
     48          1           0        7.418080    1.788979    2.273021
     49          1           0        6.032847    2.860983    2.415245
     50          1           0        6.196861    1.491557    3.501012
 ---------------------------------------------------------------------
 Standard basis: 6-31G(d) (6D, 7F)
   372 basis functions,   752 primitive gaussians,   372 cartesian basis functions
    93 alpha electrons       93 beta electrons
 Requested convergence on RMS density matrix=1.00D-08 within  64 cycles.
 Requested convergence on MAX density matrix=1.00D-06.
 Requested convergence on             energy=1.00D-06.
 SCF Done:  E(RHF) =  -1964.69168231     A.U. after    4 cycles
            NFock=  4  Conv=0.81D-08     -V/T= 2.0006
 Step number   6 out of a maximum of   55
     Eigenvalues ---    0.00122   0.00229   0.00233   0.00304   0.00365
     Eigenvalues ---    0.00411   0.00436   0.00487   0.00538   0.00558
     Eigenvalues ---    0.00576   0.00663   0.00788   0.01145   0.01673
     Eigenvalues ---    0.01693   0.01713   0.01734   0.01902   0.04142
     Eigenvalues ---    0.04463   0.04673   0.04810   0.04980   0.04997
     Eigenvalues ---    0.05038   0.05100   0.05352   0.05365   0.05427
     Eigenvalues ---    0.05518   0.05646   0.05658   0.05679   0.05709
     Eigenvalues ---    0.05741   0.05750   0.05758   0.05769   0.05805
     Eigenvalues ---    0.05875   0.05898   0.05959   0.05970   0.06064
     Eigenvalues ---    0.06093   0.06245   0.11048   0.11254   0.11293
     Eigenvalues ---    0.11300   0.11440   0.11574   0.11602   0.11618
     Eigenvalues ---    0.11647   0.11723   0.11813   0.11913   0.13564
     Eigenvalues ---    0.13631   0.13713   0.13765   0.13877   0.13930
     Eigenvalues ---    0.13936   0.13966   0.14033   0.14135   0.14179
     Eigenvalues ---    0.14221   0.15979   0.16000   0.16000   0.16001
     Eigenvalues ---    0.16013   0.16042   0.20830   0.21960   0.21988
     Eigenvalues ---    0.22016   0.22020   0.22030   0.22054   0.22084
     Eigenvalues ---    0.22667   0.23209   0.23402   0.23935   0.24421
     Eigenvalues ---    0.24466   0.24516   0.24557   0.24684   0.24845
     Eigenvalues ---    0.24883   0.25024   0.25188   0.25590   0.27886
     Eigenvalues ---    0.29412   0.29708   0.29772   0.29881   0.30315
     Eigenvalues ---    0.30743   0.30825   0.32944   0.34922   0.34978
     Eigenvalues ---    0.35045   0.35144   0.35149   0.35164   0.35214
     Eigenvalues ---    0.35282   0.35339   0.35364   0.35444   0.35460
     Eigenvalues ---    0.35474   0.35491   0.35503   0.35514   0.35522
     Eigenvalues ---    0.35563   0.35622   0.35653   0.35691   0.35699
     Eigenvalues ---    0.35740   0.35744   0.35762   0.35772   0.35799
     Eigenvalues ---    0.35982   0.36237   0.37205   0.45336   0.45427
     Eigenvalues ---    0.45767   0.45782   0.46018   0.46202
 Maximum Force            0.000001     0.000015     YES
 RMS     Force            0.000000     0.000010     YES
 Maximum Displacement     0.000898     0.000060     NO 
 RMS     Displacement     0.000148     0.000040     NO 
                          Input orientation:                          
 ---------------------------------------------------------------------
 Center     Atomic      Atomic             Coordinates (Angstroms)
 Number     Number       Type             X           Y           Z
 ---------------------------------------------------------------------
      1          6           0        4.534014    5.239687    0.359422
      2          1           0        4.049791    5.365549   -0.602333
      3          1           0        4.063393    5.908241    1.073503
      4          1           0        5.575624    5.521550    0.255543
      5          6           0        4.421275    3.801661    0.825114
      6          1           0        4.895930    3.678119    1.796977
      7          1           0        3.375454    3.523714    0.937145
      8          8           0        5.055918    2.982898   -0.118956
      9          6           0        5.025451    1.609747    0.139704
     10          1           0        5.026266    1.407329    1.207789
     11          1           0        5.934194    1.189091   -0.273660
     12          6           0        3.805665    0.958354   -0.502904
     13          1           0        2.897301    1.378145   -0.089428
     14          1           0        3.805194    1.159202   -1.570543
     15          8           0        3.769414   -0.419227   -0.248097
     16          6           0        4.428247   -1.236804   -1.172834
     17          1           0        5.499111   -1.038761   -1.177198
     18          1           0        4.048108   -1.053231   -2.174629
     19          6           0        4.200080   -2.690655   -0.813120
     20          1           0        4.511230   -2.868022    0.212783
     21          1           0        4.816943   -3.304515   -1.460600
     22          8           0        2.874888   -3.088924   -1.011426
     23          6           0        2.036447   -3.042547    0.111144
     24          1           0        2.047761   -2.055617    0.553948
     25          1           0        2.372374   -3.753546    0.862211
     26          6           0        0.641307   -3.413721   -0.364214
     27          1           0        0.650772   -4.418590   -0.766535
     28          1           0        0.336118   -2.752551   -1.164545
     29         16           0       -0.599620   -3.417533    0.963537
     30          6           0       -0.966941   -1.645475    1.169890
     31          1           0       -1.426330   -1.568524    2.147001
     32          1           0       -0.047154   -1.078035    1.206979
     33          6           0       -1.895945   -1.085833    0.094436
     34          1           0       -2.814494   -1.656425    0.052225
     35          1           0       -1.433027   -1.161226   -0.880939
     36         16           0       -2.270266    0.684473    0.303080
     37          6           0       -3.532785    0.660996    1.612514
     38          1           0       -3.536756    1.662502    2.022226
     39          1           0       -3.204760   -0.003572    2.404102
     40          6           0       -4.951070    0.274667    1.187388
     41          1           0       -4.965149   -0.675459    0.667377
     42          1           0       -5.543220    0.145190    2.086613
     43         16           0       -5.843845    1.508607    0.192491
     44          6           0       -5.567958    0.943235   -1.517561
     45          1           0       -4.512415    0.982117   -1.742641
     46          1           0       -5.898998   -0.085570   -1.599710
     47          6           0       -6.354299    1.827531   -2.481106
     48          1           0       -7.417884    1.789316   -2.273042
     49          1           0       -6.032444    2.861056   -2.415247
     50          1           0       -6.196711    1.491666   -3.501023
 ---------------------------------------------------------------------
 Stoichiometry    C14H30O3S3
 Framework group  C1[X(C14H30O3S3)]
                         Standard orientation:                         
 ---------------------------------------------------------------------
 Center     Atomic      Atomic             Coordinates (Angstroms)
 Number     Number       Type             X           Y           Z
 ---------------------------------------------------------------------
      1          6           0       -4.534049    5.239655   -0.359425
      2          1           0       -4.049827    5.365520    0.602330
      3          1           0       -4.063432    5.908212   -1.073506
      4          1           0       -5.575661    5.521512   -0.255546
      5          6           0       -4.421302    3.801629   -0.825117
      6          1           0       -4.895956    3.678085   -1.796980
      7          1           0       -3.375480    3.523689   -0.937148
      8          8           0       -5.055940    2.982863    0.118954
      9          6           0       -5.025465    1.609712   -0.139706
     10          1           0       -5.026279    1.407294   -1.207792
     11          1           0       -5.934205    1.189050    0.273657
     12          6           0       -3.805675    0.958327    0.502902
     13          1           0       -2.897314    1.378123    0.089425
     14          1           0       -3.805206    1.159175    1.570540
     15          8           0       -3.769416   -0.419255    0.248094
     16          6           0       -4.428244   -1.236835    1.172831
     17          1           0       -5.499110   -1.038799    1.177195
     18          1           0       -4.048106   -1.053260    2.174626
     19          6           0       -4.200068   -2.690685    0.813118
     20          1           0       -4.511217   -2.868053   -0.212786
     21          1           0       -4.816928   -3.304549    1.460597
     22          8           0       -2.874874   -3.088947    1.011423
     23          6           0       -2.036433   -3.042564   -0.111147
     24          1           0       -2.047753   -2.055634   -0.553951
     25          1           0       -2.372355   -3.753566   -0.862214
     26          6           0       -0.641291   -3.413730    0.364211
     27          1           0       -0.650750   -4.418599    0.766532
     28          1           0       -0.336106   -2.752558    1.164542
     29         16           0        0.599636   -3.417534   -0.963539
     30          6           0        0.966946   -1.645474   -1.169893
[...]
     18          1           0        4.048122   -1.053251   -2.174631
     19          6           0        4.200087   -2.690667   -0.813114
     20          1           0        4.511227   -2.868028    0.212793
     21          1           0        4.816957   -3.304530   -1.460584
     22          8           0        2.874898   -3.088941   -1.011430
     23          6           0        2.036440   -3.042541    0.111126
     24          1           0        2.047754   -2.055604    0.553916
     25          1           0        2.372351   -3.753530    0.862210
     26          6           0        0.641304   -3.413712   -0.364246
     27          1           0        0.650768   -4.418584   -0.766559
     28          1           0        0.336130   -2.752546   -1.164586
     29         16           0       -0.599639   -3.417498    0.963490
     30          6           0       -0.966938   -1.645434    1.169823
     31          1           0       -1.426308   -1.568461    2.146941
     32          1           0       -0.047144   -1.078003    1.206886
     33          6           0       -1.895955   -1.085798    0.094377
     34          1           0       -2.814507   -1.656387    0.052184
     35          1           0       -1.433050   -1.161201   -0.881003
     36         16           0       -2.270265    0.684512    0.303007
     37          6           0       -3.532742    0.661063    1.612482
     38          1           0       -3.536706    1.662582    2.022163
     39          1           0       -3.204687   -0.003478    2.404080
     40          6           0       -4.951038    0.274711    1.187415
     41          1           0       -4.965129   -0.675434    0.667438
     42          1           0       -5.543158    0.145262    2.086664
     43         16           0       -5.843858    1.508608    0.192507
     44          6           0       -5.567975    0.943219   -1.517540
     45          1           0       -4.512442    0.982176   -1.742651
     46          1           0       -5.898938   -0.085614   -1.599655
     47          6           0       -6.354413    1.827432   -2.481083
     48          1           0       -7.417989    1.789126   -2.272997
     49          1           0       -6.032648    2.860986   -2.415245
     50          1           0       -6.196814    1.491566   -3.500997
 ---------------------------------------------------------------------
 Stoichiometry    C14H30O3S3
 Framework group  C1[X(C14H30O3S3)]
                         Standard orientation:                         
 ---------------------------------------------------------------------
 Center     Atomic      Atomic             Coordinates (Angstroms)
 Number     Number       Type             X           Y           Z
 ---------------------------------------------------------------------
      1          6           0       -4.534072    5.239643   -0.359454
      2          1           0       -4.049873    5.365500    0.602314
      3          1           0       -4.063442    5.908211   -1.073517
      4          1           0       -5.575688    5.521494   -0.255597
      5          6           0       -4.421307    3.801623   -0.825160
      6          1           0       -4.895936    3.678088   -1.797036
      7          1           0       -3.375481    3.523688   -0.937167
      8          8           0       -5.055964    2.982843    0.118885
      9          6           0       -5.025459    1.609693   -0.139781
     10          1           0       -5.026201    1.407282   -1.207868
     11          1           0       -5.934221    1.189015    0.273520
     12          6           0       -3.805703    0.958321    0.502902
     13          1           0       -2.897320    1.378127    0.089483
     14          1           0       -3.805303    1.159169    1.570540
     15          8           0       -3.769421   -0.419260    0.248096
     16          6           0       -4.428255   -1.236847    1.172824
     17          1           0       -5.499120   -1.038808    1.177183
     18          1           0       -4.048122   -1.053278    2.174622
     19          6           0       -4.200080   -2.690695    0.813104
     20          1           0       -4.511219   -2.868057   -0.212803
     21          1           0       -4.816948   -3.304561    1.460574
     22          8           0       -2.874889   -3.088963    1.011420
     23          6           0       -2.036432   -3.042559   -0.111136
     24          1           0       -2.047750   -2.055622   -0.553925
     25          1           0       -2.372340   -3.753550   -0.862220
     26          6           0       -0.641294   -3.413724    0.364237
     27          1           0       -0.650754   -4.418596    0.766550
     28          1           0       -0.336122   -2.752557    1.164576
     29         16           0        0.599649   -3.417505   -0.963499
     30          6           0        0.966940   -1.645439   -1.169833
     31          1           0        1.426310   -1.568465   -2.146951
     32          1           0        0.047143   -1.078013   -1.206896
     33          6           0        1.895955   -1.085799   -0.094387
     34          1           0        2.814509   -1.656384   -0.052194
     35          1           0        1.433050   -1.161205    0.880994
     36         16           0        2.270257    0.684512   -0.303017
     37          6           0        3.532734    0.661069   -1.612492
     38          1           0        3.536694    1.662588   -2.022173
     39          1           0        3.204682   -0.003473   -2.404090
     40          6           0        4.951032    0.274723   -1.187424
     41          1           0        4.965127   -0.675422   -0.667448
     42          1           0        5.543152    0.145277   -2.086673
     43         16           0        5.843847    1.508624   -0.192517
     44          6           0        5.567966    0.943234    1.517530
     45          1           0        4.512432    0.982187    1.742642
     46          1           0        5.898933   -0.085598    1.599646
     47          6           0        6.354400    1.827450    2.481073
     48          1           0        7.417977    1.789149    2.272987
     49          1           0        6.032630    2.861003    2.415235
     50          1           0        6.196803    1.491584    3.500988
 ---------------------------------------------------------------------
 Standard basis: 6-31G(d) (6D, 7F)
   372 basis functions,   752 primitive gaussians,   372 cartesian basis functions
    93 alpha electrons       93 beta electrons
 Requested convergence on RMS density matrix=1.00D-08 within  64 cycles.
 Requested convergence on MAX density matrix=1.00D-06.
 Requested convergence on             energy=1.00D-06.
 SCF Done:  E(RHF) =  -1964.69168231     A.U. after    3 cycles
            NFock=  3  Conv=0.43D-08     -V/T= 2.0006
 Step number  20 out of a maximum of   55
     Eigenvalues ---    0.00000   0.00167   0.00238   0.00362   0.00406
     Eigenvalues ---    0.00444   0.00490   0.00501   0.00559   0.00627
     Eigenvalues ---    0.00663   0.00765   0.00860   0.00969   0.01410
     Eigenvalues ---    0.01678   0.01810   0.02277   0.03056   0.04549
     Eigenvalues ---    0.04639   0.04844   0.05051   0.05110   0.05151
     Eigenvalues ---    0.05330   0.05393   0.05473   0.05511   0.05612
     Eigenvalues ---    0.05662   0.05675   0.05703   0.05743   0.05749
     Eigenvalues ---    0.05760   0.05814   0.05863   0.05888   0.05905
     Eigenvalues ---    0.05924   0.05977   0.06005   0.06033   0.06141
     Eigenvalues ---    0.06448   0.06621   0.11070   0.11219   0.11287
     Eigenvalues ---    0.11323   0.11464   0.11590   0.11630   0.11643
     Eigenvalues ---    0.11699   0.11786   0.11909   0.12020   0.13561
     Eigenvalues ---    0.13623   0.13665   0.13741   0.13862   0.13901
     Eigenvalues ---    0.13936   0.13974   0.14077   0.14189   0.14650
     Eigenvalues ---    0.14733   0.15954   0.15998   0.16003   0.16010
     Eigenvalues ---    0.16064   0.16167   0.21107   0.21609   0.21855
     Eigenvalues ---    0.22019   0.22147   0.22227   0.22549   0.22816
     Eigenvalues ---    0.22929   0.23352   0.23976   0.24241   0.24449
     Eigenvalues ---    0.24502   0.24538   0.24780   0.24928   0.25115
     Eigenvalues ---    0.25510   0.27041   0.27698   0.28482   0.29760
     Eigenvalues ---    0.29930   0.29956   0.30601   0.30739   0.31647
     Eigenvalues ---    0.32817   0.33906   0.34913   0.34986   0.35024
     Eigenvalues ---    0.35103   0.35152   0.35176   0.35212   0.35224
     Eigenvalues ---    0.35322   0.35346   0.35367   0.35444   0.35474
     Eigenvalues ---    0.35495   0.35499   0.35510   0.35511   0.35547
     Eigenvalues ---    0.35608   0.35662   0.35687   0.35721   0.35729
     Eigenvalues ---    0.35780   0.35787   0.35884   0.35987   0.36357
     Eigenvalues ---    0.37447   0.39624   0.41952   0.45316   0.45523
     Eigenvalues ---    0.45779   0.46062   0.46566   0.46654
 Maximum Force            0.000000     0.000015     YES
 RMS     Force            0.000000     0.000010     YES
 Maximum Displacement     0.000049     0.000060     YES
 RMS     Displacement     0.000011     0.000040     YES
 Optimization completed.
    -- Stationary point found.
                          Input orientation:                          
 ---------------------------------------------------------------------
 Center     Atomic      Atomic             Coordinates (Angstroms)
 Number     Number       Type             X           Y           Z
 ---------------------------------------------------------------------
      1          6           0        4.534044    5.239673    0.359445
      2          1           0        4.049844    5.365527   -0.602323
      3          1           0        4.063411    5.908238    1.073508
      4          1           0        5.575659    5.521527    0.255587
      5          6           0        4.421285    3.801652    0.825150
      6          1           0        4.895915    3.678119    1.797026
      7          1           0        3.375460    3.523712    0.937157
      8          8           0        5.055946    2.982875   -0.118895
      9          6           0        5.025447    1.609725    0.139771
     10          1           0        5.026190    1.407314    1.207858
     11          1           0        5.934211    1.189051   -0.273530
     12          6           0        3.805694    0.958347   -0.502912
     13          1           0        2.897309    1.378149   -0.089493
     14          1           0        3.805293    1.159195   -1.570550
     15          8           0        3.769418   -0.419234   -0.248106
     16          6           0        4.428255   -1.236818   -1.172833
     17          1           0        5.499120   -1.038775   -1.177192
     18          1           0        4.048122   -1.053251   -2.174631
     19          6           0        4.200087   -2.690667   -0.813114
     20          1           0        4.511227   -2.868028    0.212793
     21          1           0        4.816957   -3.304530   -1.460584
     22          8           0        2.874898   -3.088941   -1.011430
     23          6           0        2.036440   -3.042541    0.111126
     24          1           0        2.047754   -2.055604    0.553916
     25          1           0        2.372351   -3.753530    0.862210
     26          6           0        0.641304   -3.413712   -0.364246
     27          1           0        0.650768   -4.418584   -0.766559
     28          1           0        0.336130   -2.752546   -1.164586
     29         16           0       -0.599639   -3.417498    0.963490
     30          6           0       -0.966938   -1.645434    1.169823
     31          1           0       -1.426308   -1.568461    2.146941
     32          1           0       -0.047144   -1.078003    1.206886
     33          6           0       -1.895955   -1.085798    0.094377
     34          1           0       -2.814507   -1.656387    0.052184
     35          1           0       -1.433050   -1.161201   -0.881003
     36         16           0       -2.270265    0.684512    0.303007
     37          6           0       -3.532742    0.661063    1.612482
     38          1           0       -3.536706    1.662582    2.022163
     39          1           0       -3.204687   -0.003478    2.404080
     40          6           0       -4.951038    0.274711    1.187415
     41          1           0       -4.965129   -0.675434    0.667438
     42          1           0       -5.543158    0.145262    2.086664
     43         16           0       -5.843858    1.508608    0.192507
     44          6           0       -5.567975    0.943219   -1.517540
     45          1           0       -4.512442    0.982176   -1.742651
     46          1           0       -5.898938   -0.085614   -1.599655
     47          6           0       -6.354413    1.827432   -2.481083
     48          1           0       -7.417989    1.789126   -2.272997
     49          1           0       -6.032648    2.860986   -2.415245
     50          1           0       -6.196814    1.491566   -3.500997
 ---------------------------------------------------------------------
 Stoichiometry    C14H30O3S3
 Framework group  C1[X(C14H30O3S3)]
                         Standard orientation:                         
 ---------------------------------------------------------------------
 Center     Atomic      Atomic             Coordinates (Angstroms)
 Number     Number       Type             X           Y           Z
 ---------------------------------------------------------------------
      1          6           0       -4.534072    5.239643   -0.359454
      2          1           0       -4.049873    5.365500    0.602314
      3          1           0       -4.063442    5.908211   -1.073517
      4          1           0       -5.575688    5.521494   -0.255597
      5          6           0       -4.421307    3.801623   -0.825160
      6          1           0       -4.895936    3.678088   -1.797036
      7          1           0       -3.375481    3.523688   -0.937167
      8          8           0       -5.055964    2.982843    0.118885
      9          6           0       -5.025459    1.609693   -0.139781
     10          1           0       -5.026201    1.407282   -1.207868
     11          1           0       -5.934221    1.189015    0.273520
     12          6           0       -3.805703    0.958321    0.502902
     13          1           0       -2.897320    1.378127    0.089483
     14          1           0       -3.805303    1.159169    1.570540
     15          8           0       -3.769421   -0.419260    0.248096
     16          6           0       -4.428255   -1.236847    1.172824
     17          1           0       -5.499120   -1.038808    1.177183
     18          1           0       -4.048122   -1.053278    2.174622
     19          6           0       -4.200080   -2.690695    0.813104
     20          1           0       -4.511219   -2.868057   -0.212803
     21          1           0       -4.816948   -3.304561    1.460574
     22          8           0       -2.874889   -3.088963    1.011420
     23          6           0       -2.036432   -3.042559   -0.111136
     24          1           0       -2.047750   -2.055622   -0.553925
     25          1           0       -2.372340   -3.753550   -0.862220
     26          6           0       -0.641294   -3.413724    0.364237
     27          1           0       -0.650754   -4.418596    0.766550
     28          1           0       -0.336122   -2.752557    1.164576
     29         16           0        0.599649   -3.417505   -0.963499
     30          6           0        0.966940   -1.645439   -1.169833
     31          1           0        1.426310   -1.568465   -2.146951
     32          1           0        0.047143   -1.078013   -1.206896
     33          6           0        1.895955   -1.085799   -0.094387
     34          1           0        2.814509   -1.656384   -0.052194
     35          1           0        1.433050   -1.161205    0.880994
     36         16           0        2.270257    0.684512   -0.303017
     37          6           0        3.532734    0.661069   -1.612492
     38          1           0        3.536694    1.662588   -2.022173
     39          1           0        3.204682   -0.003473   -2.404090
     40          6           0        4.951032    0.274723   -1.187424
     41          1           0        4.965127   -0.675422   -0.667448
     42          1           0        5.543152    0.145277   -2.086673
     43         16           0        5.843847    1.508624   -0.192517
     44          6           0        5.567966    0.943234    1.517530
     45          1           0        4.512432    0.982187    1.742642
     46          1           0        5.898933   -0.085598    1.599646
     47          6           0        6.354400    1.827450    2.481073
     48          1           0        7.417977    1.789149    2.272987
     49          1           0        6.032630    2.861003    2.415235
     50          1           0        6.196803    1.491584    3.500988
 ---------------------------------------------------------------------
 Mulliken charges:
     1  C   -0.488615
     2  H    0.173862
     3  H    0.158226
     4  H    0.174987
     5  C    0.015753
     6  H    0.142805
     7  H    0.140101
     8  O   -0.631125
     9  C   -0.002194
    10  H    0.152514
    11  H    0.168231
    12  C   -0.005392
    13  H    0.174134
    14  H    0.158105
    15  O   -0.642703
    16  C    0.009450
    17  H    0.136746
    18  H    0.157835
    19  C    0.000071
    20  H    0.156203
    21  H    0.170081
    22  O   -0.638012
    23  C    0.025498
    24  H    0.179595
    25  H    0.153425
    26  C   -0.495247
    27  H    0.211524
    28  H    0.200983
    29  S    0.107186
    30  C   -0.475367
    31  H    0.200479
    32  H    0.214407
    33  C   -0.476549
    34  H    0.204554
    35  H    0.205407
    36  S    0.118413
    37  C   -0.470221
    38  H    0.217875
    39  H    0.191318
    40  C   -0.478260
    41  H    0.194640
    42  H    0.204545
    43  S    0.114722
    44  C   -0.460339
    45  H    0.218673
    46  H    0.179813
    47  C   -0.497538
    48  H    0.177976
    49  H    0.179769
    50  H    0.171661
 Sum of Mulliken charges =  -0.00000
 Dipole moment (field-independent basis, Debye):
    X=             -1.6317    Y=             -0.5130    Z=             -0.3541  Tot=              1.7467
 Quadrupole moment (field-independent basis, Debye-Ang):
   XX=           -150.0068   YY=           -158.8831   ZZ=           -143.1484
   XY=             -2.5613   XZ=              3.4477   YZ=             -4.6896
 Traceless Quadrupole moment (field-independent basis, Debye-Ang):
   XX=              0.6726   YY=             -8.2037   ZZ=              7.5311
   XY=             -2.5613   XZ=              3.4477   YZ=             -4.6896
 Octapole moment (field-independent basis, Debye-Ang**2):
  XXX=           -155.8038  YYY=             35.4295  ZZZ=              3.2066  XYY=            -44.8290
  XXY=            -93.8497  XXZ=             13.1932  XZZ=              8.4033  YZZ=             15.0276
  YYZ=             -1.4613  XYZ=             22.3393
 Hexadecapole moment (field-independent basis, Debye-Ang**3):
 XXXX=         -15073.2157 YYYY=          -5484.8555 ZZZZ=          -1094.3881 XXXY=             -0.6276
 XXXZ=            166.5377 YYYX=             -5.6195 YYYZ=           -109.3490 ZZZX=            -43.0758
 ZZZY=            -23.4039 XXYY=          -3452.4511 XXZZ=          -2422.0688 YYZZ=          -1119.9026
 XXYZ=            -47.6082 YYXZ=            106.6627 ZZXY=              3.3824
 Job cpu time:       0 days  1 hours 29 minutes 13.9 seconds.
 Normal termination of Gaussian 16 at Sat Jul  8 16:02:57 2023.
