 Copyright (c) 1988-2019, Gaussian, Inc.  All Rights Reserved.
  
 This is part of the Gaussian(R) 16 program.  It is based on
 the Gaussian(R) 09 system (copyright 2009, Gaussian, Inc.),
 the Gaussian(R) 03 system (copyright 2003, Gaussian, Inc.),
 the Gaussian(R) 98 system (copyright 1998, Gaussian, Inc.),
 the Gaussian(R) 94 system (copyright 1995, Gaussian, Inc.),
 the Gaussian 92(TM) system (copyright 1992, Gaussian, Inc.),
 the Gaussian 90(TM) system (copyright 1990, Gaussian, Inc.),
 the Gaussian 88(TM) system (copyright 1988, Gaussian, Inc.),
 the Gaussian 86(TM) system (copyright 1986, Carnegie Mellon
 University), and the Gaussian 82(TM) system (copyright 1983,
 Carnegie Mellon University). Gaussian is a federally registered
 trademark of Gaussian, Inc.
 Cite this work as:
 Gaussian 16, Revision C.01,
 M. J. Frisch, G. W. Trucks, H. B. Schlegel, G. E. Scuseria, 
 M. A. Robb, J. R. Cheeseman, G. Scalmani, V. Barone, 
 G. A. Petersson, H. Nakatsuji, X. Li, M. Caricato, A. V. Marenich, 
 J. Bloino, B. G. Janesko, R. Gomperts, B. Mennucci, H. P. Hratchian, 
 J. V. Ortiz, A. F. Izmaylov, J. L. Sonnenberg, D. Williams-Young, 
 F. Ding, F. Lipparini, F. Egidi, J. Goings, B. Peng, A. Petrone, 
 T. Henderson, D. Ranasinghe, V. G. Zakrzewski, J. Gao, N. Rega, 
 G. Zheng, W. Liang, M. Hada, M. Ehara, K. Toyota, R. Fukuda, 
 J. Hasegawa, M. Ishida, T. Nakajima, Y. Honda, O. Kitao, H. Nakai, 
 T. Vreven, K. Throssell, J. A. Montgomery, Jr., J. E. Peralta, 
 F. Ogliaro, M. J. Bearpark, J. J. Heyd, E. N. Brothers, K. N. Kudin, 
 V. N. Staroverov, T. A. Keith, R. Kobayashi, J. Normand, 
 K. Raghavachari, A. P. Rendell, J. C. Burant, S. S. Iyengar, 
 J. Tomasi, M. Cossi, J. M. Millam, M. Klene, C. Adamo, R. Cammi, 
 J. W. Ochterski, R. L. Martin, K. Morokuma, O. Farkas, 
 J. B. Foresman, and D. J. Fox, Gaussian, Inc., Wallingford CT, 2019.
 
 ******************************************
 Gaussian 16:  EM64L-G16RevC.01  3-Jul-2019
                 8-Jul-2023 
 ******************************************
 ----------------------------------------------------------------------
 #P HF/6-31G(d) Opt=(Tight,MaxCycle=55) GFInput GFPrint SCF(Conver=8,XQ
 C,MaxConventionalCycles=64,MaxCycle=128) Test
 ----------------------------------------------------------------------
 1/6=55,7=10,18=20,19=15,38=1/1,3;
 2/9=110,12=2,17=6,18=5,40=1/2;
 3/5=1,6=6,7=1,11=9,24=110,25=1,30=1,71=1/1,2,3;
 4//1;
 5/5=2,6=8,7=128,8=3,13=1,38=5,85=64/2,8;
 6/7=2,8=2,9=2,10=2,28=1/1;
 7//1,2,3,16;
 1/6=55,7=10,18=20,19=15/3(2);
 2/9=110/2;
 99//99;
 2/9=110/2;
 3/5=1,6=6,7=1,11=9,25=1,30=1,71=1/1,2,3;
 4/5=5,16=3,69=1/1;
 5/5=2,6=8,7=128,8=3,13=1,38=5,85=64/2,8;
 7//1,2,3,16;
 1/6=55,7=10,18=20,19=15/3(-5);
 2/9=110/2;
 6/7=2,8=2,9=2,10=2,19=2,28=1/1;
 99/9=1/99;
 ----------------------------------------------------------
 Optimization step - Input generated by PyRED DVE-DMDS-OPLS
 ----------------------------------------------------------
 Symbolic Z-matrix:
 Charge =  0 Multiplicity = 1
 C                     8.42455   3.02724  -0.78731 
 H                     9.23501   2.68711  -0.15147 
 H                     8.61688   2.68262  -1.79763 
 H                     8.43892   4.11308  -0.78703 
 C                     7.06965   2.52364  -0.30728 
 H                     6.8834    2.84987   0.7145 
 H                     6.28585   2.93671  -0.92938 
 O                     6.93168   1.13221  -0.39738 
 C                     7.58373   0.38042   0.58256 
 H                     7.34308   0.75684   1.57481 
 H                     8.66411   0.43012   0.45648 
 C                     7.15223  -1.06907   0.4818 
 H                     7.28183  -1.41553  -0.54033 
 H                     7.79654  -1.6616    1.12208 
 O                     5.84553  -1.29228   0.92129 
 C                     4.82211  -1.15937  -0.02579 
 H                     5.026    -1.77462  -0.89899 
 H                     4.71535  -0.13451  -0.35469 
 C                     3.54554  -1.63074   0.63895 
 H                     3.3446   -1.02615   1.52076 
 H                     3.65619  -2.66343   0.96171 
 O                     2.51031  -1.50916  -0.29233 
 C                     1.25621  -1.90106   0.17505 
 H                     0.969    -1.29969   1.0356 
 H                     1.27109  -2.94077   0.49344 
 C                     0.26753  -1.7199   -0.96551 
 H                     0.54916  -2.36237  -1.78964 
 H                     0.30396  -0.70094  -1.32786 
 S                    -1.43604  -2.17388  -0.52365 
 C                    -2.04231  -0.67056   0.3079 
 H                    -2.87502  -0.99325   0.918 
 H                    -1.28567  -0.29532   0.98403 
 C                    -2.48106   0.42232  -0.66547 
 H                    -3.25438   0.05446  -1.32748 
 H                    -1.64962   0.72422  -1.28804 
 S                    -3.07858   1.93622   0.1626 
 C                    -4.88889   1.79344   0.02622 
 H                    -5.14565   1.61162  -1.00952 
 H                    -5.26337   2.77651   0.28027 
 C                    -5.52018   0.75171   0.9464 
 H                    -5.16765  -0.24537   0.71288 
 H                    -5.24733   0.95775   1.97324 
 S                    -7.33822   0.74677   0.91008 
 C                    -7.67724  -0.11882  -0.6549 
 H                    -7.28439   0.45496  -1.48498 
 H                    -7.17215  -1.07776  -0.63967 
 C                    -9.18099  -0.31719  -0.82537 
 H                    -9.59164  -0.90953  -0.01554 
 H                    -9.70147   0.63389  -0.84777 
 H                    -9.3825   -0.83312  -1.75844 
 
 ITRead=  0  0  0  0  0  0  0  0  0  0  0  0  0  0  0  0  0  0  0  0
 ITRead=  0  0  0  0  0  0  0  0  0  0  0  0  0  0  0  0  0  0  0  0
 ITRead=  0  0  0  0  0  0  0  0  0  0
 MicOpt= -1 -1 -1 -1 -1 -1 -1 -1 -1 -1 -1 -1 -1 -1 -1 -1 -1 -1 -1 -1
 MicOpt= -1 -1 -1 -1 -1 -1 -1 -1 -1 -1 -1 -1 -1 -1 -1 -1 -1 -1 -1 -1
 MicOpt= -1 -1 -1 -1 -1 -1 -1 -1 -1 -1
 NAtoms=     50 NQM=       50 NQMF=       0 NMMI=      0 NMMIF=      0
                NMic=       0 NMicF=      0.
                          Input orientation:                          
 ---------------------------------------------------------------------
 Center     Atomic      Atomic             Coordinates (Angstroms)
 Number     Number       Type             X           Y           Z
 ---------------------------------------------------------------------
      1          6           0        8.424550    3.027237   -0.787309
      2          1           0        9.235007    2.687106   -0.151467
      3          1           0        8.616877    2.682620   -1.797625
      4          1           0        8.438923    4.113075   -0.787027
      5          6           0        7.069645    2.523638   -0.307284
      6          1           0        6.883396    2.849866    0.714495
      7          1           0        6.285851    2.936711   -0.929380
      8          8           0        6.931683    1.132205   -0.397377
      9          6           0        7.583729    0.380421    0.582562
     10          1           0        7.343079    0.756838    1.574807
     11          1           0        8.664112    0.430124    0.456479
     12          6           0        7.152232   -1.069071    0.481799
     13          1           0        7.281832   -1.415534   -0.540325
     14          1           0        7.796538   -1.661603    1.122078
     15          8           0        5.845531   -1.292277    0.921292
     16          6           0        4.822107   -1.159372   -0.025785
     17          1           0        5.025999   -1.774623   -0.898990
     18          1           0        4.715349   -0.134508   -0.354694
     19          6           0        3.545537   -1.630741    0.638950
     20          1           0        3.344597   -1.026155    1.520759
     21          1           0        3.656185   -2.663425    0.961709
     22          8           0        2.510310   -1.509159   -0.292327
     23          6           0        1.256209   -1.901056    0.175048
     24          1           0        0.968998   -1.299691    1.035600
     25          1           0        1.271094   -2.940768    0.493438
     26          6           0        0.267530   -1.719902   -0.965511
     27          1           0        0.549156   -2.362371   -1.789636
     28          1           0        0.303961   -0.700942   -1.327858
     29         16           0       -1.436044   -2.173882   -0.523648
     30          6           0       -2.042308   -0.670564    0.307897
     31          1           0       -2.875022   -0.993247    0.917996
     32          1           0       -1.285670   -0.295316    0.984029
     33          6           0       -2.481063    0.422316   -0.665469
     34          1           0       -3.254384    0.054459   -1.327483
     35          1           0       -1.649615    0.724221   -1.288038
     36         16           0       -3.078577    1.936222    0.162597
     37          6           0       -4.888893    1.793437    0.026224
     38          1           0       -5.145650    1.611622   -1.009523
     39          1           0       -5.263365    2.776511    0.280271
     40          6           0       -5.520183    0.751705    0.946398
     41          1           0       -5.167654   -0.245371    0.712878
     42          1           0       -5.247333    0.957747    1.973240
     43         16           0       -7.338220    0.746771    0.910082
     44          6           0       -7.677243   -0.118816   -0.654902
     45          1           0       -7.284391    0.454955   -1.484981
     46          1           0       -7.172149   -1.077756   -0.639673
     47          6           0       -9.180989   -0.317185   -0.825373
     48          1           0       -9.591640   -0.909531   -0.015539
     49          1           0       -9.701470    0.633888   -0.847771
     50          1           0       -9.382495   -0.833121   -1.758439
 ---------------------------------------------------------------------
 Stoichiometry    C14H30O3S3
 Framework group  C1[X(C14H30O3S3)]
                         Standard orientation:                         
 ---------------------------------------------------------------------
 Center     Atomic      Atomic             Coordinates (Angstroms)
 Number     Number       Type             X           Y           Z
 ---------------------------------------------------------------------
      1          6           0       -8.424550    3.027237    0.787309
      2          1           0       -9.235007    2.687106    0.151467
      3          1           0       -8.616877    2.682620    1.797625
      4          1           0       -8.438923    4.113075    0.787027
      5          6           0       -7.069645    2.523638    0.307284
      6          1           0       -6.883396    2.849866   -0.714495
      7          1           0       -6.285851    2.936711    0.929380
      8          8           0       -6.931683    1.132205    0.397377
      9          6           0       -7.583729    0.380421   -0.582562
     10          1           0       -7.343079    0.756838   -1.574807
     11          1           0       -8.664112    0.430124   -0.456479
     12          6           0       -7.152232   -1.069071   -0.481799
     13          1           0       -7.281832   -1.415534    0.540325
     14          1           0       -7.796538   -1.661603   -1.122078
     15          8           0       -5.845531   -1.292277   -0.921292
     16          6           0       -4.822107   -1.159372    0.025785
     17          1           0       -5.025999   -1.774623    0.898990
     18          1           0       -4.715349   -0.134508    0.354694
     19          6           0       -3.545537   -1.630741   -0.638950
     20          1           0       -3.344597   -1.026155   -1.520759
     21          1           0       -3.656185   -2.663425   -0.961709
     22          8           0       -2.510310   -1.509159    0.292327
     23          6           0       -1.256209   -1.901056   -0.175048
     24          1           0       -0.968998   -1.299691   -1.035600
     25          1           0       -1.271094   -2.940768   -0.493438
     26          6           0       -0.267530   -1.719902    0.965511
     27          1           0       -0.549156   -2.362371    1.789636
     28          1           0       -0.303961   -0.700942    1.327858
     29         16           0        1.436044   -2.173882    0.523648
     30          6           0        2.042308   -0.670564   -0.307897
     31          1           0        2.875022   -0.993247   -0.917996
     32          1           0        1.285670   -0.295316   -0.984029
     33          6           0        2.481063    0.422316    0.665469
     34          1           0        3.254384    0.054459    1.327483
     35          1           0        1.649615    0.724221    1.288038
     36         16           0        3.078577    1.936222   -0.162597
     37          6           0        4.888893    1.793437   -0.026224
     38          1           0        5.145650    1.611622    1.009523
     39          1           0        5.263365    2.776511   -0.280271
     40          6           0        5.520183    0.751705   -0.946398
     41          1           0        5.167654   -0.245371   -0.712878
     42          1           0        5.247333    0.957747   -1.973240
     43         16           0        7.338220    0.746771   -0.910082
     44          6           0        7.677243   -0.118816    0.654902
     45          1           0        7.284391    0.454955    1.484981
     46          1           0        7.172149   -1.077756    0.639673
     47          6           0        9.180989   -0.317185    0.825373
     48          1           0        9.591640   -0.909531    0.015539
     49          1           0        9.701470    0.633888    0.847771
     50          1           0        9.382495   -0.833121    1.758439
 ---------------------------------------------------------------------
 Standard basis: 6-31G(d) (6D, 7F)
   372 basis functions,   752 primitive gaussians,   372 cartesian basis functions
    93 alpha electrons       93 beta electrons
 Requested convergence on RMS density matrix=1.00D-08 within  64 cycles.
 Requested convergence on MAX density matrix=1.00D-06.
 Requested convergence on             energy=1.00D-06.
 SCF Done:  E(RHF) =  -1964.69613928     A.U. after   13 cycles
            NFock= 13  Conv=0.50D-08     -V/T= 2.0006
 Mulliken charges:
     1  C   -0.505907
     2  H    0.162182
     3  H    0.175069
     4  H    0.161404
     5  C    0.015041
     6  H    0.142344
     7  H    0.173094
     8  O   -0.627758
     9  C    0.007658
    10  H    0.151121
    11  H    0.137074
    12  C    0.004394
    13  H    0.156361
    14  H    0.168232
    15  O   -0.647507
    16  C    0.012189
    17  H    0.148462
    18  H    0.182558
    19  C    0.012342
    20  H    0.151340
    21  H    0.151318
    22  O   -0.642403
    23  C    0.040290
    24  H    0.143771
    25  H    0.157709
    26  C   -0.494549
    27  H    0.213767
    28  H    0.203385
    29  S    0.106199
    30  C   -0.472127
    31  H    0.206292
    32  H    0.208488
    33  C   -0.476959
    34  H    0.203751
    35  H    0.207731
    36  S    0.116576
    37  C   -0.470681
    38  H    0.195760
    39  H    0.218461
    40  C   -0.479556
    41  H    0.190480
    42  H    0.216665
    43  S    0.120851
    44  C   -0.459285
    45  H    0.186625
    46  H    0.187241
    47  C   -0.495912
    48  H    0.182208
    49  H    0.180348
    50  H    0.173865
 Sum of Mulliken charges =  -0.00000
 Dipole moment (field-independent basis, Debye):
    X=             -1.9263    Y=              0.3074    Z=              0.9546  Tot=              2.1717
 Quadrupole moment (field-independent basis, Debye-Ang):
   XX=           -128.8159   YY=           -152.9273   ZZ=           -150.8126
   XY=            -10.4933   XZ=             13.8063   YZ=              0.2481
 Traceless Quadrupole moment (field-independent basis, Debye-Ang):
   XX=             15.3694   YY=             -8.7420   ZZ=             -6.6273
   XY=            -10.4933   XZ=             13.8063   YZ=              0.2481
 Octapole moment (field-independent basis, Debye-Ang**2):
  XXX=           -297.3935  YYY=              6.4352  ZZZ=              3.3551  XYY=            -74.1293
  XXY=             -0.2553  XXZ=             75.1090  XZZ=            -20.3344  YZZ=              1.2001
  YYZ=              1.7786  XYZ=             12.8930
 Hexadecapole moment (field-independent basis, Debye-Ang**3):
 XXXX=         -25926.2845 YYYY=          -2454.7446 ZZZZ=           -606.1847 XXXY=           -607.7115
 XXXZ=           1027.4219 YYYX=            -60.8737 YYYZ=             -3.7560 ZZZX=             13.4197
 ZZZY=             -2.3250 XXYY=          -4911.8943 XXZZ=          -4824.8697 YYZZ=           -513.2671
 XXYZ=            -18.8061 YYXZ=            -27.9357 ZZXY=              2.6426
 Step number   1 out of a maximum of   55
     Eigenvalues ---    0.00230   0.00230   0.00230   0.00230   0.00230
     Eigenvalues ---    0.00230   0.00398   0.00414   0.00418   0.00461
     Eigenvalues ---    0.00498   0.00558   0.00574   0.01676   0.01682
     Eigenvalues ---    0.01721   0.01736   0.01737   0.01764   0.04354
     Eigenvalues ---    0.04480   0.04509   0.04510   0.04577   0.04796
     Eigenvalues ---    0.04886   0.04960   0.05327   0.05453   0.05492
     Eigenvalues ---    0.05519   0.05530   0.05586   0.05623   0.05633
     Eigenvalues ---    0.05634   0.05645   0.05676   0.05726   0.05792
     Eigenvalues ---    0.05823   0.05829   0.05938   0.06058   0.06068
     Eigenvalues ---    0.06086   0.06153   0.11049   0.11051   0.11172
     Eigenvalues ---    0.11228   0.11288   0.11474   0.11553   0.11561
     Eigenvalues ---    0.11623   0.11749   0.11804   0.11889   0.13584
     Eigenvalues ---    0.13645   0.13658   0.13663   0.13785   0.13925
     Eigenvalues ---    0.13928   0.13934   0.13958   0.14037   0.14071
     Eigenvalues ---    0.14075   0.16000   0.16000   0.16000   0.16000
     Eigenvalues ---    0.16000   0.16000   0.21946   0.21965   0.21973
     Eigenvalues ---    0.22005   0.22010   0.22019   0.22027   0.22036
     Eigenvalues ---    0.22038   0.22045   0.22050   0.22094   0.24164
     Eigenvalues ---    0.24471   0.24526   0.24583   0.24719   0.24781
     Eigenvalues ---    0.25000   0.25000   0.25000   0.25000   0.25000
     Eigenvalues ---    0.25000   0.29623   0.29741   0.29766   0.30071
     Eigenvalues ---    0.30342   0.30784   0.30903   0.34946   0.34970
     Eigenvalues ---    0.34995   0.35023   0.35059   0.35093   0.35106
     Eigenvalues ---    0.35107   0.35162   0.35287   0.35387   0.35419
     Eigenvalues ---    0.35437   0.35454   0.35467   0.35500   0.35523
     Eigenvalues ---    0.35630   0.35651   0.35685   0.35697   0.35705
     Eigenvalues ---    0.35722   0.35724   0.35727   0.35744   0.35768
     Eigenvalues ---    0.35791   0.35798   0.35807   0.45430   0.45502
     Eigenvalues ---    0.45993   0.46181   0.46192   0.46534
 Maximum Force            0.000009     0.000015     YES
 RMS     Force            0.000002     0.000010     YES
 Maximum Displacement     0.005774     0.000060     NO 
 RMS     Displacement     0.001778     0.000040     NO 
                          Input orientation:                          
 ---------------------------------------------------------------------
 Center     Atomic      Atomic             Coordinates (Angstroms)
 Number     Number       Type             X           Y           Z
 ---------------------------------------------------------------------
      1          6           0        8.422880    3.028412   -0.788023
      2          1           0        9.233718    2.688555   -0.152519
      3          1           0        8.615018    2.684052   -1.798467
      4          1           0        8.436751    4.114260   -0.787568
      5          6           0        7.068383    2.524077   -0.307601
      6          1           0        6.882351    2.849995    0.714322
      7          1           0        6.284184    2.936964   -0.929310
      8          8           0        6.930946    1.132614   -0.398022
      9          6           0        7.583655    0.380814    0.581460
     10          1           0        7.343285    0.756860    1.573919
     11          1           0        8.663972    0.430922    0.454961
     12          6           0        7.152624   -1.068799    0.480460
     13          1           0        7.281867   -1.414902   -0.541834
     14          1           0        7.797446   -1.661295    1.120255
     15          8           0        5.846211   -1.292569    0.920505
     16          6           0        4.822295   -1.159619   -0.026026
     17          1           0        5.025915   -1.774526   -0.899540
     18          1           0        4.715109   -0.134674   -0.354544
     19          6           0        3.546172   -1.631549    0.639172
     20          1           0        3.345506   -1.027313    1.521286
     21          1           0        3.657249   -2.664315    0.961525
     22          8           0        2.510461   -1.509893   -0.291549
     23          6           0        1.256687   -1.902210    0.176336
     24          1           0        0.969787   -1.301182    1.037228
     25          1           0        1.271974   -2.942018    0.494396
     26          6           0        0.267373   -1.720912   -0.963657
     27          1           0        0.548668   -2.363103   -1.788112
     28          1           0        0.303445   -0.701840   -1.325732
     29         16           0       -1.435903   -2.175292   -0.521039
     30          6           0       -2.042316   -0.671899    0.310274
     31          1           0       -2.875372   -0.994430    0.919989
     32          1           0       -1.285915   -0.296794    0.986754
     33          6           0       -2.480383    0.421083   -0.663290
     34          1           0       -3.253526    0.053404   -1.325613
     35          1           0       -1.648598    0.722756   -1.285529
     36         16           0       -3.077854    1.935151    0.164498
     37          6           0       -4.888139    1.793182    0.026872
     38          1           0       -5.144238    1.611624   -1.009084
     39          1           0       -5.262390    2.776376    0.280793
     40          6           0       -5.520523    0.751555    0.946425
     41          1           0       -5.168301   -0.245636    0.712911
     42          1           0       -5.248242    0.957249    1.973488
     43         16           0       -7.338546    0.747487    0.908922
     44          6           0       -7.676964   -0.117530   -0.656512
     45          1           0       -7.283251    0.456229   -1.486194
     46          1           0       -7.172389   -1.076743   -0.641171
     47          6           0       -9.180701   -0.315072   -0.828049
     48          1           0       -9.592217   -0.907340   -0.018595
     49          1           0       -9.700661    0.636284   -0.850637
     50          1           0       -9.381843   -0.830743   -1.761341
 ---------------------------------------------------------------------
 Stoichiometry    C14H30O3S3
 Framework group  C1[X(C14H30O3S3)]
                         Standard orientation:                         
 ---------------------------------------------------------------------
 Center     Atomic      Atomic             Coordinates (Angstroms)
 Number     Number       Type             X           Y           Z
 ---------------------------------------------------------------------
      1          6           0       -8.422738    3.029092    0.787326
      2          1           0       -9.233581    2.689076    0.151913
      3          1           0       -8.614896    2.685032    1.797868
      4          1           0       -8.436574    4.114940    0.786555
      5          6           0       -7.068253    2.524573    0.307062
      6          1           0       -6.882200    2.850189   -0.714953
      7          1           0       -6.284046    2.937616    0.928658
      8          8           0       -6.930861    1.133132    0.397889
      9          6           0       -7.583586    0.381069   -0.581380
     10          1           0       -7.343194    0.756818   -1.573947
     11          1           0       -8.663902    0.431249   -0.454906
     12          6           0       -7.152602   -1.068529   -0.479955
     13          1           0       -7.281866   -1.414331    0.542438
     14          1           0       -7.797438   -1.661190   -1.119584
     15          8           0       -5.846192   -1.292469   -0.919922
     16          6           0       -4.822281   -1.159277    0.026579
     17          1           0       -5.025929   -1.773923    0.900270
     18          1           0       -4.715064   -0.134239    0.354800
     19          6           0       -3.546167   -1.631441   -0.638470
     20          1           0       -3.345473   -1.027468   -1.520758
     21          1           0       -3.657274   -2.664297   -0.960523
     22          8           0       -2.510461   -1.509548    0.292225
     23          6           0       -1.256695   -1.902041   -0.175534
     24          1           0       -0.969767   -1.301273   -1.036598
     25          1           0       -1.272012   -2.941941   -0.493291
     26          6           0       -0.267385   -1.720444    0.964416
     27          1           0       -0.548709   -2.362386    1.789055
     28          1           0       -0.303428   -0.701265    1.326195
     29         16           0        1.435880   -2.175008    0.521946
     30          6           0        2.042349   -0.671875   -0.309798
     31          1           0        2.875401   -0.994610   -0.919411
     32          1           0        1.285967   -0.296943   -0.986394
     33          6           0        2.480443    0.421376    0.663452
     34          1           0        3.253567    0.053864    1.325890
     35          1           0        1.648661    0.723256    1.285596
     36         16           0        3.077970    1.935183   -0.164770
     37          6           0        4.888249    1.793196   -0.027086
     38          1           0        5.144332    1.611931    1.008926
     39          1           0        5.262534    2.776304   -0.281289
     40          6           0        5.520608    0.751282   -0.946330
     41          1           0        5.168352   -0.245830   -0.712529
     42          1           0        5.248343    0.956686   -1.973455
     43         16           0        7.338630    0.747166   -0.908809
     44          6           0        7.677006   -0.117407    0.656879
     45          1           0        7.283304    0.456606    1.486391
     46          1           0        7.172400   -1.076609    0.641813
     47          6           0        9.180735   -0.314947    0.828488
     48          1           0        9.592240   -0.907464    0.019210
     49          1           0        9.700725    0.636398    0.850805
     50          1           0        9.381851   -0.830354    1.761933
 ---------------------------------------------------------------------
 Standard basis: 6-31G(d) (6D, 7F)
   372 basis functions,   752 primitive gaussians,   372 cartesian basis functions
    93 alpha electrons       93 beta electrons
 Requested convergence on RMS density matrix=1.00D-08 within  64 cycles.
 Requested convergence on MAX density matrix=1.00D-06.
 Requested convergence on             energy=1.00D-06.
 SCF Done:  E(RHF) =  -1964.69613927     A.U. after    8 cycles
            NFock=  8  Conv=0.29D-08     -V/T= 2.0006
 Step number   2 out of a maximum of   55
     Eigenvalues ---    0.00229   0.00230   0.00230   0.00230   0.00230
     Eigenvalues ---    0.00385   0.00409   0.00415   0.00453   0.00494
     Eigenvalues ---    0.00546   0.00574   0.00621   0.01632   0.01682
     Eigenvalues ---    0.01703   0.01727   0.01737   0.01764   0.04231
     Eigenvalues ---    0.04477   0.04489   0.04559   0.04668   0.04882
     Eigenvalues ---    0.04955   0.05128   0.05326   0.05453   0.05493
     Eigenvalues ---    0.05519   0.05530   0.05587   0.05626   0.05633
     Eigenvalues ---    0.05638   0.05672   0.05676   0.05730   0.05792
     Eigenvalues ---    0.05814   0.05836   0.05944   0.06058   0.06069
     Eigenvalues ---    0.06083   0.06142   0.11041   0.11051   0.11170
     Eigenvalues ---    0.11239   0.11292   0.11493   0.11557   0.11577
     Eigenvalues ---    0.11608   0.11749   0.11800   0.11889   0.13566
     Eigenvalues ---    0.13619   0.13649   0.13670   0.13777   0.13884
     Eigenvalues ---    0.13930   0.13939   0.13992   0.14061   0.14073
     Eigenvalues ---    0.14099   0.15989   0.16000   0.16000   0.16000
     Eigenvalues ---    0.16000   0.16007   0.21657   0.21953   0.21965
     Eigenvalues ---    0.21973   0.22010   0.22014   0.22031   0.22036
     Eigenvalues ---    0.22039   0.22043   0.22086   0.23323   0.24114
     Eigenvalues ---    0.24444   0.24526   0.24583   0.24689   0.24768
     Eigenvalues ---    0.24976   0.25000   0.25000   0.25000   0.25000
     Eigenvalues ---    0.26504   0.29615   0.29700   0.29763   0.30057
     Eigenvalues ---    0.30345   0.30864   0.30901   0.34864   0.34952
     Eigenvalues ---    0.34995   0.35009   0.35053   0.35090   0.35101
     Eigenvalues ---    0.35107   0.35154   0.35278   0.35377   0.35403
     Eigenvalues ---    0.35426   0.35451   0.35463   0.35494   0.35518
     Eigenvalues ---    0.35585   0.35651   0.35686   0.35694   0.35703
     Eigenvalues ---    0.35721   0.35723   0.35725   0.35751   0.35767
     Eigenvalues ---    0.35798   0.35802   0.36002   0.45355   0.45484
     Eigenvalues ---    0.45891   0.46138   0.46190   0.46488
 Maximum Force            0.000014     0.000015     YES
 RMS     Force            0.000002     0.000010     YES
 Maximum Displacement     0.005112     0.000060     NO 
 RMS     Displacement     0.001314     0.000040     NO 
                          Input orientation:                          
 ---------------------------------------------------------------------
 Center     Atomic      Atomic             Coordinates (Angstroms)
 Number     Number       Type             X           Y           Z
 ---------------------------------------------------------------------
      1          6           0        8.423605    3.027848   -0.787326
      2          1           0        9.234100    2.688093   -0.151328
      3          1           0        8.616210    2.683192   -1.797581
      4          1           0        8.437573    4.113695   -0.787164
      5          6           0        7.068826    2.523765   -0.307433
      6          1           0        6.882332    2.849960    0.714318
      7          1           0        6.284967    2.936574   -0.929623
      8          8           0        6.931298    1.132294   -0.397568
      9          6           0        7.583483    0.380678    0.582402
     10          1           0        7.342713    0.757006    1.574658
     11          1           0        8.663863    0.430638    0.456375
     12          6           0        7.152337   -1.068917    0.481587
     13          1           0        7.281968   -1.415290   -0.540567
     14          1           0        7.796833   -1.661321    1.121797
     15          8           0        5.845721   -1.292443    0.921150
     16          6           0        4.822204   -1.159596   -0.025824
     17          1           0        5.026096   -1.774744   -0.899106
     18          1           0        4.715276   -0.134719   -0.354639
     19          6           0        3.545752   -1.631203    0.638976
     20          1           0        3.344808   -1.026726    1.520862
     21          1           0        3.656571   -2.663905    0.961626
     22          8           0        2.510432   -1.509645   -0.292190
     23          6           0        1.256418   -1.901663    0.175298
     24          1           0        0.969250   -1.300371    1.035917
     25          1           0        1.271433   -2.941390    0.493637
     26          6           0        0.267580   -1.720525   -0.965134
     27          1           0        0.549096   -2.362970   -1.789315
     28          1           0        0.303959   -0.701552   -1.327455
     29         16           0       -1.435939   -2.174511   -0.523039
     30          6           0       -2.042181   -0.671075    0.308324
     31          1           0       -2.875002   -0.993632    0.918348
     32          1           0       -1.285587   -0.295838    0.984517
     33          6           0       -2.480718    0.421770   -0.665184
     34          1           0       -3.254082    0.053942   -1.327167
     35          1           0       -1.649210    0.723473   -1.287777
     36         16           0       -3.078036    1.935843    0.162701
     37          6           0       -4.888366    1.793395    0.026219
     38          1           0       -5.145059    1.611636   -1.009555
     39          1           0       -5.262717    2.776523    0.280246
     40          6           0       -5.519897    0.751710    0.946293
     41          1           0       -5.167548   -0.245414    0.712674
     42          1           0       -5.247029    0.957598    1.973161
     43         16           0       -7.337943    0.747149    0.909929
     44          6           0       -7.677112   -0.118202   -0.655158
     45          1           0       -7.284087    0.455539   -1.485179
     46          1           0       -7.172259   -1.077273   -0.639989
     47          6           0       -9.180902   -0.316191   -0.825710
     48          1           0       -9.591743   -0.908429   -0.015889
     49          1           0       -9.701140    0.635017   -0.848139
     50          1           0       -9.382491   -0.832087   -1.758783
 ---------------------------------------------------------------------
 Stoichiometry    C14H30O3S3
 Framework group  C1[X(C14H30O3S3)]
                         Standard orientation:                         
 ---------------------------------------------------------------------
 Center     Atomic      Atomic             Coordinates (Angstroms)
 Number     Number       Type             X           Y           Z
 ---------------------------------------------------------------------
      1          6           0       -8.423468    3.028096    0.787366
      2          1           0       -9.233970    2.688357    0.151368
      3          1           0       -8.616080    2.683444    1.797621
      4          1           0       -8.437415    4.113943    0.787204
      5          6           0       -7.068699    2.523986    0.307473
      6          1           0       -6.882199    2.850177   -0.714278
      7          1           0       -6.284832    2.936779    0.929663
      8          8           0       -6.931199    1.132512    0.397608
      9          6           0       -7.583399    0.380909   -0.582362
     10          1           0       -7.342621    0.757232   -1.574618
     11          1           0       -8.663778    0.430890   -0.456335
     12          6           0       -7.152283   -1.068695   -0.481547
     13          1           0       -7.281920   -1.415065    0.540607
     14          1           0       -7.796790   -1.661086   -1.121757
     15          8           0       -5.845671   -1.292247   -0.921109
     16          6           0       -4.822150   -1.159421    0.025864
     17          1           0       -5.026056   -1.774564    0.899146
     18          1           0       -4.715202   -0.134546    0.354679
     19          6           0       -3.545709   -1.631053   -0.638936
     20          1           0       -3.344752   -1.026581   -1.520822
     21          1           0       -3.656548   -2.663752   -0.961586
     22          8           0       -2.510386   -1.509516    0.292230
     23          6           0       -1.256379   -1.901559   -0.175257
     24          1           0       -0.969200   -1.300273   -1.035877
     25          1           0       -1.271416   -2.941286   -0.493597
     26          6           0       -0.267538   -1.720441    0.965174
     27          1           0       -0.549067   -2.362880    1.789355
     28          1           0       -0.303897   -0.701467    1.327495
     29         16           0        1.435972   -2.174461    0.523079
     30          6           0        2.042244   -0.671037   -0.308283
     31          1           0        2.875058   -0.993611   -0.918308
     32          1           0        1.285657   -0.295785   -0.984477
     33          6           0        2.480803    0.421799    0.665224
     34          1           0        3.254159    0.053956    1.327207
     35          1           0        1.649301    0.723519    1.287817
     36         16           0        3.078151    1.935860   -0.162661
     37          6           0        4.888479    1.793376   -0.026179
     38          1           0        5.145168    1.611612    1.009596
     39          1           0        5.262849    2.776497   -0.280206
     40          6           0        5.519989    0.751678   -0.946253
     41          1           0        5.167619   -0.245439   -0.712634
     42          1           0        5.247124    0.957572   -1.973121
     43         16           0        7.338034    0.747081   -0.909889
     44          6           0        7.677186   -0.118277    0.655198
     45          1           0        7.284172    0.455471    1.485219
     46          1           0        7.172313   -1.077338    0.640030
     47          6           0        9.180972   -0.316297    0.825750
     48          1           0        9.591801   -0.908543    0.015929
     49          1           0        9.701229    0.634901    0.848179
     50          1           0        9.382550   -0.832196    1.758823
 ---------------------------------------------------------------------
 Standard basis: 6-31G(d) (6D, 7F)
   372 basis functions,   752 primitive gaussians,   372 cartesian basis functions
    93 alpha electrons       93 beta electrons
 Requested convergence on RMS density matrix=1.00D-08 within  64 cycles.
 Requested convergence on MAX density matrix=1.00D-06.
 Requested convergence on             energy=1.00D-06.
 SCF Done:  E(RHF) =  -1964.69613928     A.U. after    7 cycles
            NFock=  7  Conv=0.92D-08     -V/T= 2.0006
 Step number   3 out of a maximum of   55
     Eigenvalues ---    0.00226   0.00230   0.00230   0.00230   0.00237
     Eigenvalues ---    0.00365   0.00405   0.00415   0.00448   0.00490
     Eigenvalues ---    0.00537   0.00574   0.00665   0.01483   0.01687
     Eigenvalues ---    0.01706   0.01729   0.01738   0.01764   0.04406
     Eigenvalues ---    0.04475   0.04546   0.04563   0.04882   0.04950
     Eigenvalues ---    0.05054   0.05196   0.05355   0.05457   0.05517
     Eigenvalues ---    0.05530   0.05553   0.05587   0.05628   0.05636
     Eigenvalues ---    0.05664   0.05673   0.05680   0.05739   0.05794
     Eigenvalues ---    0.05836   0.05894   0.05935   0.06055   0.06068
     Eigenvalues ---    0.06080   0.06158   0.11045   0.11052   0.11171
     Eigenvalues ---    0.11239   0.11373   0.11504   0.11556   0.11582
     Eigenvalues ---    0.11635   0.11749   0.11870   0.11904   0.13588
     Eigenvalues ---    0.13620   0.13648   0.13683   0.13740   0.13891
     Eigenvalues ---    0.13931   0.13944   0.14043   0.14053   0.14079
     Eigenvalues ---    0.14119   0.15995   0.16000   0.16000   0.16000
     Eigenvalues ---    0.16000   0.16123   0.21895   0.21965   0.21970
     Eigenvalues ---    0.21986   0.22011   0.22019   0.22032   0.22036
     Eigenvalues ---    0.22039   0.22065   0.23161   0.23590   0.24105
     Eigenvalues ---    0.24480   0.24540   0.24599   0.24750   0.24776
     Eigenvalues ---    0.24964   0.25000   0.25000   0.25000   0.25684
     Eigenvalues ---    0.26426   0.29597   0.29727   0.29762   0.30129
     Eigenvalues ---    0.30356   0.30858   0.30915   0.34915   0.34987
     Eigenvalues ---    0.35001   0.35042   0.35051   0.35089   0.35098
     Eigenvalues ---    0.35107   0.35165   0.35312   0.35389   0.35395
     Eigenvalues ---    0.35445   0.35458   0.35478   0.35501   0.35525
     Eigenvalues ---    0.35633   0.35651   0.35692   0.35698   0.35702
     Eigenvalues ---    0.35722   0.35724   0.35743   0.35756   0.35791
     Eigenvalues ---    0.35798   0.35975   0.36136   0.45157   0.45581
     Eigenvalues ---    0.45987   0.46158   0.46244   0.46510
 Maximum Force            0.000004     0.000015     YES
 RMS     Force            0.000001     0.000010     YES
 Maximum Displacement     0.001039     0.000060     NO 
 RMS     Displacement     0.000231     0.000040     NO 
                          Input orientation:                          
 ---------------------------------------------------------------------
 Center     Atomic      Atomic             Coordinates (Angstroms)
 Number     Number       Type             X           Y           Z
 ---------------------------------------------------------------------
      1          6           0        8.423510    3.028033   -0.787185
      2          1           0        9.233949    2.688333   -0.151085
      3          1           0        8.616268    2.683397   -1.797417
      4          1           0        8.437398    4.113880   -0.787014
      5          6           0        7.068702    2.523858   -0.307474
      6          1           0        6.882076    2.850005    0.714268
      7          1           0        6.284886    2.936638   -0.929738
      8          8           0        6.931289    1.132381   -0.397650
      9          6           0        7.583472    0.380793    0.582342
     10          1           0        7.342634    0.757105    1.574587
     11          1           0        8.663854    0.430827    0.456363
     12          6           0        7.152418   -1.068832    0.481509
     13          1           0        7.282074   -1.415183   -0.540649
     14          1           0        7.796953   -1.661203    1.121710
     15          8           0        5.845821   -1.292470    0.921071
     16          6           0        4.822280   -1.159650   -0.025880
     17          1           0        5.026187   -1.774769   -0.899178
     18          1           0        4.715294   -0.134773   -0.354674
     19          6           0        3.545862   -1.631332    0.638932
     20          1           0        3.344905   -1.026884    1.520836
     21          1           0        3.656738   -2.664034    0.961559
     22          8           0        2.510519   -1.509813   -0.292213
     23          6           0        1.256527   -1.901866    0.175300
     24          1           0        0.969353   -1.300575    1.035918
     25          1           0        1.271576   -2.941590    0.493650
     26          6           0        0.267662   -1.720763   -0.965114
     27          1           0        0.549161   -2.363224   -1.789288
     28          1           0        0.304024   -0.701797   -1.327456
     29         16           0       -1.435841   -2.174755   -0.522963
     30          6           0       -2.042058   -0.671310    0.308401
     31          1           0       -2.874823   -0.993875    0.918498
     32          1           0       -1.285422   -0.296034    0.984526
     33          6           0       -2.480707    0.421492   -0.665105
     34          1           0       -3.254123    0.053628   -1.327009
     35          1           0       -1.649261    0.723184   -1.287785
     36         16           0       -3.077960    1.935589    0.162776
     37          6           0       -4.888292    1.793300    0.026143
     38          1           0       -5.144911    1.611392   -1.009624
     39          1           0       -5.262557    2.776513    0.279967
     40          6           0       -5.520028    0.751848    0.946341
     41          1           0       -5.167795   -0.245360    0.712904
     42          1           0       -5.247210    0.957864    1.973197
     43         16           0       -7.338071    0.747522    0.909843
     44          6           0       -7.677238   -0.118022   -0.655136
     45          1           0       -7.284078    0.455544   -1.485214
     46          1           0       -7.172511   -1.077156   -0.639788
     47          6           0       -9.181043   -0.315838   -0.825767
     48          1           0       -9.592026   -0.907879   -0.015875
     49          1           0       -9.701150    0.635437   -0.848402
     50          1           0       -9.382629   -0.831869   -1.758765
 ---------------------------------------------------------------------
 Stoichiometry    C14H30O3S3
 Framework group  C1[X(C14H30O3S3)]
                         Standard orientation:                         
 ---------------------------------------------------------------------
 Center     Atomic      Atomic             Coordinates (Angstroms)
 Number     Number       Type             X           Y           Z
 ---------------------------------------------------------------------
      1          6           0       -8.423334    3.028376    0.787223
      2          1           0       -9.233782    2.688699    0.151122
      3          1           0       -8.616101    2.683746    1.797455
      4          1           0       -8.437189    4.114224    0.787052
      5          6           0       -7.068540    2.524161    0.307512
      6          1           0       -6.881904    2.850302   -0.714230
      7          1           0       -6.284712    2.936918    0.929776
      8          8           0       -6.931168    1.132680    0.397688
      9          6           0       -7.583373    0.381111   -0.582304
     10          1           0       -7.342524    0.757416   -1.574549
     11          1           0       -8.663754    0.431177   -0.456326
     12          6           0       -7.152362   -1.068527   -0.481471
     13          1           0       -7.282028   -1.414874    0.540687
     14          1           0       -7.796914   -1.660879   -1.121672
     15          8           0       -5.845771   -1.292203   -0.921034
     16          6           0       -4.822227   -1.159413    0.025918
     17          1           0       -5.026152   -1.774526    0.899216
     18          1           0       -4.715210   -0.134539    0.354712
     19          6           0       -3.545822   -1.631133   -0.638894
     20          1           0       -3.344847   -1.026691   -1.520798
     21          1           0       -3.656729   -2.663832   -0.961522
     22          8           0       -2.510476   -1.509644    0.292251
     23          6           0       -1.256495   -1.901734   -0.175262
     24          1           0       -0.969304   -1.300451   -1.035880
     25          1           0       -1.271575   -2.941457   -0.493612
     26          6           0       -0.267624   -1.720660    0.965152
     27          1           0       -0.549143   -2.363112    1.789326
     28          1           0       -0.303957   -0.701693    1.327494
     29         16           0        1.435865   -2.174702    0.523001
     30          6           0        2.042126   -0.671275   -0.308364
     31          1           0        2.874881   -0.993864   -0.918460
     32          1           0        1.285501   -0.295977   -0.984489
     33          6           0        2.480807    0.421515    0.665143
     34          1           0        3.254213    0.053627    1.327046
     35          1           0        1.649370    0.723231    1.287823
     36         16           0        3.078105    1.935594   -0.162738
     37          6           0        4.888432    1.793252   -0.026105
     38          1           0        5.145046    1.611336    1.009662
     39          1           0        5.262727    2.776453   -0.279929
     40          6           0        5.520138    0.751781   -0.946303
     41          1           0        5.167876   -0.245416   -0.712866
     42          1           0        5.247326    0.957805   -1.973159
     43         16           0        7.338180    0.747401   -0.909806
     44          6           0        7.677322   -0.118153    0.655174
     45          1           0        7.284179    0.455425    1.485252
     46          1           0        7.172567   -1.077272    0.639826
     47          6           0        9.181121   -0.316012    0.825805
     48          1           0        9.592087   -0.908066    0.015913
     49          1           0        9.701257    0.635247    0.848440
     50          1           0        9.382692   -0.832049    1.758803
 ---------------------------------------------------------------------
 Standard basis: 6-31G(d) (6D, 7F)
   372 basis functions,   752 primitive gaussians,   372 cartesian basis functions
    93 alpha electrons       93 beta electrons
 Requested convergence on RMS density matrix=1.00D-08 within  64 cycles.
 Requested convergence on MAX density matrix=1.00D-06.
 Requested convergence on             energy=1.00D-06.
 SCF Done:  E(RHF) =  -1964.69613928     A.U. after    6 cycles
            NFock=  6  Conv=0.46D-08     -V/T= 2.0006
 Step number   4 out of a maximum of   55
     Eigenvalues ---    0.00207   0.00230   0.00230   0.00231   0.00275
     Eigenvalues ---    0.00399   0.00409   0.00436   0.00484   0.00525
     Eigenvalues ---    0.00573   0.00634   0.00663   0.01199   0.01688
     Eigenvalues ---    0.01707   0.01731   0.01739   0.01764   0.04411
     Eigenvalues ---    0.04475   0.04557   0.04735   0.04889   0.04970
     Eigenvalues ---    0.05066   0.05306   0.05371   0.05462   0.05518
     Eigenvalues ---    0.05530   0.05560   0.05587   0.05631   0.05646
     Eigenvalues ---    0.05668   0.05676   0.05715   0.05775   0.05799
     Eigenvalues ---    0.05836   0.05924   0.05938   0.06062   0.06065
     Eigenvalues ---    0.06083   0.06174   0.11050   0.11053   0.11171
     Eigenvalues ---    0.11239   0.11343   0.11505   0.11553   0.11639
     Eigenvalues ---    0.11702   0.11752   0.11872   0.11912   0.13566
     Eigenvalues ---    0.13645   0.13654   0.13702   0.13728   0.13876
     Eigenvalues ---    0.13944   0.14011   0.14037   0.14056   0.14080
     Eigenvalues ---    0.14166   0.15992   0.16000   0.16000   0.16000
     Eigenvalues ---    0.16001   0.16123   0.21723   0.21963   0.21965
     Eigenvalues ---    0.21977   0.22011   0.22032   0.22035   0.22038
     Eigenvalues ---    0.22052   0.22636   0.23168   0.24015   0.24185
     Eigenvalues ---    0.24487   0.24544   0.24604   0.24754   0.24785
     Eigenvalues ---    0.24944   0.25000   0.25000   0.25399   0.25712
     Eigenvalues ---    0.27610   0.29710   0.29761   0.29983   0.30156
     Eigenvalues ---    0.30443   0.30908   0.31055   0.34962   0.34989
     Eigenvalues ---    0.35006   0.35051   0.35076   0.35090   0.35097
     Eigenvalues ---    0.35108   0.35171   0.35311   0.35390   0.35420
     Eigenvalues ---    0.35446   0.35460   0.35487   0.35512   0.35555
     Eigenvalues ---    0.35633   0.35665   0.35693   0.35701   0.35718
     Eigenvalues ---    0.35723   0.35739   0.35743   0.35758   0.35797
     Eigenvalues ---    0.35948   0.36111   0.36292   0.45077   0.45592
     Eigenvalues ---    0.46039   0.46201   0.46282   0.46575
 Maximum Force            0.000005     0.000015     YES
 RMS     Force            0.000001     0.000010     YES
 Maximum Displacement     0.001117     0.000060     NO 
 RMS     Displacement     0.000266     0.000040     NO 
                          Input orientation:                          
 ---------------------------------------------------------------------
 Center     Atomic      Atomic             Coordinates (Angstroms)
 Number     Number       Type             X           Y           Z
 ---------------------------------------------------------------------
      1          6           0        8.423404    3.028077   -0.786903
      2          1           0        9.233756    2.688433   -0.150662
      3          1           0        8.616352    2.683442   -1.797100
      4          1           0        8.437224    4.113924   -0.786742
      5          6           0        7.068543    2.523827   -0.307419
      6          1           0        6.881744    2.849943    0.714301
      7          1           0        6.284802    2.936582   -0.929797
      8          8           0        6.931220    1.132346   -0.397636
      9          6           0        7.583349    0.380777    0.582406
     10          1           0        7.342424    0.757085    1.574631
     11          1           0        8.663739    0.430848    0.456510
     12          6           0        7.152347   -1.068865    0.481550
     13          1           0        7.282048   -1.415202   -0.540608
     14          1           0        7.796881   -1.661219    1.121767
     15          8           0        5.845746   -1.292564    0.921067
     16          6           0        4.822222   -1.159715   -0.025897
     17          1           0        5.026145   -1.774811   -0.899210
     18          1           0        4.715241   -0.134830   -0.354667
     19          6           0        3.545791   -1.631414    0.638878
     20          1           0        3.344818   -1.026989    1.520795
     21          1           0        3.656663   -2.664124    0.961483
     22          8           0        2.510466   -1.509879   -0.292283
     23          6           0        1.256457   -1.901898    0.175211
     24          1           0        0.969280   -1.300592    1.035818
     25          1           0        1.271475   -2.941619    0.493574
     26          6           0        0.267615   -1.720783   -0.965220
     27          1           0        0.549094   -2.363276   -1.789375
     28          1           0        0.304025   -0.701826   -1.327587
     29         16           0       -1.435912   -2.174691   -0.523075
     30          6           0       -2.042105   -0.671152    0.308136
     31          1           0       -2.874934   -0.993622    0.918196
     32          1           0       -1.285495   -0.295870    0.984287
     33          6           0       -2.480626    0.421599   -0.665485
     34          1           0       -3.254035    0.053727   -1.327392
     35          1           0       -1.649131    0.723179   -1.288152
     36         16           0       -3.077825    1.935795    0.162252
     37          6           0       -4.888165    1.793411    0.025863
     38          1           0       -5.144912    1.611397   -1.009855
     39          1           0       -5.262447    2.776626    0.279650
     40          6           0       -5.519723    0.752003    0.946234
     41          1           0       -5.167466   -0.245205    0.712830
     42          1           0       -5.246779    0.958118    1.973036
     43         16           0       -7.337770    0.747576    0.909983
     44          6           0       -7.677104   -0.118113   -0.654880
     45          1           0       -7.284085    0.455408   -1.485056
     46          1           0       -7.172325   -1.077220   -0.639523
     47          6           0       -9.180922   -0.316017   -0.825292
     48          1           0       -9.591771   -0.907993   -0.015285
     49          1           0       -9.701076    0.635231   -0.847957
     50          1           0       -9.382606   -0.832155   -1.758209
 ---------------------------------------------------------------------
 Stoichiometry    C14H30O3S3
 Framework group  C1[X(C14H30O3S3)]
                         Standard orientation:                         
 ---------------------------------------------------------------------
 Center     Atomic      Atomic             Coordinates (Angstroms)
 Number     Number       Type             X           Y           Z
 ---------------------------------------------------------------------
      1          6           0       -8.423196    3.028424    0.786895
      2          1           0       -9.233559    2.688806    0.150655
      3          1           0       -8.616155    2.683796    1.797092
      4          1           0       -8.436981    4.114272    0.786734
      5          6           0       -7.068352    2.524131    0.307412
      6          1           0       -6.881542    2.850240   -0.714309
      7          1           0       -6.284598    2.936860    0.929789
      8          8           0       -6.931073    1.132645    0.397628
      9          6           0       -7.583226    0.381097   -0.582414
     10          1           0       -7.342289    0.757398   -1.574639
     11          1           0       -8.663615    0.431202   -0.456518
     12          6           0       -7.152271   -1.068559   -0.481558
     13          1           0       -7.281984   -1.414892    0.540600
     14          1           0       -7.796824   -1.660893   -1.121774
     15          8           0       -5.845677   -1.292300   -0.921075
     16          6           0       -4.822150   -1.159484    0.025889
     17          1           0       -5.026092   -1.774573    0.899202
     18          1           0       -4.715135   -0.134603    0.354659
     19          6           0       -3.545733   -1.631224   -0.638886
     20          1           0       -3.344741   -1.026806   -1.520803
     21          1           0       -3.656639   -2.663931   -0.961491
     22          8           0       -2.510404   -1.509722    0.292275
     23          6           0       -1.256408   -1.901782   -0.175219
     24          1           0       -0.969212   -1.300485   -1.035826
     25          1           0       -1.271460   -2.941503   -0.493581
     26          6           0       -0.267560   -1.720698    0.965212
     27          1           0       -0.549060   -2.363183    1.789367
     28          1           0       -0.303937   -0.701741    1.327579
     29         16           0        1.435952   -2.174662    0.523068
     30          6           0        2.042194   -0.671142   -0.308144
     31          1           0        2.875012   -0.993639   -0.918204
     32          1           0        1.285596   -0.295835   -0.984294
     33          6           0        2.480750    0.421595    0.665477
     34          1           0        3.254147    0.053698    1.327384
     35          1           0        1.649264    0.723202    1.288144
     36         16           0        3.077997    1.935772   -0.162260
     37          6           0        4.888333    1.793329   -0.025871
     38          1           0        5.145074    1.611307    1.009847
     39          1           0        5.262646    2.776532   -0.279658
     40          6           0        5.519858    0.751901   -0.946242
     41          1           0        5.167568   -0.245295   -0.712838
     42          1           0        5.246920    0.958025   -1.973044
     43         16           0        7.337904    0.747415   -0.909991
     44          6           0        7.677210   -0.118285    0.654872
     45          1           0        7.284210    0.455249    1.485048
     46          1           0        7.172401   -1.077375    0.639515
     47          6           0        9.181022   -0.316237    0.825284
     48          1           0        9.591852   -0.908227    0.015277
     49          1           0        9.701207    0.634994    0.847949
     50          1           0        9.382689   -0.832381    1.758201
 ---------------------------------------------------------------------
 Standard basis: 6-31G(d) (6D, 7F)
   372 basis functions,   752 primitive gaussians,   372 cartesian basis functions
    93 alpha electrons       93 beta electrons
 Requested convergence on RMS density matrix=1.00D-08 within  64 cycles.
 Requested convergence on MAX density matrix=1.00D-06.
 Requested convergence on             energy=1.00D-06.
 SCF Done:  E(RHF) =  -1964.69613928     A.U. after    6 cycles
            NFock=  6  Conv=0.62D-08     -V/T= 2.0006
 Step number   5 out of a maximum of   55
     Eigenvalues ---    0.00225   0.00230   0.00230   0.00236   0.00284
     Eigenvalues ---    0.00399   0.00409   0.00433   0.00486   0.00521
     Eigenvalues ---    0.00576   0.00644   0.00680   0.00997   0.01687
     Eigenvalues ---    0.01708   0.01735   0.01743   0.01765   0.04416
     Eigenvalues ---    0.04490   0.04575   0.04873   0.04945   0.04990
     Eigenvalues ---    0.05212   0.05306   0.05377   0.05467   0.05519
     Eigenvalues ---    0.05530   0.05564   0.05609   0.05632   0.05658
     Eigenvalues ---    0.05676   0.05696   0.05730   0.05785   0.05818
     Eigenvalues ---    0.05838   0.05926   0.05971   0.06063   0.06080
     Eigenvalues ---    0.06131   0.06182   0.11052   0.11062   0.11173
     Eigenvalues ---    0.11239   0.11488   0.11504   0.11566   0.11645
     Eigenvalues ---    0.11745   0.11797   0.11872   0.11932   0.13591
     Eigenvalues ---    0.13647   0.13672   0.13698   0.13841   0.13920
     Eigenvalues ---    0.13988   0.14011   0.14055   0.14064   0.14119
     Eigenvalues ---    0.14447   0.15995   0.16000   0.16000   0.16000
     Eigenvalues ---    0.16006   0.16161   0.21722   0.21960   0.21967
     Eigenvalues ---    0.21976   0.22011   0.22032   0.22036   0.22050
     Eigenvalues ---    0.22192   0.23120   0.23515   0.24018   0.24287
     Eigenvalues ---    0.24494   0.24579   0.24617   0.24760   0.24867
     Eigenvalues ---    0.24978   0.25000   0.25141   0.25313   0.26431
     Eigenvalues ---    0.29325   0.29757   0.29820   0.30140   0.30407
     Eigenvalues ---    0.30855   0.30913   0.32935   0.34982   0.35002
     Eigenvalues ---    0.35016   0.35070   0.35077   0.35097   0.35108
     Eigenvalues ---    0.35130   0.35173   0.35328   0.35392   0.35441
     Eigenvalues ---    0.35459   0.35485   0.35507   0.35512   0.35552
     Eigenvalues ---    0.35659   0.35693   0.35700   0.35717   0.35723
     Eigenvalues ---    0.35729   0.35741   0.35755   0.35787   0.35924
     Eigenvalues ---    0.36022   0.36233   0.37514   0.45485   0.45869
     Eigenvalues ---    0.46044   0.46277   0.46482   0.46890
 Maximum Force            0.000004     0.000015     YES
 RMS     Force            0.000001     0.000010     YES
 Maximum Displacement     0.000654     0.000060     NO 
 RMS     Displacement     0.000151     0.000040     NO 
                          Input orientation:                          
 ---------------------------------------------------------------------
 Center     Atomic      Atomic             Coordinates (Angstroms)
 Number     Number       Type             X           Y           Z
 ---------------------------------------------------------------------
      1          6           0        8.423293    3.028121   -0.787015
      2          1           0        9.233664    2.688520   -0.150776
      3          1           0        8.616247    2.683477   -1.797207
      4          1           0        8.437071    4.113968   -0.786871
      5          6           0        7.068457    2.523825   -0.307510
      6          1           0        6.881650    2.849953    0.714205
      7          1           0        6.284699    2.936536   -0.929892
      8          8           0        6.931177    1.132337   -0.397707
      9          6           0        7.583353    0.380800    0.582330
     10          1           0        7.342449    0.757122    1.574555
     11          1           0        8.663738    0.430887    0.456399
     12          6           0        7.152381   -1.068851    0.481513
     13          1           0        7.282065   -1.415204   -0.540641
     14          1           0        7.796941   -1.661179    1.121726
     15          8           0        5.845793   -1.292567    0.921061
     16          6           0        4.822249   -1.159728   -0.025883
     17          1           0        5.026159   -1.774825   -0.899197
     18          1           0        4.715256   -0.134844   -0.354654
     19          6           0        3.545836   -1.631431    0.638921
     20          1           0        3.344875   -1.027000    1.520836
     21          1           0        3.656720   -2.664138    0.961533
     22          8           0        2.510491   -1.509910   -0.292221
     23          6           0        1.256490   -1.901925    0.175302
     24          1           0        0.969328   -1.300606    1.035904
     25          1           0        1.271517   -2.941641    0.493679
     26          6           0        0.267630   -1.720833   -0.965117
     27          1           0        0.549106   -2.363334   -1.789267
     28          1           0        0.304022   -0.701881   -1.327498
     29         16           0       -1.435884   -2.174756   -0.522941
     30          6           0       -2.042063   -0.671236    0.308315
     31          1           0       -2.874877   -0.993721    0.918387
     32          1           0       -1.285439   -0.295967    0.984455
     33          6           0       -2.480604    0.421535   -0.665274
     34          1           0       -3.254014    0.053676   -1.327188
     35          1           0       -1.649114    0.723138   -1.287938
     36         16           0       -3.077807    1.935713    0.162496
     37          6           0       -4.888147    1.793386    0.026016
     38          1           0       -5.144856    1.611492   -1.009731
     39          1           0       -5.262415    2.776583    0.279895
     40          6           0       -5.519770    0.751897    0.946249
     41          1           0       -5.167527   -0.245295    0.712764
     42          1           0       -5.246868    0.957903    1.973085
     43         16           0       -7.337815    0.747515    0.909916
     44          6           0       -7.677098   -0.118007   -0.655050
     45          1           0       -7.284028    0.455591   -1.485149
     46          1           0       -7.172341   -1.077126   -0.639770
     47          6           0       -9.180912   -0.315859   -0.825552
     48          1           0       -9.591810   -0.907920   -0.015631
     49          1           0       -9.701045    0.635402   -0.848131
     50          1           0       -9.382566   -0.831885   -1.758537
 ---------------------------------------------------------------------
 Stoichiometry    C14H30O3S3
 Framework group  C1[X(C14H30O3S3)]
                         Standard orientation:                         
 ---------------------------------------------------------------------
 Center     Atomic      Atomic             Coordinates (Angstroms)
 Number     Number       Type             X           Y           Z
 ---------------------------------------------------------------------
      1          6           0       -8.423081    3.028496    0.787033
      2          1           0       -9.233463    2.688922    0.150794
      3          1           0       -8.616046    2.683859    1.797225
      4          1           0       -8.436822    4.114344    0.786890
      5          6           0       -7.068262    2.524155    0.307528
      6          1           0       -6.881444    2.850277   -0.714187
      7          1           0       -6.284489    2.936840    0.929910
      8          8           0       -6.931028    1.132663    0.397725
      9          6           0       -7.583229    0.381147   -0.582312
     10          1           0       -7.342312    0.757461   -1.574537
     11          1           0       -8.663612    0.431270   -0.456381
     12          6           0       -7.152304   -1.068518   -0.481494
     13          1           0       -7.282000   -1.414867    0.540660
     14          1           0       -7.796884   -1.660825   -1.121708
     15          8           0       -5.845724   -1.292277   -0.921043
     16          6           0       -4.822176   -1.159472    0.025901
     17          1           0       -5.026106   -1.774562    0.899216
     18          1           0       -4.715149   -0.134592    0.354672
     19          6           0       -3.545778   -1.631218   -0.638903
     20          1           0       -3.344798   -1.026794   -1.520818
     21          1           0       -3.656697   -2.663921   -0.961514
     22          8           0       -2.510430   -1.509731    0.292239
     23          6           0       -1.256442   -1.901788   -0.175283
     24          1           0       -0.969260   -1.300478   -1.035886
     25          1           0       -1.271503   -2.941503   -0.493661
     26          6           0       -0.267576   -1.720729    0.965135
     27          1           0       -0.549073   -2.363220    1.789286
     28          1           0       -0.303933   -0.701776    1.327517
     29         16           0        1.435923   -2.174708    0.522959
     30          6           0        2.042153   -0.671209   -0.308296
     31          1           0        2.874955   -0.993721   -0.918369
     32          1           0        1.285541   -0.295914   -0.984437
     33          6           0        2.480730    0.421548    0.665293
     34          1           0        3.254128    0.053663    1.327206
     35          1           0        1.649250    0.723178    1.287956
     36         16           0        3.077983    1.935706   -0.162477
     37          6           0        4.888318    1.793319   -0.025998
     38          1           0        5.145021    1.611417    1.009750
     39          1           0        5.262619    2.776503   -0.279877
     40          6           0        5.519907    0.751809   -0.946231
     41          1           0        5.167631   -0.245371   -0.712746
     42          1           0        5.247012    0.957823   -1.973066
     43         16           0        7.337951    0.747366   -0.909897
     44          6           0        7.677205   -0.118167    0.655069
     45          1           0        7.284155    0.455444    1.485167
     46          1           0        7.172417   -1.077269    0.639789
     47          6           0        9.181013   -0.316069    0.825570
     48          1           0        9.591891   -0.908143    0.015649
     49          1           0        9.701178    0.635175    0.848149
     50          1           0        9.382650   -0.832102    1.758556
 ---------------------------------------------------------------------
 Standard basis: 6-31G(d) (6D, 7F)
   372 basis functions,   752 primitive gaussians,   372 cartesian basis functions
    93 alpha electrons       93 beta electrons
 Requested convergence on RMS density matrix=1.00D-08 within  64 cycles.
 Requested convergence on MAX density matrix=1.00D-06.
 Requested convergence on             energy=1.00D-06.
 SCF Done:  E(RHF) =  -1964.69613928     A.U. after    6 cycles
            NFock=  6  Conv=0.35D-08     -V/T= 2.0006
 Step number   6 out of a maximum of   55
     Eigenvalues ---    0.00223   0.00230   0.00230   0.00288   0.00345
     Eigenvalues ---    0.00384   0.00400   0.00417   0.00487   0.00506
     Eigenvalues ---    0.00571   0.00670   0.00682   0.00770   0.01679
     Eigenvalues ---    0.01709   0.01727   0.01761   0.01766   0.04383
     Eigenvalues ---    0.04479   0.04554   0.04893   0.04993   0.04998
     Eigenvalues ---    0.05149   0.05356   0.05410   0.05475   0.05516
     Eigenvalues ---    0.05530   0.05575   0.05599   0.05641   0.05658
     Eigenvalues ---    0.05675   0.05701   0.05766   0.05787   0.05801
     Eigenvalues ---    0.05844   0.05921   0.05950   0.06071   0.06077
     Eigenvalues ---    0.06094   0.06177   0.11051   0.11057   0.11170
     Eigenvalues ---    0.11259   0.11427   0.11507   0.11554   0.11633
     Eigenvalues ---    0.11762   0.11780   0.11870   0.11923   0.13553
     Eigenvalues ---    0.13594   0.13648   0.13687   0.13777   0.13873
     Eigenvalues ---    0.13962   0.14009   0.14036   0.14058   0.14106
     Eigenvalues ---    0.14145   0.15995   0.15998   0.16000   0.16000
     Eigenvalues ---    0.16002   0.16151   0.21272   0.21929   0.21967
     Eigenvalues ---    0.21970   0.21995   0.22012   0.22036   0.22046
     Eigenvalues ---    0.22447   0.23153   0.23484   0.23986   0.24182
     Eigenvalues ---    0.24484   0.24565   0.24611   0.24770   0.24795
     Eigenvalues ---    0.24978   0.25000   0.25032   0.25688   0.26394
     Eigenvalues ---    0.29278   0.29725   0.29762   0.30141   0.30415
     Eigenvalues ---    0.30893   0.30916   0.32903   0.34916   0.34992
     Eigenvalues ---    0.35012   0.35049   0.35077   0.35089   0.35104
     Eigenvalues ---    0.35110   0.35171   0.35326   0.35393   0.35438
     Eigenvalues ---    0.35441   0.35474   0.35489   0.35509   0.35535
     Eigenvalues ---    0.35651   0.35662   0.35695   0.35703   0.35723
     Eigenvalues ---    0.35724   0.35735   0.35744   0.35757   0.35941
     Eigenvalues ---    0.35984   0.36150   0.36934   0.45202   0.45723
     Eigenvalues ---    0.46008   0.46119   0.46525   0.46644
 Maximum Force            0.000001     0.000015     YES
 RMS     Force            0.000000     0.000010     YES
 Maximum Displacement     0.000459     0.000060     NO 
 RMS     Displacement     0.000104     0.000040     NO 
                          Input orientation:                          
 ---------------------------------------------------------------------
 Center     Atomic      Atomic             Coordinates (Angstroms)
 Number     Number       Type             X           Y           Z
 ---------------------------------------------------------------------
      1          6           0        8.423317    3.028121   -0.786897
      2          1           0        9.233661    2.688524   -0.150623
      3          1           0        8.616335    2.683510   -1.797088
      4          1           0        8.437069    4.113969   -0.786724
      5          6           0        7.068467    2.523779   -0.307478
      6          1           0        6.881595    2.849876    0.714235
      7          1           0        6.284737    2.936489   -0.929895
      8          8           0        6.931211    1.132291   -0.397725
      9          6           0        7.583387    0.380730    0.582295
     10          1           0        7.342493    0.757035    1.574529
     11          1           0        8.663770    0.430808    0.456355
     12          6           0        7.152408   -1.068916    0.481452
     13          1           0        7.282082   -1.415251   -0.540709
     14          1           0        7.796973   -1.661255    1.121649
     15          8           0        5.845825   -1.292643    0.921012
     16          6           0        4.822268   -1.159747   -0.025912
     17          1           0        5.026152   -1.774812   -0.899254
     18          1           0        4.715288   -0.134848   -0.354638
     19          6           0        3.545858   -1.631454    0.638896
     20          1           0        3.344919   -1.027048    1.520833
     21          1           0        3.656731   -2.664173    0.961473
     22          8           0        2.510502   -1.509886   -0.292228
     23          6           0        1.256496   -1.901875    0.175306
     24          1           0        0.969363   -1.300560    1.035921
     25          1           0        1.271501   -2.941596    0.493668
     26          6           0        0.267627   -1.720746   -0.965099
     27          1           0        0.549088   -2.363239   -1.789261
     28          1           0        0.304029   -0.701791   -1.327467
     29         16           0       -1.435889   -2.174654   -0.522919
     30          6           0       -2.042076   -0.671114    0.308293
     31          1           0       -2.874879   -0.993586    0.918386
     32          1           0       -1.285450   -0.295814    0.984413
     33          6           0       -2.480633    0.421622   -0.665328
     34          1           0       -3.254031    0.053733   -1.327237
     35          1           0       -1.649143    0.723225   -1.287992
     36         16           0       -3.077872    1.935815    0.162394
     37          6           0       -4.888210    1.793439    0.025928
     38          1           0       -5.144917    1.611466   -1.009806
     39          1           0       -5.262494    2.776648    0.279737
     40          6           0       -5.519811    0.752009    0.946241
     41          1           0       -5.167540   -0.245193    0.712845
     42          1           0       -5.246922    0.958110    1.973060
     43         16           0       -7.337854    0.747571    0.909894
     44          6           0       -7.677101   -0.118109   -0.654993
     45          1           0       -7.284042    0.455422   -1.485142
     46          1           0       -7.172317   -1.077212   -0.639619
     47          6           0       -9.180907   -0.316022   -0.825487
     48          1           0       -9.591792   -0.908030   -0.015522
     49          1           0       -9.701070    0.635221   -0.848146
     50          1           0       -9.382541   -0.832128   -1.758433
 ---------------------------------------------------------------------
 Stoichiometry    C14H30O3S3
 Framework group  C1[X(C14H30O3S3)]
                         Standard orientation:                         
 ---------------------------------------------------------------------
 Center     Atomic      Atomic             Coordinates (Angstroms)
 Number     Number       Type             X           Y           Z
 ---------------------------------------------------------------------
      1          6           0       -8.423097    3.028517    0.786904
      2          1           0       -9.233454    2.688951    0.150630
      3          1           0       -8.616127    2.683913    1.797094
      4          1           0       -8.436807    4.114366    0.786731
      5          6           0       -7.068266    2.524124    0.307485
      6          1           0       -6.881382    2.850214   -0.714228
      7          1           0       -6.284520    2.936804    0.929902
      8          8           0       -6.931063    1.132631    0.397731
      9          6           0       -7.583267    0.381095   -0.582289
     10          1           0       -7.342358    0.757390   -1.574522
     11          1           0       -8.663648    0.431213   -0.456349
     12          6           0       -7.152343   -1.068567   -0.481446
     13          1           0       -7.282030   -1.414898    0.540716
     14          1           0       -7.796930   -1.660882   -1.121643
     15          8           0       -5.845768   -1.292345   -0.921005
     16          6           0       -4.822206   -1.159487    0.025918
     17          1           0       -5.026114   -1.774544    0.899260
     18          1           0       -4.715188   -0.134592    0.354645
     19          6           0       -3.545814   -1.631242   -0.638890
     20          1           0       -3.344852   -1.026844   -1.520826
     21          1           0       -3.656726   -2.663957   -0.961466
     22          8           0       -2.510453   -1.509713    0.292234
     23          6           0       -1.256462   -1.901750   -0.175300
     24          1           0       -0.969307   -1.300446   -1.035914
     25          1           0       -1.271507   -2.941470   -0.493661
     26          6           0       -0.267587   -1.720659    0.965106
     27          1           0       -0.549072   -2.363141    1.789268
     28          1           0       -0.303950   -0.701702    1.327474
     29         16           0        1.435913   -2.174631    0.522925
     30          6           0        2.042156   -0.671114   -0.308287
[...]
     19          6           0        3.545835   -1.631376    0.638941
     20          1           0        3.344897   -1.026961    1.520872
     21          1           0        3.656710   -2.664091    0.961527
     22          8           0        2.510476   -1.509818   -0.292182
     23          6           0        1.256476   -1.901825    0.175355
     24          1           0        0.969336   -1.300513    1.035969
     25          1           0        1.271495   -2.941545    0.493717
     26          6           0        0.267604   -1.720707   -0.965049
     27          1           0        0.549080   -2.363186   -1.789217
     28          1           0        0.303985   -0.701747   -1.327408
     29         16           0       -1.435904   -2.174656   -0.522878
     30          6           0       -2.042103   -0.671167    0.308417
     31          1           0       -2.874918   -0.993677    0.918474
     32          1           0       -1.285488   -0.295910    0.984575
     33          6           0       -2.480642    0.421632   -0.665142
     34          1           0       -3.254022    0.053783   -1.327094
     35          1           0       -1.649139    0.723281   -1.287766
     36         16           0       -3.077909    1.935763    0.162671
     37          6           0       -4.888241    1.793397    0.026122
     38          1           0       -5.144908    1.611538   -1.009641
     39          1           0       -5.262539    2.776577    0.280026
     40          6           0       -5.519873    0.751862    0.946295
     41          1           0       -5.167585   -0.245313    0.712803
     42          1           0       -5.247029    0.957851    1.973149
     43         16           0       -7.337915    0.747416    0.909870
     44          6           0       -7.677088   -0.118076   -0.655137
     45          1           0       -7.284004    0.455562   -1.485201
     46          1           0       -7.172291   -1.077174   -0.639860
     47          6           0       -9.180885   -0.315990   -0.825714
     48          1           0       -9.591790   -0.908113   -0.015843
     49          1           0       -9.701062    0.635248   -0.848265
     50          1           0       -9.382475   -0.831974   -1.758736
 ---------------------------------------------------------------------
 Stoichiometry    C14H30O3S3
 Framework group  C1[X(C14H30O3S3)]
                         Standard orientation:                         
 ---------------------------------------------------------------------
 Center     Atomic      Atomic             Coordinates (Angstroms)
 Number     Number       Type             X           Y           Z
 ---------------------------------------------------------------------
      1          6           0       -8.423214    3.028431    0.787002
      2          1           0       -9.233515    2.688891    0.150643
      3          1           0       -8.616334    2.683788    1.797163
      4          1           0       -8.436923    4.114280    0.786870
      5          6           0       -7.068340    2.524060    0.307683
      6          1           0       -6.881369    2.850190   -0.714002
      7          1           0       -6.284648    2.936717    0.930183
      8          8           0       -6.931140    1.132564    0.397882
      9          6           0       -7.583320    0.381062   -0.582181
     10          1           0       -7.342442    0.757434   -1.574393
     11          1           0       -8.663703    0.431124   -0.456224
     12          6           0       -7.152330   -1.068588   -0.481438
     13          1           0       -7.281998   -1.414994    0.540700
     14          1           0       -7.796894   -1.660888   -1.121674
     15          8           0       -5.845747   -1.292278   -0.921017
     16          6           0       -4.822183   -1.159431    0.025906
     17          1           0       -5.026086   -1.774502    0.899239
     18          1           0       -4.715168   -0.134541    0.354648
     19          6           0       -3.545790   -1.631173   -0.638911
     20          1           0       -3.344833   -1.026765   -1.520842
     21          1           0       -3.656699   -2.663885   -0.961497
     22          8           0       -2.510427   -1.509648    0.292211
     23          6           0       -1.256440   -1.901695   -0.175325
     24          1           0       -0.969281   -1.300392   -1.035939
     25          1           0       -1.271492   -2.941415   -0.493687
     26          6           0       -0.267562   -1.720609    0.965079
     27          1           0       -0.549059   -2.363079    1.789247
     28          1           0       -0.303911   -0.701648    1.327438
     29         16           0        1.435931   -2.174612    0.522908
     30          6           0        2.042178   -0.671143   -0.308387
     31          1           0        2.874982   -0.993679   -0.918444
     32          1           0        1.285576   -0.295861   -0.984545
     33          6           0        2.480752    0.421642    0.665172
     34          1           0        3.254121    0.053769    1.327124
     35          1           0        1.649258    0.723318    1.287796
     36         16           0        3.078067    1.935755   -0.162641
     37          6           0        4.888395    1.793331   -0.026092
     38          1           0        5.145056    1.611464    1.009671
     39          1           0        5.262724    2.776499   -0.279996
     40          6           0        5.519993    0.751775   -0.946265
     41          1           0        5.167673   -0.245388   -0.712773
     42          1           0        5.247156    0.957773   -1.973119
     43         16           0        7.338036    0.747272   -0.909840
     44          6           0        7.677181   -0.118231    0.655167
     45          1           0        7.284115    0.455419    1.485231
     46          1           0        7.172353   -1.077313    0.639889
     47          6           0        9.180971   -0.316193    0.825744
     48          1           0        9.591857   -0.908329    0.015873
     49          1           0        9.701179    0.635029    0.848295
     50          1           0        9.382545   -0.832184    1.758766
 ---------------------------------------------------------------------
 Standard basis: 6-31G(d) (6D, 7F)
   372 basis functions,   752 primitive gaussians,   372 cartesian basis functions
    93 alpha electrons       93 beta electrons
 Requested convergence on RMS density matrix=1.00D-08 within  64 cycles.
 Requested convergence on MAX density matrix=1.00D-06.
 Requested convergence on             energy=1.00D-06.
 SCF Done:  E(RHF) =  -1964.69613928     A.U. after    3 cycles
            NFock=  3  Conv=0.76D-08     -V/T= 2.0006
 Step number  17 out of a maximum of   55
     Eigenvalues ---    0.00159   0.00201   0.00288   0.00359   0.00382
     Eigenvalues ---    0.00421   0.00458   0.00486   0.00522   0.00552
     Eigenvalues ---    0.00626   0.00667   0.00760   0.00853   0.01049
     Eigenvalues ---    0.01573   0.01727   0.01819   0.02694   0.04558
     Eigenvalues ---    0.04800   0.04923   0.05058   0.05130   0.05309
     Eigenvalues ---    0.05416   0.05501   0.05515   0.05531   0.05533
     Eigenvalues ---    0.05649   0.05678   0.05690   0.05694   0.05747
     Eigenvalues ---    0.05788   0.05817   0.05829   0.05880   0.05924
     Eigenvalues ---    0.06003   0.06045   0.06085   0.06117   0.06188
     Eigenvalues ---    0.06536   0.06672   0.11070   0.11091   0.11175
     Eigenvalues ---    0.11319   0.11466   0.11544   0.11612   0.11690
     Eigenvalues ---    0.11815   0.11854   0.11910   0.11988   0.13587
     Eigenvalues ---    0.13609   0.13682   0.13759   0.13890   0.13897
     Eigenvalues ---    0.14038   0.14083   0.14126   0.14180   0.14333
     Eigenvalues ---    0.15068   0.15955   0.15999   0.16002   0.16004
     Eigenvalues ---    0.16015   0.16267   0.21582   0.21733   0.21987
     Eigenvalues ---    0.22011   0.22077   0.22361   0.23065   0.23333
     Eigenvalues ---    0.23447   0.23754   0.24076   0.24170   0.24463
     Eigenvalues ---    0.24576   0.24619   0.24704   0.24852   0.25022
     Eigenvalues ---    0.25406   0.25649   0.27536   0.27932   0.29542
     Eigenvalues ---    0.29761   0.30003   0.30262   0.30561   0.30937
     Eigenvalues ---    0.31405   0.32206   0.32936   0.34953   0.35020
     Eigenvalues ---    0.35052   0.35078   0.35079   0.35106   0.35111
     Eigenvalues ---    0.35140   0.35245   0.35330   0.35397   0.35446
     Eigenvalues ---    0.35481   0.35492   0.35511   0.35538   0.35609
     Eigenvalues ---    0.35685   0.35703   0.35724   0.35725   0.35750
     Eigenvalues ---    0.35758   0.35824   0.35897   0.35936   0.36148
     Eigenvalues ---    0.36292   0.36525   0.39163   0.45324   0.45692
     Eigenvalues ---    0.46090   0.46379   0.46643   0.47421
 Maximum Force            0.000000     0.000015     YES
 RMS     Force            0.000000     0.000010     YES
 Maximum Displacement     0.000182     0.000060     NO 
 RMS     Displacement     0.000035     0.000040     YES
 Optimization completed on the basis of negligible forces.
    -- Stationary point found.
                          Input orientation:                          
 ---------------------------------------------------------------------
 Center     Atomic      Atomic             Coordinates (Angstroms)
 Number     Number       Type             X           Y           Z
 ---------------------------------------------------------------------
      1          6           0        8.423408    3.028073   -0.786972
      2          1           0        9.233698    2.688506   -0.150613
      3          1           0        8.616516    2.683423   -1.797133
      4          1           0        8.437151    4.113921   -0.786840
      5          6           0        7.068517    2.523745   -0.307653
      6          1           0        6.881557    2.849881    0.714032
      7          1           0        6.284838    2.936427   -0.930154
      8          8           0        6.931273    1.132253   -0.397852
      9          6           0        7.583429    0.380731    0.582210
     10          1           0        7.342562    0.757110    1.574422
     11          1           0        8.663813    0.430758    0.456254
     12          6           0        7.152393   -1.068906    0.481468
     13          1           0        7.282050   -1.415316   -0.540670
     14          1           0        7.796937   -1.661226    1.121703
     15          8           0        5.845803   -1.292554    0.921047
     16          6           0        4.822242   -1.159675   -0.025876
     17          1           0        5.026126   -1.774752   -0.899210
     18          1           0        4.715260   -0.134781   -0.354618
     19          6           0        3.545835   -1.631376    0.638941
     20          1           0        3.344897   -1.026961    1.520872
     21          1           0        3.656710   -2.664091    0.961527
     22          8           0        2.510476   -1.509818   -0.292182
     23          6           0        1.256476   -1.901825    0.175355
     24          1           0        0.969336   -1.300513    1.035969
     25          1           0        1.271495   -2.941545    0.493717
     26          6           0        0.267604   -1.720707   -0.965049
     27          1           0        0.549080   -2.363186   -1.789217
     28          1           0        0.303985   -0.701747   -1.327408
     29         16           0       -1.435904   -2.174656   -0.522878
     30          6           0       -2.042103   -0.671167    0.308417
     31          1           0       -2.874918   -0.993677    0.918474
     32          1           0       -1.285488   -0.295910    0.984575
     33          6           0       -2.480642    0.421632   -0.665142
     34          1           0       -3.254022    0.053783   -1.327094
     35          1           0       -1.649139    0.723281   -1.287766
     36         16           0       -3.077909    1.935763    0.162671
     37          6           0       -4.888241    1.793397    0.026122
     38          1           0       -5.144908    1.611538   -1.009641
     39          1           0       -5.262539    2.776577    0.280026
     40          6           0       -5.519873    0.751862    0.946295
     41          1           0       -5.167585   -0.245313    0.712803
     42          1           0       -5.247029    0.957851    1.973149
     43         16           0       -7.337915    0.747416    0.909870
     44          6           0       -7.677088   -0.118076   -0.655137
     45          1           0       -7.284004    0.455562   -1.485201
     46          1           0       -7.172291   -1.077174   -0.639860
     47          6           0       -9.180885   -0.315990   -0.825714
     48          1           0       -9.591790   -0.908113   -0.015843
     49          1           0       -9.701062    0.635248   -0.848265
     50          1           0       -9.382475   -0.831974   -1.758736
 ---------------------------------------------------------------------
 Stoichiometry    C14H30O3S3
 Framework group  C1[X(C14H30O3S3)]
                         Standard orientation:                         
 ---------------------------------------------------------------------
 Center     Atomic      Atomic             Coordinates (Angstroms)
 Number     Number       Type             X           Y           Z
 ---------------------------------------------------------------------
      1          6           0       -8.423214    3.028431    0.787002
      2          1           0       -9.233515    2.688891    0.150643
      3          1           0       -8.616334    2.683788    1.797163
      4          1           0       -8.436923    4.114280    0.786870
      5          6           0       -7.068340    2.524060    0.307683
      6          1           0       -6.881369    2.850190   -0.714002
      7          1           0       -6.284648    2.936717    0.930183
      8          8           0       -6.931140    1.132564    0.397882
      9          6           0       -7.583320    0.381062   -0.582181
     10          1           0       -7.342442    0.757434   -1.574393
     11          1           0       -8.663703    0.431124   -0.456224
     12          6           0       -7.152330   -1.068588   -0.481438
     13          1           0       -7.281998   -1.414994    0.540700
     14          1           0       -7.796894   -1.660888   -1.121674
     15          8           0       -5.845747   -1.292278   -0.921017
     16          6           0       -4.822183   -1.159431    0.025906
     17          1           0       -5.026086   -1.774502    0.899239
     18          1           0       -4.715168   -0.134541    0.354648
     19          6           0       -3.545790   -1.631173   -0.638911
     20          1           0       -3.344833   -1.026765   -1.520842
     21          1           0       -3.656699   -2.663885   -0.961497
     22          8           0       -2.510427   -1.509648    0.292211
     23          6           0       -1.256440   -1.901695   -0.175325
     24          1           0       -0.969281   -1.300392   -1.035939
     25          1           0       -1.271492   -2.941415   -0.493687
     26          6           0       -0.267562   -1.720609    0.965079
     27          1           0       -0.549059   -2.363079    1.789247
     28          1           0       -0.303911   -0.701648    1.327438
     29         16           0        1.435931   -2.174612    0.522908
     30          6           0        2.042178   -0.671143   -0.308387
     31          1           0        2.874982   -0.993679   -0.918444
     32          1           0        1.285576   -0.295861   -0.984545
     33          6           0        2.480752    0.421642    0.665172
     34          1           0        3.254121    0.053769    1.327124
     35          1           0        1.649258    0.723318    1.287796
     36         16           0        3.078067    1.935755   -0.162641
     37          6           0        4.888395    1.793331   -0.026092
     38          1           0        5.145056    1.611464    1.009671
     39          1           0        5.262724    2.776499   -0.279996
     40          6           0        5.519993    0.751775   -0.946265
     41          1           0        5.167673   -0.245388   -0.712773
     42          1           0        5.247156    0.957773   -1.973119
     43         16           0        7.338036    0.747272   -0.909840
     44          6           0        7.677181   -0.118231    0.655167
     45          1           0        7.284115    0.455419    1.485231
     46          1           0        7.172353   -1.077313    0.639889
     47          6           0        9.180971   -0.316193    0.825744
     48          1           0        9.591857   -0.908329    0.015873
     49          1           0        9.701179    0.635029    0.848295
     50          1           0        9.382545   -0.832184    1.758766
 ---------------------------------------------------------------------
 Mulliken charges:
     1  C   -0.505921
     2  H    0.162182
     3  H    0.175070
     4  H    0.161411
     5  C    0.015042
     6  H    0.142347
     7  H    0.173093
     8  O   -0.627751
     9  C    0.007643
    10  H    0.151120
    11  H    0.137082
    12  C    0.004392
    13  H    0.156364
    14  H    0.168235
    15  O   -0.647501
    16  C    0.012185
    17  H    0.148463
    18  H    0.182554
    19  C    0.012342
    20  H    0.151334
    21  H    0.151320
    22  O   -0.642396
    23  C    0.040292
    24  H    0.143772
    25  H    0.157705
    26  C   -0.494556
    27  H    0.213766
    28  H    0.203386
    29  S    0.106200
    30  C   -0.472120
    31  H    0.206293
    32  H    0.208487
    33  C   -0.476966
    34  H    0.203750
    35  H    0.207732
    36  S    0.116580
    37  C   -0.470681
    38  H    0.195757
    39  H    0.218464
    40  C   -0.479556
    41  H    0.190478
    42  H    0.216666
    43  S    0.120853
    44  C   -0.459285
    45  H    0.186625
    46  H    0.187241
    47  C   -0.495912
    48  H    0.182208
    49  H    0.180347
    50  H    0.173865
 Sum of Mulliken charges =  -0.00000
 Dipole moment (field-independent basis, Debye):
    X=             -1.9252    Y=              0.3082    Z=              0.9547  Tot=              2.1709
 Quadrupole moment (field-independent basis, Debye-Ang):
   XX=           -128.8246   YY=           -152.9282   ZZ=           -150.8115
   XY=            -10.4964   XZ=             13.8075   YZ=              0.2476
 Traceless Quadrupole moment (field-independent basis, Debye-Ang):
   XX=             15.3635   YY=             -8.7401   ZZ=             -6.6234
   XY=            -10.4964   XZ=             13.8075   YZ=              0.2476
 Octapole moment (field-independent basis, Debye-Ang**2):
  XXX=           -297.2554  YYY=              6.4564  ZZZ=              3.3572  XYY=            -74.1294
  XXY=             -0.2359  XXZ=             75.1119  XZZ=            -20.3226  YZZ=              1.1973
  YYZ=              1.7856  XYZ=             12.9019
 Hexadecapole moment (field-independent basis, Debye-Ang**3):
 XXXX=         -25924.3454 YYYY=          -2455.5579 ZZZZ=           -606.0349 XXXY=           -607.7481
 XXXZ=           1027.2970 YYYX=            -60.8522 YYYZ=             -3.8412 ZZZX=             13.4313
 ZZZY=             -2.4140 XXYY=          -4911.7160 XXZZ=          -4824.3370 YYZZ=           -513.3840
 XXYZ=            -18.8136 YYXZ=            -27.9300 ZZXY=              2.6302
 Job cpu time:       0 days  1 hours 15 minutes 42.4 seconds.
 Normal termination of Gaussian 16 at Sat Jul  8 12:25:40 2023.
