 Copyright (c) 1988-2019, Gaussian, Inc.  All Rights Reserved.
  
 This is part of the Gaussian(R) 16 program.  It is based on
 the Gaussian(R) 09 system (copyright 2009, Gaussian, Inc.),
 the Gaussian(R) 03 system (copyright 2003, Gaussian, Inc.),
 the Gaussian(R) 98 system (copyright 1998, Gaussian, Inc.),
 the Gaussian(R) 94 system (copyright 1995, Gaussian, Inc.),
 the Gaussian 92(TM) system (copyright 1992, Gaussian, Inc.),
 the Gaussian 90(TM) system (copyright 1990, Gaussian, Inc.),
 the Gaussian 88(TM) system (copyright 1988, Gaussian, Inc.),
 the Gaussian 86(TM) system (copyright 1986, Carnegie Mellon
 University), and the Gaussian 82(TM) system (copyright 1983,
 Carnegie Mellon University). Gaussian is a federally registered
 trademark of Gaussian, Inc.
 Cite this work as:
 Gaussian 16, Revision C.01,
 M. J. Frisch, G. W. Trucks, H. B. Schlegel, G. E. Scuseria, 
 M. A. Robb, J. R. Cheeseman, G. Scalmani, V. Barone, 
 G. A. Petersson, H. Nakatsuji, X. Li, M. Caricato, A. V. Marenich, 
 J. Bloino, B. G. Janesko, R. Gomperts, B. Mennucci, H. P. Hratchian, 
 J. V. Ortiz, A. F. Izmaylov, J. L. Sonnenberg, D. Williams-Young, 
 F. Ding, F. Lipparini, F. Egidi, J. Goings, B. Peng, A. Petrone, 
 T. Henderson, D. Ranasinghe, V. G. Zakrzewski, J. Gao, N. Rega, 
 G. Zheng, W. Liang, M. Hada, M. Ehara, K. Toyota, R. Fukuda, 
 J. Hasegawa, M. Ishida, T. Nakajima, Y. Honda, O. Kitao, H. Nakai, 
 T. Vreven, K. Throssell, J. A. Montgomery, Jr., J. E. Peralta, 
 F. Ogliaro, M. J. Bearpark, J. J. Heyd, E. N. Brothers, K. N. Kudin, 
 V. N. Staroverov, T. A. Keith, R. Kobayashi, J. Normand, 
 K. Raghavachari, A. P. Rendell, J. C. Burant, S. S. Iyengar, 
 J. Tomasi, M. Cossi, J. M. Millam, M. Klene, C. Adamo, R. Cammi, 
 J. W. Ochterski, R. L. Martin, K. Morokuma, O. Farkas, 
 J. B. Foresman, and D. J. Fox, Gaussian, Inc., Wallingford CT, 2019.
 
 ******************************************
 Gaussian 16:  EM64L-G16RevC.01  3-Jul-2019
                 8-Jul-2023 
 ******************************************
 ----------------------------------------------------------------------
 #P HF/6-31G(d) SCF(Conver=8,XQC,MaxConventionalCycles=64,MaxCycle=128)
  NoSymm Test Pop=mk IOp(6/33=2) GFInput GFPrint
 ----------------------------------------------------------------------
 1/38=1,172=1/1;
 2/12=2,15=1,17=6,18=5,40=1/2;
 3/5=1,6=6,7=1,11=9,24=110,25=1,30=1/1,2,3;
 4//1;
 5/5=2,6=8,7=128,8=3,13=1,38=5,85=64/2,8;
 6/7=2,8=2,9=2,10=2,15=8,20=1,28=1,33=2/1,2;
 99/5=1,9=1/99;
 -------------------------------------------------
 MEP step - Input generated by PyRED DVE-DMDS-OPLS
 -------------------------------------------------
 Symbolic Z-matrix:
 Charge =  0 Multiplicity = 1
 C                    -2.76375   6.95799  -4.10784 
 H                    -2.36072   6.28853  -4.86173 
 H                    -3.80997   7.13368  -4.34259 
 H                    -2.23263   7.9011   -4.17689 
 C                    -2.6214    6.37265  -2.70999 
 H                    -3.03842   7.05762  -1.98134 
 H                    -3.15975   5.43638  -2.62426 
 O                    -1.27404   6.19781  -2.35292 
 C                    -0.67114   4.99014  -2.71365 
 H                     0.34542   5.21216  -3.02275 
 H                    -1.17936   4.5287   -3.55572 
 C                    -0.61967   4.01342  -1.55792 
 H                     0.01596   3.17283  -1.81657 
 H                    -0.18961   4.50835  -0.69157 
 O                    -1.92299   3.58013  -1.27268 
 C                    -2.14394   2.98216  -0.03196 
 H                    -3.20233   3.09401   0.17481 
 H                    -1.5911    3.49648   0.74996 
 C                    -1.8078    1.50431   0.00262 
 H                    -2.25491   1.01155  -0.85809 
 H                    -2.2358    1.06339   0.90329 
 O                    -0.42025   1.33142   0. 
 C                     0.        0.        0. 
 H                    -0.37351  -0.52072  -0.87832 
 H                    -0.38734  -0.51477   0.87715 
 C                     1.52015   0.        0. 
 H                     1.89303   0.56228   0.8469 
 H                     1.87762   0.4903   -0.89647 
 S                     2.25708  -1.65853  -0.00597 
 C                     2.10012  -2.1319    1.74587 
 H                     2.56523  -1.37211   2.36103 
 H                     1.05581  -2.20193   2.0203 
 C                     2.78711  -3.47723   1.9649 
 H                     3.83975  -3.39954   1.72215 
 H                     2.34194  -4.22598   1.32261 
 S                     2.6107   -3.96423   3.71001 
 C                     3.63593  -5.46576   3.77266 
 H                     3.80418  -5.65061   4.82573 
 H                     4.60076  -5.25597   3.3303 
 C                     2.98305  -6.69076   3.1338 
 H                     2.02961  -6.87884   3.60861 
 H                     2.78902  -6.53352   2.08027 
 S                     3.97244  -8.21255   3.31721 
 C                     4.77536  -8.37972   1.69226 
 H                     5.21823  -9.36835   1.71858 
 H                     4.00852  -8.39863   0.92655 
 C                     5.84174  -7.33964   1.36493 
 H                     6.31258  -7.57907   0.41569 
 H                     5.418    -6.34524   1.27592 
 H                     6.60908  -7.31379   2.12992 
 
 ITRead=  0  0  0  0  0  0  0  0  0  0  0  0  0  0  0  0  0  0  0  0
 ITRead=  0  0  0  0  0  0  0  0  0  0  0  0  0  0  0  0  0  0  0  0
 ITRead=  0  0  0  0  0  0  0  0  0  0
 MicOpt= -1 -1 -1 -1 -1 -1 -1 -1 -1 -1 -1 -1 -1 -1 -1 -1 -1 -1 -1 -1
 MicOpt= -1 -1 -1 -1 -1 -1 -1 -1 -1 -1 -1 -1 -1 -1 -1 -1 -1 -1 -1 -1
 MicOpt= -1 -1 -1 -1 -1 -1 -1 -1 -1 -1
 NAtoms=     50 NQM=       50 NQMF=       0 NMMI=      0 NMMIF=      0
                NMic=       0 NMicF=      0.
                          Input orientation:                          
 ---------------------------------------------------------------------
 Center     Atomic      Atomic             Coordinates (Angstroms)
 Number     Number       Type             X           Y           Z
 ---------------------------------------------------------------------
      1          6           0       -2.763745    6.957987   -4.107838
      2          1           0       -2.360724    6.288529   -4.861732
      3          1           0       -3.809966    7.133676   -4.342593
      4          1           0       -2.232628    7.901100   -4.176886
      5          6           0       -2.621402    6.372650   -2.709986
      6          1           0       -3.038417    7.057617   -1.981335
      7          1           0       -3.159748    5.436380   -2.624264
      8          8           0       -1.274042    6.197810   -2.352925
      9          6           0       -0.671140    4.990138   -2.713654
     10          1           0        0.345419    5.212164   -3.022750
     11          1           0       -1.179356    4.528701   -3.555722
     12          6           0       -0.619673    4.013416   -1.557915
     13          1           0        0.015964    3.172833   -1.816565
     14          1           0       -0.189609    4.508349   -0.691569
     15          8           0       -1.922990    3.580127   -1.272677
     16          6           0       -2.143941    2.982157   -0.031960
     17          1           0       -3.202328    3.094008    0.174807
     18          1           0       -1.591095    3.496482    0.749957
     19          6           0       -1.807803    1.504312    0.002620
     20          1           0       -2.254914    1.011546   -0.858085
     21          1           0       -2.235797    1.063385    0.903288
     22          8           0       -0.420250    1.331419    0.000000
     23          6           0        0.000000    0.000000    0.000000
     24          1           0       -0.373506   -0.520717   -0.878321
     25          1           0       -0.387344   -0.514769    0.877147
     26          6           0        1.520147    0.000000    0.000000
     27          1           0        1.893028    0.562280    0.846902
     28          1           0        1.877621    0.490296   -0.896473
     29         16           0        2.257083   -1.658529   -0.005967
     30          6           0        2.100115   -2.131903    1.745867
     31          1           0        2.565227   -1.372109    2.361034
     32          1           0        1.055808   -2.201926    2.020297
     33          6           0        2.787111   -3.477228    1.964902
     34          1           0        3.839752   -3.399537    1.722145
     35          1           0        2.341942   -4.225980    1.322612
     36         16           0        2.610703   -3.964230    3.710009
     37          6           0        3.635934   -5.465761    3.772659
     38          1           0        3.804183   -5.650605    4.825734
     39          1           0        4.600763   -5.255966    3.330304
     40          6           0        2.983047   -6.690763    3.133796
     41          1           0        2.029613   -6.878840    3.608607
     42          1           0        2.789024   -6.533521    2.080269
     43         16           0        3.972444   -8.212552    3.317214
     44          6           0        4.775356   -8.379718    1.692256
     45          1           0        5.218234   -9.368353    1.718576
     46          1           0        4.008518   -8.398625    0.926552
     47          6           0        5.841736   -7.339642    1.364933
     48          1           0        6.312576   -7.579069    0.415689
     49          1           0        5.417996   -6.345236    1.275921
     50          1           0        6.609075   -7.313793    2.129918
 ---------------------------------------------------------------------
 Stoichiometry    C14H30O3S3
 Framework group  C1[X(C14H30O3S3)]
 Standard basis: 6-31G(d) (6D, 7F)
   372 basis functions,   752 primitive gaussians,   372 cartesian basis functions
    93 alpha electrons       93 beta electrons
 Requested convergence on RMS density matrix=1.00D-08 within  64 cycles.
 Requested convergence on MAX density matrix=1.00D-06.
 Requested convergence on             energy=1.00D-06.
 SCF Done:  E(RHF) =  -1964.69369715     A.U. after   13 cycles
            NFock= 13  Conv=0.53D-08     -V/T= 2.0006
 Mulliken charges:
     1  C   -0.493940
     2  H    0.156997
     3  H    0.151875
     4  H    0.170329
     5  C    0.006928
     6  H    0.161809
     7  H    0.167729
     8  O   -0.631169
     9  C   -0.003542
    10  H    0.162097
    11  H    0.150502
    12  C    0.018248
    13  H    0.152738
    14  H    0.152631
    15  O   -0.637303
    16  C    0.003573
    17  H    0.170568
    18  H    0.158984
    19  C    0.004333
    20  H    0.155520
    21  H    0.138951
    22  O   -0.633729
    23  C    0.036549
    24  H    0.159663
    25  H    0.144184
    26  C   -0.497577
    27  H    0.205642
    28  H    0.212689
    29  S    0.119027
    30  C   -0.477670
    31  H    0.208547
    32  H    0.205667
    33  C   -0.480474
    34  H    0.204653
    35  H    0.203086
    36  S    0.125036
    37  C   -0.474951
    38  H    0.216601
    39  H    0.202471
    40  C   -0.478507
    41  H    0.217673
    42  H    0.193115
    43  S    0.114797
    44  C   -0.471657
    45  H    0.201367
    46  H    0.190831
    47  C   -0.476043
    48  H    0.171213
    49  H    0.158781
    50  H    0.181158
 Sum of Mulliken charges =  -0.00000
 Dipole moment (field-independent basis, Debye):
    X=             -0.3266    Y=             -1.2439    Z=             -1.0975  Tot=              1.6907
 Quadrupole moment (field-independent basis, Debye-Ang):
   XX=           -140.2284   YY=           -169.3465   ZZ=           -158.5777
   XY=             -5.3912   XZ=             -5.6271   YZ=             15.3081
 Traceless Quadrupole moment (field-independent basis, Debye-Ang):
   XX=             15.8225   YY=            -13.2956   ZZ=             -2.5268
   XY=             -5.3912   XZ=             -5.6271   YZ=             15.3081
 Octapole moment (field-independent basis, Debye-Ang**2):
  XXX=           -541.6243  YYY=            488.9841  ZZZ=           -324.0893  XYY=           -163.5092
  XXY=            143.5937  XXZ=           -103.4650  XZZ=           -226.9319  YZZ=            253.2588
  YYZ=           -192.8837  XYZ=             44.2336
 Hexadecapole moment (field-independent basis, Debye-Ang**3):
 XXXX=          -7224.5417 YYYY=         -25178.4991 ZZZZ=          -5442.1329 XXXY=           5558.1025
 XXXZ=          -2434.6339 YYYX=           5747.5347 YYYZ=           6223.2900 ZZZX=          -2576.0480
 ZZZY=           5109.9242 XXYY=          -4636.3622 XXZZ=          -2268.0817 YYZZ=          -5378.7279
 XXYZ=           1734.1488 YYXZ=          -1207.6089 ZZXY=           2259.1290
 Merz-Kollman atomic radii used.
 Atom Element Radius
    1     6    1.50
    2     1    1.20
    3     1    1.20
    4     1    1.20
    5     6    1.50
    6     1    1.20
    7     1    1.20
    8     8    1.40
    9     6    1.50
   10     1    1.20
   11     1    1.20
   12     6    1.50
   13     1    1.20
   14     1    1.20
   15     8    1.40
   16     6    1.50
   17     1    1.20
   18     1    1.20
   19     6    1.50
   20     1    1.20
   21     1    1.20
   22     8    1.40
   23     6    1.50
   24     1    1.20
   25     1    1.20
   26     6    1.50
   27     1    1.20
   28     1    1.20
   29    16    1.75
   30     6    1.50
   31     1    1.20
   32     1    1.20
   33     6    1.50
   34     1    1.20
   35     1    1.20
   36    16    1.75
   37     6    1.50
   38     1    1.20
   39     1    1.20
   40     6    1.50
   41     1    1.20
   42     1    1.20
   43    16    1.75
   44     6    1.50
   45     1    1.20
   46     1    1.20
   47     6    1.50
   48     1    1.20
   49     1    1.20
   50     1    1.20
 Generate VDW surfaces: Layer= 4 Dens= 1 Start= 1.400 Inc= 0.200
            Electrostatic Properties Using The SCF Density.


       Atomic Center    1 is at  -2.763745  6.957987 -4.107838
       Atomic Center    2 is at  -2.360724  6.288529 -4.861732
       Atomic Center    3 is at  -3.809966  7.133676 -4.342593
       Atomic Center    4 is at  -2.232628  7.901100 -4.176886
       Atomic Center    5 is at  -2.621402  6.372650 -2.709986
       Atomic Center    6 is at  -3.038417  7.057617 -1.981335
       Atomic Center    7 is at  -3.159748  5.436380 -2.624264
       Atomic Center    8 is at  -1.274042  6.197810 -2.352925
       Atomic Center    9 is at  -0.671140  4.990138 -2.713654
       Atomic Center   10 is at   0.345419  5.212164 -3.022750
       Atomic Center   11 is at  -1.179356  4.528701 -3.555722
       Atomic Center   12 is at  -0.619673  4.013416 -1.557915
       Atomic Center   13 is at   0.015964  3.172833 -1.816565
       Atomic Center   14 is at  -0.189609  4.508349 -0.691569
       Atomic Center   15 is at  -1.922990  3.580127 -1.272677
       Atomic Center   16 is at  -2.143941  2.982157 -0.031960
       Atomic Center   17 is at  -3.202328  3.094008  0.174807
       Atomic Center   18 is at  -1.591095  3.496482  0.749957
       Atomic Center   19 is at  -1.807803  1.504312  0.002620
       Atomic Center   20 is at  -2.254914  1.011546 -0.858085
       Atomic Center   21 is at  -2.235797  1.063385  0.903288
       Atomic Center   22 is at  -0.420250  1.331419  0.000000
       Atomic Center   23 is at   0.000000  0.000000  0.000000
       Atomic Center   24 is at  -0.373506 -0.520717 -0.878321
       Atomic Center   25 is at  -0.387344 -0.514769  0.877147
       Atomic Center   26 is at   1.520147  0.000000  0.000000
       Atomic Center   27 is at   1.893028  0.562280  0.846902
       Atomic Center   28 is at   1.877621  0.490296 -0.896473
       Atomic Center   29 is at   2.257083 -1.658529 -0.005967
       Atomic Center   30 is at   2.100115 -2.131903  1.745867
       Atomic Center   31 is at   2.565227 -1.372109  2.361034
       Atomic Center   32 is at   1.055808 -2.201926  2.020297
       Atomic Center   33 is at   2.787111 -3.477228  1.964902
       Atomic Center   34 is at   3.839752 -3.399537  1.722145
       Atomic Center   35 is at   2.341942 -4.225980  1.322612
       Atomic Center   36 is at   2.610703 -3.964230  3.710009
       Atomic Center   37 is at   3.635934 -5.465761  3.772659
       Atomic Center   38 is at   3.804183 -5.650605  4.825734
       Atomic Center   39 is at   4.600763 -5.255966  3.330304
       Atomic Center   40 is at   2.983047 -6.690763  3.133796
       Atomic Center   41 is at   2.029613 -6.878840  3.608607
       Atomic Center   42 is at   2.789024 -6.533521  2.080269
       Atomic Center   43 is at   3.972444 -8.212552  3.317214
       Atomic Center   44 is at   4.775356 -8.379718  1.692256
       Atomic Center   45 is at   5.218234 -9.368353  1.718576
       Atomic Center   46 is at   4.008518 -8.398625  0.926552
       Atomic Center   47 is at   5.841736 -7.339642  1.364933
       Atomic Center   48 is at   6.312576 -7.579069  0.415689
       Atomic Center   49 is at   5.417996 -6.345236  1.275921
       Atomic Center   50 is at   6.609075 -7.313793  2.129918
      ESP Fit Center   51 is at  -3.954710  8.332433 -3.057838
      ESP Fit Center   52 is at  -0.663745  6.957987 -4.107838
      ESP Fit Center   53 is at  -3.954710  5.583541 -5.157838
      ESP Fit Center   54 is at  -2.238745  7.867314 -5.926491
      ESP Fit Center   55 is at  -3.288745  7.867314 -5.926491
      ESP Fit Center   56 is at  -3.159611  4.904815 -4.342583
      ESP Fit Center   57 is at  -0.762949  6.288529 -5.380881
      ESP Fit Center   58 is at  -3.159611  4.904815 -5.380881
      ESP Fit Center   59 is at  -2.083273  4.715028 -5.380881
      ESP Fit Center   60 is at  -1.136757  5.261499 -5.380881
      ESP Fit Center   61 is at  -1.373245  6.288529 -6.220881
      ESP Fit Center   62 is at  -2.055576  7.227678 -6.220881
      ESP Fit Center   63 is at  -3.159611  6.868955 -6.220881
      ESP Fit Center   64 is at  -3.159611  5.708103 -6.220881
      ESP Fit Center   65 is at  -2.055576  5.349380 -6.220881
      ESP Fit Center   66 is at  -2.360724  6.288529 -6.541732
      ESP Fit Center   67 is at  -4.608853  7.714102 -2.983444
      ESP Fit Center   68 is at  -4.608853  8.517390 -3.823444
      ESP Fit Center   69 is at  -5.311383  7.680147 -3.823444
      ESP Fit Center   70 is at  -5.311383  6.587205 -3.823444
      ESP Fit Center   71 is at  -4.608853  5.749962 -3.823444
      ESP Fit Center   72 is at  -4.608853  8.517390 -4.861742
      ESP Fit Center   73 is at  -5.311383  7.680147 -4.861742
      ESP Fit Center   74 is at  -5.311383  6.587205 -4.861742
      ESP Fit Center   75 is at  -4.608853  5.749962 -4.861742
      ESP Fit Center   76 is at  -4.608853  7.714102 -5.701742
      ESP Fit Center   77 is at  -4.608853  6.553250 -5.701742
      ESP Fit Center   78 is at  -3.809966  7.133676 -6.022593
      ESP Fit Center   79 is at  -1.927480  8.840249 -2.817737
      ESP Fit Center   80 is at  -0.634853  7.901100 -3.657737
      ESP Fit Center   81 is at  -1.008661  8.928130 -3.657737
      ESP Fit Center   82 is at  -1.955177  9.474601 -3.657737
      ESP Fit Center   83 is at  -3.031515  9.284814 -3.657737
      ESP Fit Center   84 is at  -0.634853  7.901100 -4.696035
      ESP Fit Center   85 is at  -1.008661  8.928130 -4.696035
      ESP Fit Center   86 is at  -1.955177  9.474601 -4.696035
      ESP Fit Center   87 is at  -3.031515  9.284814 -4.696035
      ESP Fit Center   88 is at  -1.245149  7.901100 -5.536035
      ESP Fit Center   89 is at  -1.927480  8.840249 -5.536035
      ESP Fit Center   90 is at  -3.031515  8.481526 -5.536035
      ESP Fit Center   91 is at  -3.146402  5.463323 -0.891333
      ESP Fit Center   92 is at  -4.660380  6.875213 -2.709986
      ESP Fit Center   93 is at  -3.038417  7.057617 -0.301335
      ESP Fit Center   94 is at  -2.050938  7.057617 -0.622186
      ESP Fit Center   95 is at  -2.733269  7.996766 -0.622186
      ESP Fit Center   96 is at  -3.837304  7.638043 -0.622186
      ESP Fit Center   97 is at  -3.837304  6.477191 -0.622186
      ESP Fit Center   98 is at  -2.733269  6.118468 -0.622186
      ESP Fit Center   99 is at  -1.814450  8.084647 -1.462186
      ESP Fit Center  100 is at  -2.760966  8.631118 -1.462186
      ESP Fit Center  101 is at  -3.837304  8.441331 -1.462186
      ESP Fit Center  102 is at  -4.539834  7.604088 -1.462186
      ESP Fit Center  103 is at  -4.539834  6.511146 -1.462186
      ESP Fit Center  104 is at  -2.760966  8.631118 -2.500484
      ESP Fit Center  105 is at  -3.837304  8.441331 -2.500484
      ESP Fit Center  106 is at  -4.539834  7.604088 -2.500484
      ESP Fit Center  107 is at  -3.958635  4.855954 -1.265115
      ESP Fit Center  108 is at  -4.661165  5.982851 -2.105115
      ESP Fit Center  109 is at  -4.661165  4.889909 -2.105115
      ESP Fit Center  110 is at  -3.958635  4.052666 -2.105115
      ESP Fit Center  111 is at  -4.661165  5.982851 -3.143413
      ESP Fit Center  112 is at  -4.661165  4.889909 -3.143413
      ESP Fit Center  113 is at  -3.958635  4.052666 -3.143413
      ESP Fit Center  114 is at  -2.882297  3.862879 -3.143413
      ESP Fit Center  115 is at  -3.958635  4.855954 -3.983413
      ESP Fit Center  116 is at  -2.854600  4.497231 -3.983413
      ESP Fit Center  117 is at  -1.274042  6.197810 -0.392925
      ESP Fit Center  118 is at  -0.294042  6.197810 -0.655515
      ESP Fit Center  119 is at  -0.784042  7.046515 -0.655515
      ESP Fit Center  120 is at  -1.764042  7.046515 -0.655515
      ESP Fit Center  121 is at   0.423368  6.197810 -1.372925
      ESP Fit Center  122 is at   0.099191  7.195522 -1.372925
      ESP Fit Center  123 is at  -0.749514  7.812143 -1.372925
      ESP Fit Center  124 is at   0.423368  7.177810 -2.352925
      ESP Fit Center  125 is at  -0.294042  7.895220 -2.352925
      ESP Fit Center  126 is at  -1.274042  8.157810 -2.352925
      ESP Fit Center  127 is at   0.099191  7.195522 -3.332925
      ESP Fit Center  128 is at  -0.749514  7.812143 -3.332925
      ESP Fit Center  129 is at   0.084356  3.335833 -3.763654
      ESP Fit Center  130 is at  -0.146140  5.899465 -4.532307
      ESP Fit Center  131 is at   1.332898  5.212164 -1.663601
      ESP Fit Center  132 is at   1.943194  5.212164 -2.503601
      ESP Fit Center  133 is at   1.569386  6.239194 -2.503601
      ESP Fit Center  134 is at   0.622870  6.785665 -2.503601
      ESP Fit Center  135 is at   1.569386  4.185134 -2.503601
      ESP Fit Center  136 is at   1.943194  5.212164 -3.541899
      ESP Fit Center  137 is at   1.569386  6.239194 -3.541899
      ESP Fit Center  138 is at   0.622870  6.785665 -3.541899
      ESP Fit Center  139 is at   1.569386  4.185134 -3.541899
      ESP Fit Center  140 is at   1.332898  5.212164 -4.381899
      ESP Fit Center  141 is at   0.650567  6.151313 -4.381899
      ESP Fit Center  142 is at   0.650567  4.273015 -4.381899
      ESP Fit Center  143 is at   0.345419  5.212164 -4.702750
      ESP Fit Center  144 is at  -2.680773  3.982230 -4.074871
      ESP Fit Center  145 is at  -1.978243  3.144987 -4.074871
      ESP Fit Center  146 is at  -0.901905  2.955200 -4.074871
      ESP Fit Center  147 is at   0.044611  3.501671 -4.074871
      ESP Fit Center  148 is at  -0.191877  4.528701 -4.914871
      ESP Fit Center  149 is at  -0.874208  5.467850 -4.914871
      ESP Fit Center  150 is at  -1.978243  3.948275 -4.914871
      ESP Fit Center  151 is at  -0.874208  3.589552 -4.914871
      ESP Fit Center  152 is at  -1.179356  4.528701 -5.235722
      ESP Fit Center  153 is at  -1.810638  5.387862 -0.507915
      ESP Fit Center  154 is at   1.480327  4.013416 -1.557915
      ESP Fit Center  155 is at   1.239785  4.989335 -1.557915
      ESP Fit Center  156 is at   1.003443  3.172833 -0.457416
      ESP Fit Center  157 is at   1.613739  3.172833 -1.297416
      ESP Fit Center  158 is at   1.239931  2.145803 -1.297416
      ESP Fit Center  159 is at   1.613739  3.172833 -2.335714
      ESP Fit Center  160 is at  -0.782923  1.789119 -2.335714
      ESP Fit Center  161 is at   0.293415  1.599332 -2.335714
      ESP Fit Center  162 is at   1.239931  2.145803 -2.335714
      ESP Fit Center  163 is at   1.003443  3.172833 -3.175714
      ESP Fit Center  164 is at  -0.782923  2.592407 -3.175714
      ESP Fit Center  165 is at   0.321112  2.233684 -3.175714
      ESP Fit Center  166 is at  -0.189609  4.508349  0.988431
      ESP Fit Center  167 is at   0.797870  4.508349  0.667580
      ESP Fit Center  168 is at   0.115539  5.447498  0.667580
      ESP Fit Center  169 is at  -0.988496  5.088775  0.667580
      ESP Fit Center  170 is at   0.115539  3.569200  0.667580
      ESP Fit Center  171 is at   1.408166  4.508349 -0.172420
      ESP Fit Center  172 is at   1.034358  5.535379 -0.172420
      ESP Fit Center  173 is at   0.087842  6.081850 -0.172420
      ESP Fit Center  174 is at  -0.988496  5.892063 -0.172420
      ESP Fit Center  175 is at   1.034358  3.481319 -0.172420
      ESP Fit Center  176 is at   1.408166  4.508349 -1.210718
      ESP Fit Center  177 is at   1.034358  5.535379 -1.210718
      ESP Fit Center  178 is at  -2.447518  5.194460 -0.292677
      ESP Fit Center  179 is at  -3.620400  3.580127 -2.252677
      ESP Fit Center  180 is at  -3.296223  2.582415 -2.252677
      ESP Fit Center  181 is at  -2.447518  1.965794 -2.252677
      ESP Fit Center  182 is at  -1.398462  1.965794 -2.252677
      ESP Fit Center  183 is at  -2.902990  3.580127 -2.970087
      ESP Fit Center  184 is at  -2.412990  2.731422 -2.970087
      ESP Fit Center  185 is at  -2.888611  4.945691 -0.031960
      ESP Fit Center  186 is at  -3.202328  3.094008  1.854807
      ESP Fit Center  187 is at  -4.001215  3.674434  1.533956
      ESP Fit Center  188 is at  -4.001215  2.513582  1.533956
      ESP Fit Center  189 is at  -4.001215  4.477722  0.693956
      ESP Fit Center  190 is at  -4.703745  3.640479  0.693956
      ESP Fit Center  191 is at  -4.703745  2.547537  0.693956
      ESP Fit Center  192 is at  -4.001215  1.710294  0.693956
      ESP Fit Center  193 is at  -4.001215  4.477722 -0.344342
      ESP Fit Center  194 is at  -4.703745  3.640479 -0.344342
      ESP Fit Center  195 is at  -4.703745  2.547537 -0.344342
      ESP Fit Center  196 is at  -4.001215  1.710294 -0.344342
      ESP Fit Center  197 is at  -4.001215  3.674434 -1.184342
      ESP Fit Center  198 is at  -4.001215  2.513582 -1.184342
      ESP Fit Center  199 is at  -1.591095  3.496482  2.429957
      ESP Fit Center  200 is at  -0.603616  3.496482  2.109106
      ESP Fit Center  201 is at  -1.285947  4.435631  2.109106
      ESP Fit Center  202 is at  -2.389982  4.076908  2.109106
      ESP Fit Center  203 is at  -2.389982  2.916056  2.109106
      ESP Fit Center  204 is at  -1.285947  2.557333  2.109106
      ESP Fit Center  205 is at   0.006680  3.496482  1.269106
      ESP Fit Center  206 is at  -0.367128  4.523512  1.269106
      ESP Fit Center  207 is at  -1.313644  5.069983  1.269106
      ESP Fit Center  208 is at  -2.389982  4.880196  1.269106
      ESP Fit Center  209 is at  -3.846781  1.001749  0.002620
      ESP Fit Center  210 is at  -2.552473 -0.459222  0.002620
      ESP Fit Center  211 is at  -3.756331  0.465075 -0.338936
      ESP Fit Center  212 is at  -3.053801 -0.372168 -0.338936
      ESP Fit Center  213 is at  -3.756331  1.558017 -1.377234
      ESP Fit Center  214 is at  -3.756331  0.465075 -1.377234
      ESP Fit Center  215 is at  -3.053801 -0.372168 -1.377234
      ESP Fit Center  216 is at  -1.977463 -0.561955 -1.377234
      ESP Fit Center  217 is at  -1.267435  1.011546 -2.217234
      ESP Fit Center  218 is at  -3.053801  1.591972 -2.217234
      ESP Fit Center  219 is at  -3.053801  0.431120 -2.217234
      ESP Fit Center  220 is at  -1.949766  0.072397 -2.217234
      ESP Fit Center  221 is at  -2.254914  1.011546 -2.538085
      ESP Fit Center  222 is at  -2.235797  1.063385  2.583288
      ESP Fit Center  223 is at  -1.248318  1.063385  2.262437
      ESP Fit Center  224 is at  -1.930649  2.002534  2.262437
      ESP Fit Center  225 is at  -3.034684  1.643811  2.262437
      ESP Fit Center  226 is at  -3.034684  0.482959  2.262437
      ESP Fit Center  227 is at  -1.930649  0.124236  2.262437
      ESP Fit Center  228 is at  -3.737214  1.609856  1.422437
      ESP Fit Center  229 is at  -3.737214  0.516914  1.422437
      ESP Fit Center  230 is at  -3.034684 -0.320329  1.422437
      ESP Fit Center  231 is at  -3.737214  0.516914  0.384139
      ESP Fit Center  232 is at  -3.034684 -0.320329  0.384139
      ESP Fit Center  233 is at  -0.420250  1.331419  1.960000
      ESP Fit Center  234 is at   0.559750  1.331419  1.697410
      ESP Fit Center  235 is at   0.069750  2.180124  1.697410
      ESP Fit Center  236 is at   0.952983  2.329131  0.980000
      ESP Fit Center  237 is at   0.104278  2.945752  0.980000
      ESP Fit Center  238 is at   1.277160  2.311419  0.000000
      ESP Fit Center  239 is at   0.559750  3.028829  0.000000
      ESP Fit Center  240 is at   0.559750  1.331419 -1.697410
      ESP Fit Center  241 is at  -0.420250  1.331419 -1.960000
      ESP Fit Center  242 is at   0.525000  0.909327  1.818653
      ESP Fit Center  243 is at  -1.571873 -1.392558  0.000000
      ESP Fit Center  244 is at  -0.744670 -1.963534  0.000000
      ESP Fit Center  245 is at   0.525000  0.909327 -1.818653
      ESP Fit Center  246 is at  -1.874923 -1.067188 -0.359172
      ESP Fit Center  247 is at  -1.172393 -1.904431 -0.359172
      ESP Fit Center  248 is at  -1.874923 -1.067188 -1.397470
      ESP Fit Center  249 is at  -1.172393 -1.904431 -1.397470
      ESP Fit Center  250 is at  -0.096055 -2.094218 -1.397470
      ESP Fit Center  251 is at   0.613973 -0.520717 -2.237470
      ESP Fit Center  252 is at  -0.068358  0.418432 -2.237470
      ESP Fit Center  253 is at  -1.172393  0.059709 -2.237470
      ESP Fit Center  254 is at  -1.172393 -1.101143 -2.237470
      ESP Fit Center  255 is at  -0.068358 -1.459866 -2.237470
      ESP Fit Center  256 is at  -0.373506 -0.520717 -2.558321
      ESP Fit Center  257 is at  -0.387344 -0.514769  2.557147
      ESP Fit Center  258 is at   0.600135 -0.514769  2.236296
      ESP Fit Center  259 is at  -0.082196  0.424380  2.236296
      ESP Fit Center  260 is at  -1.186231  0.065657  2.236296
      ESP Fit Center  261 is at  -1.186231 -1.095195  2.236296
      ESP Fit Center  262 is at  -1.888761 -1.061240  1.396296
      ESP Fit Center  263 is at  -1.186231 -1.898483  1.396296
      ESP Fit Center  264 is at  -1.888761 -1.061240  0.357998
      ESP Fit Center  265 is at  -1.186231 -1.898483  0.357998
      ESP Fit Center  266 is at   3.379605  0.975919  0.000000
      ESP Fit Center  267 is at   1.773274  2.084689  0.000000
      ESP Fit Center  268 is at   1.893028  0.562280  2.526902
      ESP Fit Center  269 is at   2.880507  0.562280  2.206051
      ESP Fit Center  270 is at   2.198176  1.501429  2.206051
      ESP Fit Center  271 is at   1.094141  1.142706  2.206051
      ESP Fit Center  272 is at   1.094141 -0.018146  2.206051
      ESP Fit Center  273 is at   3.490803  0.562280  1.366051
      ESP Fit Center  274 is at   3.116995  1.589310  1.366051
      ESP Fit Center  275 is at   2.170479  2.135781  1.366051
      ESP Fit Center  276 is at   1.094141  1.945994  1.366051
      ESP Fit Center  277 is at   3.116995  1.589310  0.327753
      ESP Fit Center  278 is at   2.170479  2.135781  0.327753
      ESP Fit Center  279 is at   3.101588  1.517326 -0.377324
      ESP Fit Center  280 is at   2.155072  2.063797 -0.377324
      ESP Fit Center  281 is at   3.475396  0.490296 -1.415622
      ESP Fit Center  282 is at   3.101588  1.517326 -1.415622
      ESP Fit Center  283 is at   2.155072  2.063797 -1.415622
      ESP Fit Center  284 is at   1.078734  1.874010 -1.415622
      ESP Fit Center  285 is at   2.865100  0.490296 -2.255622
      ESP Fit Center  286 is at   2.182769  1.429445 -2.255622
      ESP Fit Center  287 is at   1.078734  1.070722 -2.255622
      ESP Fit Center  288 is at   1.078734 -0.090130 -2.255622
      ESP Fit Center  289 is at   2.182769 -0.448853 -2.255622
      ESP Fit Center  290 is at   1.877621  0.490296 -2.576473
      ESP Fit Center  291 is at   4.172570 -1.658529  1.521583
      ESP Fit Center  292 is at   3.868493 -0.622938  1.521583
      ESP Fit Center  293 is at   4.645656 -1.658529  0.539209
      ESP Fit Center  294 is at   4.409113 -0.622166  0.539209
      ESP Fit Center  295 is at   3.746334  0.208933  0.539209
      ESP Fit Center  296 is at   0.105053 -2.694892  0.539209
      ESP Fit Center  297 is at   0.767832 -3.525991  0.539209
      ESP Fit Center  298 is at   4.645656 -1.658529 -0.551143
      ESP Fit Center  299 is at   4.409113 -0.622166 -0.551143
      ESP Fit Center  300 is at   3.746334  0.208933 -0.551143
      ESP Fit Center  301 is at   0.105053 -2.694892 -0.551143
      ESP Fit Center  302 is at   0.767832 -3.525991 -0.551143
      ESP Fit Center  303 is at   1.725575 -3.987216 -0.551143
      ESP Fit Center  304 is at   2.788591 -3.987216 -0.551143
      ESP Fit Center  305 is at   3.746334 -3.525991 -0.551143
      ESP Fit Center  306 is at   4.409113 -2.694892 -0.551143
      ESP Fit Center  307 is at   4.172570 -1.658529 -1.533517
      ESP Fit Center  308 is at   3.868493 -0.622938 -1.533517
      ESP Fit Center  309 is at   0.419187 -2.198184 -1.533517
      ESP Fit Center  310 is at   1.002706 -3.106158 -1.533517
      ESP Fit Center  311 is at   1.984481 -3.554519 -1.533517
      ESP Fit Center  312 is at   3.052805 -3.400917 -1.533517
      ESP Fit Center  313 is at   3.868493 -2.694120 -1.533517
      ESP Fit Center  314 is at   3.320098 -1.658529 -2.213341
      ESP Fit Center  315 is at   2.788591 -0.737931 -2.213341
      ESP Fit Center  316 is at   1.725575 -0.737931 -2.213341
      ESP Fit Center  317 is at   1.194068 -1.658529 -2.213341
      ESP Fit Center  318 is at   1.725575 -2.579127 -2.213341
      ESP Fit Center  319 is at   2.788591 -2.579127 -2.213341
      ESP Fit Center  320 is at   2.257083 -1.658529 -2.455967
      ESP Fit Center  321 is at   2.565227 -1.372109  4.041034
      ESP Fit Center  322 is at   3.552706 -1.372109  3.720183
      ESP Fit Center  323 is at   2.870375 -0.432960  3.720183
      ESP Fit Center  324 is at   1.766340 -0.791683  3.720183
      ESP Fit Center  325 is at   4.163002 -1.372109  2.880183
      ESP Fit Center  326 is at   3.789194 -0.345079  2.880183
      ESP Fit Center  327 is at   2.842678  0.201392  2.880183
      ESP Fit Center  328 is at   1.766340  0.011605  2.880183
      ESP Fit Center  329 is at   4.163002 -1.372109  1.841885
      ESP Fit Center  330 is at   3.789194 -0.345079  1.841885
      ESP Fit Center  331 is at   0.256921 -1.621500  3.379446
      ESP Fit Center  332 is at   0.256921 -2.782352  3.379446
      ESP Fit Center  333 is at   0.256921 -0.818212  2.539446
      ESP Fit Center  334 is at  -0.445609 -1.655455  2.539446
      ESP Fit Center  335 is at  -0.445609 -2.748397  2.539446
      ESP Fit Center  336 is at   0.256921 -3.585640  2.539446
      ESP Fit Center  337 is at  -0.445609 -2.748397  1.501148
      ESP Fit Center  338 is at   0.256921 -3.585640  1.501148
      ESP Fit Center  339 is at   0.748133 -3.979791  1.964902
      ESP Fit Center  340 is at   5.437527 -3.399537  2.241294
      ESP Fit Center  341 is at   5.063719 -2.372507  2.241294
      ESP Fit Center  342 is at   5.437527 -3.399537  1.202996
      ESP Fit Center  343 is at   5.063719 -2.372507  1.202996
      ESP Fit Center  344 is at   4.117203 -4.973038  1.202996
      ESP Fit Center  345 is at   5.063719 -4.426567  1.202996
      ESP Fit Center  346 is at   4.827231 -3.399537  0.362996
      ESP Fit Center  347 is at   4.144900 -4.338686  0.362996
      ESP Fit Center  348 is at   0.840525 -4.772451  1.841761
      ESP Fit Center  349 is at   0.840525 -3.679509  0.803463
      ESP Fit Center  350 is at   0.840525 -4.772451  0.803463
      ESP Fit Center  351 is at   1.543055 -5.609694  0.803463
      ESP Fit Center  352 is at   3.565909 -5.253010  0.803463
      ESP Fit Center  353 is at   3.329421 -4.225980 -0.036537
      ESP Fit Center  354 is at   1.543055 -4.806406 -0.036537
      ESP Fit Center  355 is at   2.647090 -5.165129 -0.036537
      ESP Fit Center  356 is at   2.341942 -4.225980 -0.357388
      ESP Fit Center  357 is at   2.610703 -3.964230  6.160009
      ESP Fit Center  358 is at   3.673718 -3.964230  5.917383
      ESP Fit Center  359 is at   3.142211 -3.043632  5.917383
      ESP Fit Center  360 is at   2.079195 -3.043632  5.917383
      ESP Fit Center  361 is at   1.547688 -3.964230  5.917383
      ESP Fit Center  362 is at   2.079195 -4.884828  5.917383
      ESP Fit Center  363 is at   4.526190 -3.964230  5.237559
      ESP Fit Center  364 is at   4.222113 -2.928639  5.237559
      ESP Fit Center  365 is at   3.406425 -2.221842  5.237559
      ESP Fit Center  366 is at   2.338101 -2.068240  5.237559
      ESP Fit Center  367 is at   1.356326 -2.516601  5.237559
      ESP Fit Center  368 is at   0.772807 -3.424575  5.237559
      ESP Fit Center  369 is at   0.772807 -4.503885  5.237559
      ESP Fit Center  370 is at   1.356326 -5.411859  5.237559
      ESP Fit Center  371 is at   4.762733 -2.927867  4.255185
      ESP Fit Center  372 is at   4.099954 -2.096768  4.255185
      ESP Fit Center  373 is at   3.142211 -1.635543  4.255185
      ESP Fit Center  374 is at   2.079195 -1.635543  4.255185
      ESP Fit Center  375 is at   1.121452 -2.096768  4.255185
      ESP Fit Center  376 is at   0.458673 -2.927867  4.255185
      ESP Fit Center  377 is at   0.222130 -3.964230  4.255185
      ESP Fit Center  378 is at   0.458673 -5.000593  4.255185
      ESP Fit Center  379 is at   4.762733 -2.927867  3.164833
      ESP Fit Center  380 is at   4.099954 -2.096768  3.164833
      ESP Fit Center  381 is at   0.222130 -3.964230  3.164833
      ESP Fit Center  382 is at   0.458673 -5.000593  3.164833
      ESP Fit Center  383 is at   0.772807 -4.503885  2.182459
      ESP Fit Center  384 is at   1.356326 -5.411859  2.182459
      ESP Fit Center  385 is at   5.165883 -4.482523  4.822659
      ESP Fit Center  386 is at   3.804183 -5.650605  6.505734
      ESP Fit Center  387 is at   4.791662 -5.650605  6.184883
      ESP Fit Center  388 is at   4.109331 -4.711456  6.184883
      ESP Fit Center  389 is at   3.005296 -5.070179  6.184883
      ESP Fit Center  390 is at   3.005296 -6.231031  6.184883
      ESP Fit Center  391 is at   4.109331 -6.589754  6.184883
      ESP Fit Center  392 is at   5.401958 -5.650605  5.344883
      ESP Fit Center  393 is at   5.028150 -4.623575  5.344883
      ESP Fit Center  394 is at   2.302766 -6.197076  5.344883
      ESP Fit Center  395 is at   3.005296 -7.034319  5.344883
      ESP Fit Center  396 is at   5.028150 -6.677635  5.344883
      ESP Fit Center  397 is at   5.588242 -5.255966  4.689453
      ESP Fit Center  398 is at   6.198538 -5.255966  3.849453
      ESP Fit Center  399 is at   5.824730 -4.228936  3.849453
      ESP Fit Center  400 is at   5.824730 -6.282996  3.849453
      ESP Fit Center  401 is at   6.198538 -5.255966  2.811155
      ESP Fit Center  402 is at   5.824730 -4.228936  2.811155
      ESP Fit Center  403 is at   1.238062 -7.203137  2.083796
      ESP Fit Center  404 is at   1.792082 -8.065209  2.083796
      ESP Fit Center  405 is at   2.029613 -6.878840  5.288607
      ESP Fit Center  406 is at   1.230726 -6.298414  4.967756
      ESP Fit Center  407 is at   1.230726 -7.459266  4.967756
      ESP Fit Center  408 is at   0.528196 -6.332369  4.127756
      ESP Fit Center  409 is at   0.528196 -7.425311  4.127756
      ESP Fit Center  410 is at   1.230726 -8.262554  4.127756
      ESP Fit Center  411 is at   0.528196 -6.332369  3.089458
      ESP Fit Center  412 is at   0.528196 -7.425311  3.089458
      ESP Fit Center  413 is at   1.230726 -8.262554  3.089458
      ESP Fit Center  414 is at   1.230726 -7.459266  2.249458
      ESP Fit Center  415 is at   1.287607 -5.987050  1.561120
      ESP Fit Center  416 is at   1.287607 -7.079992  1.561120
      ESP Fit Center  417 is at   1.990137 -7.917235  1.561120
      ESP Fit Center  418 is at   3.776503 -6.533521  0.721120
      ESP Fit Center  419 is at   1.990137 -5.953095  0.721120
      ESP Fit Center  420 is at   1.990137 -7.113947  0.721120
      ESP Fit Center  421 is at   2.789024 -6.533521  0.400269
      ESP Fit Center  422 is at   3.972444 -8.212552  5.767214
      ESP Fit Center  423 is at   5.035459 -8.212552  5.524588
      ESP Fit Center  424 is at   4.503952 -7.291954  5.524588
      ESP Fit Center  425 is at   3.440936 -7.291954  5.524588
      ESP Fit Center  426 is at   2.909429 -8.212552  5.524588
      ESP Fit Center  427 is at   3.440936 -9.133150  5.524588
      ESP Fit Center  428 is at   4.503952 -9.133150  5.524588
      ESP Fit Center  429 is at   5.887931 -8.212552  4.844764
      ESP Fit Center  430 is at   5.583854 -7.176961  4.844764
      ESP Fit Center  431 is at   2.134548 -8.752207  4.844764
      ESP Fit Center  432 is at   2.718067 -9.660181  4.844764
      ESP Fit Center  433 is at   3.699842-10.108542  4.844764
      ESP Fit Center  434 is at   4.768166 -9.954940  4.844764
      ESP Fit Center  435 is at   5.583854 -9.248143  4.844764
      ESP Fit Center  436 is at   6.361017 -8.212552  3.862390
      ESP Fit Center  437 is at   6.124474 -7.176189  3.862390
      ESP Fit Center  438 is at   1.820414 -9.248915  3.862390
      ESP Fit Center  439 is at   2.483193-10.080014  3.862390
      ESP Fit Center  440 is at   3.440936-10.541239  3.862390
      ESP Fit Center  441 is at   4.503952-10.541239  3.862390
      ESP Fit Center  442 is at   5.461695-10.080014  3.862390
      ESP Fit Center  443 is at   6.124474 -9.248915  3.862390
      ESP Fit Center  444 is at   1.820414 -9.248915  2.772038
      ESP Fit Center  445 is at   2.483193-10.080014  2.772038
      ESP Fit Center  446 is at   3.440936-10.541239  2.772038
      ESP Fit Center  447 is at   4.503952-10.541239  2.772038
      ESP Fit Center  448 is at   2.134548 -8.752207  1.789664
      ESP Fit Center  449 is at   2.718067 -9.660181  1.789664
      ESP Fit Center  450 is at   5.300356 -9.289045 -0.126397
      ESP Fit Center  451 is at   6.205713 -9.368353  3.077725
      ESP Fit Center  452 is at   5.523382-10.307502  3.077725
      ESP Fit Center  453 is at   6.816009 -9.368353  2.237725
      ESP Fit Center  454 is at   4.419347-10.752067  2.237725
      ESP Fit Center  455 is at   5.495685-10.941854  2.237725
      ESP Fit Center  456 is at   6.442201-10.395383  2.237725
      ESP Fit Center  457 is at   6.816009 -9.368353  1.199427
      ESP Fit Center  458 is at   4.419347-10.752067  1.199427
      ESP Fit Center  459 is at   5.495685-10.941854  1.199427
      ESP Fit Center  460 is at   6.442201-10.395383  1.199427
      ESP Fit Center  461 is at   6.205713 -9.368353  0.359427
      ESP Fit Center  462 is at   5.523382-10.307502  0.359427
      ESP Fit Center  463 is at   2.507101 -8.945096  1.445701
      ESP Fit Center  464 is at   3.209631 -9.782339  1.445701
      ESP Fit Center  465 is at   3.209631 -7.014911  0.407403
      ESP Fit Center  466 is at   2.507101 -7.852154  0.407403
      ESP Fit Center  467 is at   2.507101 -8.945096  0.407403
      ESP Fit Center  468 is at   3.209631 -9.782339  0.407403
      ESP Fit Center  469 is at   4.285969 -9.972126  0.407403
      ESP Fit Center  470 is at   4.995997 -8.398625 -0.432597
      ESP Fit Center  471 is at   4.313666 -7.459476 -0.432597
      ESP Fit Center  472 is at   3.209631 -7.818199 -0.432597
      ESP Fit Center  473 is at   3.209631 -8.979051 -0.432597
      ESP Fit Center  474 is at   4.313666 -9.337774 -0.432597
      ESP Fit Center  475 is at   4.008518 -8.398625 -0.753448
      ESP Fit Center  476 is at   7.034672 -5.611376  1.364933
      ESP Fit Center  477 is at   7.034672 -9.067908  1.364933
      ESP Fit Center  478 is at   4.096751 -6.827268  0.314933
      ESP Fit Center  479 is at   5.316736 -6.430315 -0.453720
      ESP Fit Center  480 is at   4.791736 -7.339642 -0.453720
      ESP Fit Center  481 is at   7.910351 -7.579069  0.934838
      ESP Fit Center  482 is at   7.536543 -8.606099  0.934838
      ESP Fit Center  483 is at   7.910351 -7.579069 -0.103460
      ESP Fit Center  484 is at   7.536543 -6.552039 -0.103460
      ESP Fit Center  485 is at   6.590027 -6.005568 -0.103460
      ESP Fit Center  486 is at   6.590027 -9.152570 -0.103460
      ESP Fit Center  487 is at   7.536543 -8.606099 -0.103460
      ESP Fit Center  488 is at   7.300055 -7.579069 -0.943460
      ESP Fit Center  489 is at   6.617724 -6.639920 -0.943460
      ESP Fit Center  490 is at   5.513689 -6.998643 -0.943460
      ESP Fit Center  491 is at   5.513689 -8.159495 -0.943460
      ESP Fit Center  492 is at   6.617724 -8.518218 -0.943460
      ESP Fit Center  493 is at   6.312576 -7.579069 -1.264311
      ESP Fit Center  494 is at   6.641963 -5.318206  1.795070
      ESP Fit Center  495 is at   5.695447 -4.771735  1.795070
      ESP Fit Center  496 is at   6.641963 -5.318206  0.756772
      ESP Fit Center  497 is at   5.695447 -4.771735  0.756772
      ESP Fit Center  498 is at   4.619109 -4.961522  0.756772
      ESP Fit Center  499 is at   3.916579 -5.798765  0.756772
      ESP Fit Center  500 is at   5.723144 -5.406087 -0.083228
      ESP Fit Center  501 is at   4.619109 -5.764810 -0.083228
      ESP Fit Center  502 is at   6.609075 -7.313793  3.809918
      ESP Fit Center  503 is at   7.596554 -7.313793  3.489067
      ESP Fit Center  504 is at   6.914223 -6.374644  3.489067
      ESP Fit Center  505 is at   6.914223 -8.252942  3.489067
      ESP Fit Center  506 is at   8.206850 -7.313793  2.649067
      ESP Fit Center  507 is at   7.833042 -6.286763  2.649067
      ESP Fit Center  508 is at   6.886526 -5.740292  2.649067
      ESP Fit Center  509 is at   6.886526 -8.887294  2.649067
      ESP Fit Center  510 is at   7.833042 -8.340823  2.649067
      ESP Fit Center  511 is at   8.206850 -7.313793  1.610769
      ESP Fit Center  512 is at   7.833042 -6.286763  1.610769
      ESP Fit Center  513 is at   7.833042 -8.340823  1.610769
      ESP Fit Center  514 is at  -0.423918  6.957987 -4.641888
      ESP Fit Center  515 is at  -4.222603  5.128637 -4.641888
      ESP Fit Center  516 is at  -3.992523  5.539902 -5.604214
      ESP Fit Center  517 is at  -2.243085  7.859797 -6.270163
      ESP Fit Center  518 is at  -3.284405  7.859797 -6.270163
      ESP Fit Center  519 is at  -3.805066  6.957987 -6.270163
      ESP Fit Center  520 is at  -0.440724  6.288529 -4.861732
      ESP Fit Center  521 is at  -3.320724  4.625760 -4.861732
      ESP Fit Center  522 is at  -0.697955  6.288529 -5.821732
      ESP Fit Center  523 is at  -1.015516  7.265880 -5.821732
      ESP Fit Center  524 is at  -3.705932  5.311178 -5.821732
      ESP Fit Center  525 is at  -2.874548  4.707142 -5.821732
      ESP Fit Center  526 is at  -1.846900  4.707142 -5.821732
      ESP Fit Center  527 is at  -1.015516  5.311178 -5.821732
      ESP Fit Center  528 is at  -1.400724  6.288529 -6.524501
      ESP Fit Center  529 is at  -1.880724  7.119913 -6.524501
      ESP Fit Center  530 is at  -2.840724  7.119913 -6.524501
      ESP Fit Center  531 is at  -3.320724  6.288529 -6.524501
      ESP Fit Center  532 is at  -2.840724  5.457145 -6.524501
      ESP Fit Center  533 is at  -1.880724  5.457145 -6.524501
      ESP Fit Center  534 is at  -2.360724  6.288529 -6.781732
      ESP Fit Center  535 is at  -4.323790  8.715063 -3.382593
      ESP Fit Center  536 is at  -5.155174  8.111027 -3.382593
      ESP Fit Center  537 is at  -5.472735  7.133676 -3.382593
      ESP Fit Center  538 is at  -5.155174  6.156325 -3.382593
      ESP Fit Center  539 is at  -4.769966  8.796445 -4.342593
      ESP Fit Center  540 is at  -5.472735  8.093676 -4.342593
      ESP Fit Center  541 is at  -5.729966  7.133676 -4.342593
      ESP Fit Center  542 is at  -5.472735  6.173676 -4.342593
      ESP Fit Center  543 is at  -4.769966  5.470907 -4.342593
      ESP Fit Center  544 is at  -4.323790  8.715063 -5.302593
      ESP Fit Center  545 is at  -5.155174  8.111027 -5.302593
      ESP Fit Center  546 is at  -5.472735  7.133676 -5.302593
      ESP Fit Center  547 is at  -5.155174  6.156325 -5.302593
      ESP Fit Center  548 is at  -4.323790  5.552289 -5.302593
      ESP Fit Center  549 is at  -4.289966  7.965060 -6.005362
      ESP Fit Center  550 is at  -4.769966  7.133676 -6.005362
      ESP Fit Center  551 is at  -4.289966  6.302292 -6.005362
      ESP Fit Center  552 is at  -3.809966  7.133676 -6.262593
      ESP Fit Center  553 is at  -1.752628  8.732484 -2.514117
      ESP Fit Center  554 is at  -0.887420  8.878451 -3.216886
      ESP Fit Center  555 is at  -1.718804  9.482487 -3.216886
      ESP Fit Center  556 is at  -2.746452  9.482487 -3.216886
      ESP Fit Center  557 is at  -0.312628  7.901100 -4.176886
      ESP Fit Center  558 is at  -0.569859  8.861100 -4.176886
      ESP Fit Center  559 is at  -1.272628  9.563869 -4.176886
      ESP Fit Center  560 is at  -2.232628  9.821100 -4.176886
      ESP Fit Center  561 is at  -3.192628  9.563869 -4.176886
      ESP Fit Center  562 is at  -0.569859  7.901100 -5.136886
      ESP Fit Center  563 is at  -0.887420  8.878451 -5.136886
      ESP Fit Center  564 is at  -1.718804  9.482487 -5.136886
      ESP Fit Center  565 is at  -2.746452  9.482487 -5.136886
      ESP Fit Center  566 is at  -1.272628  7.901100 -5.839655
      ESP Fit Center  567 is at  -1.752628  8.732484 -5.839655
      ESP Fit Center  568 is at  -2.712628  8.732484 -5.839655
      ESP Fit Center  569 is at  -3.142062  5.470840 -0.547661
      ESP Fit Center  570 is at  -4.421790  5.844008 -1.213610
      ESP Fit Center  571 is at  -4.961229  6.372650 -2.175936
      ESP Fit Center  572 is at  -3.038417  7.057617 -0.061335
      ESP Fit Center  573 is at  -2.078417  7.057617 -0.318566
      ESP Fit Center  574 is at  -2.558417  7.889001 -0.318566
      ESP Fit Center  575 is at  -3.518417  7.889001 -0.318566
      ESP Fit Center  576 is at  -3.998417  7.057617 -0.318566
      ESP Fit Center  577 is at  -3.518417  6.226233 -0.318566
      ESP Fit Center  578 is at  -1.693209  8.034968 -1.021335
      ESP Fit Center  579 is at  -2.524593  8.639004 -1.021335
      ESP Fit Center  580 is at  -3.552241  8.639004 -1.021335
      ESP Fit Center  581 is at  -4.383625  8.034968 -1.021335
      ESP Fit Center  582 is at  -4.701186  7.057617 -1.021335
      ESP Fit Center  583 is at  -4.383625  6.080266 -1.021335
      ESP Fit Center  584 is at  -2.078417  8.720386 -1.981335
      ESP Fit Center  585 is at  -3.038417  8.977617 -1.981335
      ESP Fit Center  586 is at  -3.998417  8.720386 -1.981335
      ESP Fit Center  587 is at  -4.701186  8.017617 -1.981335
      ESP Fit Center  588 is at  -4.958417  7.057617 -1.981335
      ESP Fit Center  589 is at  -4.119748  5.436380 -0.961495
      ESP Fit Center  590 is at  -4.822517  5.436380 -1.664264
      ESP Fit Center  591 is at  -4.504956  4.459029 -1.664264
      ESP Fit Center  592 is at  -5.079748  5.436380 -2.624264
      ESP Fit Center  593 is at  -4.822517  4.476380 -2.624264
      ESP Fit Center  594 is at  -4.119748  3.773611 -2.624264
      ESP Fit Center  595 is at  -4.822517  5.436380 -3.584264
      ESP Fit Center  596 is at  -4.504956  4.459029 -3.584264
      ESP Fit Center  597 is at  -3.673572  3.854993 -3.584264
      ESP Fit Center  598 is at  -3.639748  4.604996 -4.287033
      ESP Fit Center  599 is at  -1.274042  6.197810 -0.112925
      ESP Fit Center  600 is at  -0.788092  7.039500 -0.334755
      ESP Fit Center  601 is at  -1.759992  7.039500 -0.334755
      ESP Fit Center  602 is at  -2.245942  6.197810 -0.334755
      ESP Fit Center  603 is at   0.142792  7.227200 -0.956308
      ESP Fit Center  604 is at  -0.732860  7.863398 -0.956308
      ESP Fit Center  605 is at   0.659651  7.212690 -1.854478
      ESP Fit Center  606 is at  -0.033480  7.995074 -1.854478
      ESP Fit Center  607 is at  -1.010809  8.365726 -1.854478
      ESP Fit Center  608 is at   0.659651  7.212690 -2.851372
      ESP Fit Center  609 is at  -0.033480  7.995074 -2.851372
      ESP Fit Center  610 is at   0.142792  7.227200 -3.749542
      ESP Fit Center  611 is at   0.907384  6.004594 -1.217278
      ESP Fit Center  612 is at  -0.150480  5.891948 -4.875979
      ESP Fit Center  613 is at   2.008188  5.212164 -2.062750
      ESP Fit Center  614 is at   1.690627  6.189515 -2.062750
      ESP Fit Center  615 is at   2.265419  5.212164 -3.022750
      ESP Fit Center  616 is at   2.008188  6.172164 -3.022750
      ESP Fit Center  617 is at   1.305419  6.874933 -3.022750
      ESP Fit Center  618 is at   2.008188  4.252164 -3.022750
      ESP Fit Center  619 is at   2.008188  5.212164 -3.982750
      ESP Fit Center  620 is at   1.690627  6.189515 -3.982750
      ESP Fit Center  621 is at   0.859243  6.793551 -3.982750
      ESP Fit Center  622 is at   0.859243  3.630777 -3.982750
      ESP Fit Center  623 is at   1.690627  4.234813 -3.982750
      ESP Fit Center  624 is at   1.305419  5.212164 -4.685519
      ESP Fit Center  625 is at   0.825419  6.043548 -4.685519
      ESP Fit Center  626 is at   0.825419  4.380780 -4.685519
      ESP Fit Center  627 is at   0.345419  5.212164 -4.942750
      ESP Fit Center  628 is at  -2.842125  3.568701 -3.555722
      ESP Fit Center  629 is at  -2.139356  2.865932 -3.555722
      ESP Fit Center  630 is at  -1.179356  2.608701 -3.555722
      ESP Fit Center  631 is at  -2.524564  3.551350 -4.515722
      ESP Fit Center  632 is at  -1.693180  2.947314 -4.515722
      ESP Fit Center  633 is at  -0.665532  2.947314 -4.515722
      ESP Fit Center  634 is at   0.165852  3.551350 -4.515722
      ESP Fit Center  635 is at  -0.219356  4.528701 -5.218491
      ESP Fit Center  636 is at  -0.699356  5.360085 -5.218491
      ESP Fit Center  637 is at  -1.659356  3.697317 -5.218491
      ESP Fit Center  638 is at  -0.699356  3.697317 -5.218491
      ESP Fit Center  639 is at  -1.179356  4.528701 -5.475722
      ESP Fit Center  640 is at   1.720154  4.013416 -1.023865
      ESP Fit Center  641 is at   1.720154  4.013416 -2.091965
      ESP Fit Center  642 is at   1.678733  3.172833 -0.856565
      ESP Fit Center  643 is at   1.935964  3.172833 -1.816565
      ESP Fit Center  644 is at   1.678733  2.212833 -1.816565
      ESP Fit Center  645 is at   1.678733  3.172833 -2.776565
      ESP Fit Center  646 is at  -0.497860  1.591446 -2.776565
      ESP Fit Center  647 is at   0.529788  1.591446 -2.776565
      ESP Fit Center  648 is at   1.361172  2.195482 -2.776565
      ESP Fit Center  649 is at   0.975964  3.172833 -3.479334
      ESP Fit Center  650 is at  -0.464036  2.341449 -3.479334
      ESP Fit Center  651 is at   0.495964  2.341449 -3.479334
      ESP Fit Center  652 is at   0.770391  4.508349  0.971200
      ESP Fit Center  653 is at   0.290391  5.339733  0.971200
      ESP Fit Center  654 is at  -0.669609  5.339733  0.971200
      ESP Fit Center  655 is at   1.473160  4.508349  0.268431
      ESP Fit Center  656 is at   1.155599  5.485700  0.268431
      ESP Fit Center  657 is at   0.324215  6.089736  0.268431
      ESP Fit Center  658 is at  -0.703433  6.089736  0.268431
      ESP Fit Center  659 is at  -1.534817  5.485700  0.268431
      ESP Fit Center  660 is at   1.155599  3.530998  0.268431
      ESP Fit Center  661 is at   1.730391  4.508349 -0.691569
      ESP Fit Center  662 is at   1.473160  5.468349 -0.691569
      ESP Fit Center  663 is at   0.770391  6.171118 -0.691569
      ESP Fit Center  664 is at  -3.557617  5.028280 -0.774230
      ESP Fit Center  665 is at  -4.043370  3.057500 -1.771124
      ESP Fit Center  666 is at  -3.674293  3.580127 -2.669294
      ESP Fit Center  667 is at  -3.339824  2.550737 -2.669294
      ESP Fit Center  668 is at  -2.464172  1.914539 -2.669294
      ESP Fit Center  669 is at  -1.381808  1.914539 -2.669294
      ESP Fit Center  670 is at  -2.894890  3.580127 -3.290847
      ESP Fit Center  671 is at  -2.408940  2.738437 -3.290847
      ESP Fit Center  672 is at  -3.185262  2.982157  2.130365
      ESP Fit Center  673 is at  -2.664601  5.263320  0.502090
      ESP Fit Center  674 is at  -3.944329  2.453515 -1.528336
      ESP Fit Center  675 is at  -3.682328  3.925392  1.837576
      ESP Fit Center  676 is at  -4.162328  3.094008  1.837576
      ESP Fit Center  677 is at  -3.682328  2.262624  1.837576
      ESP Fit Center  678 is at  -3.716152  4.675395  1.134807
      ESP Fit Center  679 is at  -4.547536  4.071359  1.134807
      ESP Fit Center  680 is at  -4.865097  3.094008  1.134807
      ESP Fit Center  681 is at  -4.547536  2.116657  1.134807
      ESP Fit Center  682 is at  -4.162328  4.756777  0.174807
      ESP Fit Center  683 is at  -4.865097  4.054008  0.174807
      ESP Fit Center  684 is at  -5.122328  3.094008  0.174807
      ESP Fit Center  685 is at  -4.865097  2.134008  0.174807
      ESP Fit Center  686 is at  -4.547536  4.071359 -0.785193
      ESP Fit Center  687 is at  -4.865097  3.094008 -0.785193
      ESP Fit Center  688 is at  -4.547536  2.116657 -0.785193
      ESP Fit Center  689 is at  -4.162328  3.094008 -1.487962
      ESP Fit Center  690 is at  -1.591095  3.496482  2.669957
      ESP Fit Center  691 is at  -0.631095  3.496482  2.412726
      ESP Fit Center  692 is at  -1.111095  4.327866  2.412726
      ESP Fit Center  693 is at  -2.071095  4.327866  2.412726
      ESP Fit Center  694 is at  -2.551095  3.496482  2.412726
      ESP Fit Center  695 is at  -2.071095  2.665098  2.412726
      ESP Fit Center  696 is at  -1.111095  2.665098  2.412726
      ESP Fit Center  697 is at   0.071674  3.496482  1.709957
      ESP Fit Center  698 is at  -0.245887  4.473833  1.709957
      ESP Fit Center  699 is at  -1.077271  5.077869  1.709957
      ESP Fit Center  700 is at  -2.104919  5.077869  1.709957
      ESP Fit Center  701 is at  -2.936303  4.473833  1.709957
      ESP Fit Center  702 is at  -1.591095  5.416482  0.749957
      ESP Fit Center  703 is at  -4.147630  1.504312 -0.531430
      ESP Fit Center  704 is at  -4.174914  1.011546 -0.858085
      ESP Fit Center  705 is at  -3.917683  0.051546 -0.858085
      ESP Fit Center  706 is at  -3.214914 -0.651223 -0.858085
      ESP Fit Center  707 is at  -2.254914 -0.908454 -0.858085
      ESP Fit Center  708 is at  -3.600122  1.988897 -1.818085
      ESP Fit Center  709 is at  -3.917683  1.011546 -1.818085
      ESP Fit Center  710 is at  -3.600122  0.034195 -1.818085
      ESP Fit Center  711 is at  -2.768738 -0.569841 -1.818085
      ESP Fit Center  712 is at  -1.294914  1.011546 -2.520854
      ESP Fit Center  713 is at  -2.734914  1.842930 -2.520854
      ESP Fit Center  714 is at  -3.214914  1.011546 -2.520854
      ESP Fit Center  715 is at  -2.734914  0.180162 -2.520854
      ESP Fit Center  716 is at  -1.774914  0.180162 -2.520854
      ESP Fit Center  717 is at  -2.254914  1.011546 -2.778085
      ESP Fit Center  718 is at  -2.235797  1.063385  2.823288
      ESP Fit Center  719 is at  -1.275797  1.063385  2.566057
      ESP Fit Center  720 is at  -1.755797  1.894769  2.566057
      ESP Fit Center  721 is at  -2.715797  1.894769  2.566057
      ESP Fit Center  722 is at  -3.195797  1.063385  2.566057
      ESP Fit Center  723 is at  -2.715797  0.232001  2.566057
      ESP Fit Center  724 is at  -1.755797  0.232001  2.566057
      ESP Fit Center  725 is at  -3.581005  2.040736  1.863288
      ESP Fit Center  726 is at  -3.898566  1.063385  1.863288
      ESP Fit Center  727 is at  -3.581005  0.086034  1.863288
      ESP Fit Center  728 is at  -2.749621 -0.518002  1.863288
      ESP Fit Center  729 is at  -4.155797  1.063385  0.903288
      ESP Fit Center  730 is at  -3.898566  0.103385  0.903288
      ESP Fit Center  731 is at  -3.195797 -0.599384  0.903288
      ESP Fit Center  732 is at  -0.420250  1.331419  2.240000
      ESP Fit Center  733 is at   0.551650  1.331419  2.018170
      ESP Fit Center  734 is at   0.065700  2.173109  2.018170
      ESP Fit Center  735 is at   0.996584  2.360809  1.396617
      ESP Fit Center  736 is at   0.820312  3.128683  0.498447
      ESP Fit Center  737 is at   0.551650  1.331419 -2.018170
      ESP Fit Center  738 is at  -0.420250  1.331419 -2.240000
      ESP Fit Center  739 is at   0.520660  0.901810  2.162325
      ESP Fit Center  740 is at  -2.036275 -1.480717 -0.878321
      ESP Fit Center  741 is at  -1.333506 -2.183486 -0.878321
      ESP Fit Center  742 is at  -0.373506 -2.440717 -0.878321
      ESP Fit Center  743 is at  -1.718714 -1.498068 -1.838321
      ESP Fit Center  744 is at  -0.887330 -2.102104 -1.838321
      ESP Fit Center  745 is at   0.140318 -2.102104 -1.838321
      ESP Fit Center  746 is at   0.586494 -0.520717 -2.541090
      ESP Fit Center  747 is at   0.106494  0.310667 -2.541090
      ESP Fit Center  748 is at  -0.853506  0.310667 -2.541090
      ESP Fit Center  749 is at  -1.333506 -0.520717 -2.541090
      ESP Fit Center  750 is at  -0.853506 -1.352101 -2.541090
      ESP Fit Center  751 is at   0.106494 -1.352101 -2.541090
      ESP Fit Center  752 is at  -0.373506 -0.520717 -2.798321
      ESP Fit Center  753 is at  -0.387344 -0.514769  2.797147
      ESP Fit Center  754 is at   0.092656  0.316615  2.539916
      ESP Fit Center  755 is at  -0.867344  0.316615  2.539916
      ESP Fit Center  756 is at  -1.347344 -0.514769  2.539916
      ESP Fit Center  757 is at  -0.867344 -1.346153  2.539916
      ESP Fit Center  758 is at  -1.732552 -1.492120  1.837147
      ESP Fit Center  759 is at  -0.901168 -2.096156  1.837147
      ESP Fit Center  760 is at  -2.050113 -1.474769  0.877147
      ESP Fit Center  761 is at  -1.347344 -2.177538  0.877147
      ESP Fit Center  762 is at   1.893028  0.562280  2.766902
      ESP Fit Center  763 is at   2.853028  0.562280  2.509671
      ESP Fit Center  764 is at   2.373028  1.393664  2.509671
      ESP Fit Center  765 is at   1.413028  1.393664  2.509671
      ESP Fit Center  766 is at   0.933028  0.562280  2.509671
      ESP Fit Center  767 is at   3.555797  0.562280  1.806902
      ESP Fit Center  768 is at   3.238236  1.539631  1.806902
      ESP Fit Center  769 is at   2.406852  2.143667  1.806902
      ESP Fit Center  770 is at   1.379204  2.143667  1.806902
      ESP Fit Center  771 is at   3.813028  0.562280  0.846902
      ESP Fit Center  772 is at   3.555797  1.522280  0.846902
      ESP Fit Center  773 is at   2.853028  2.225049  0.846902
      ESP Fit Center  774 is at   1.893028  2.482280  0.846902
      ESP Fit Center  775 is at   3.540390  1.450296 -0.896473
      ESP Fit Center  776 is at   2.837621  2.153065 -0.896473
      ESP Fit Center  777 is at   1.877621  2.410296 -0.896473
      ESP Fit Center  778 is at   3.540390  0.490296 -1.856473
      ESP Fit Center  779 is at   3.222829  1.467647 -1.856473
      ESP Fit Center  780 is at   2.391445  2.071683 -1.856473
      ESP Fit Center  781 is at   2.837621  0.490296 -2.559242
      ESP Fit Center  782 is at   2.357621  1.321680 -2.559242
      ESP Fit Center  783 is at   1.397621  1.321680 -2.559242
      ESP Fit Center  784 is at   0.917621  0.490296 -2.559242
      ESP Fit Center  785 is at   1.397621 -0.341088 -2.559242
      ESP Fit Center  786 is at   2.357621 -0.341088 -2.559242
      ESP Fit Center  787 is at   1.877621  0.490296 -2.816473
      ESP Fit Center  788 is at   4.843946 -1.658529  1.065547
      ESP Fit Center  789 is at   4.620300 -0.606357  1.065547
      ESP Fit Center  790 is at   3.988032  0.263885  1.065547
      ESP Fit Center  791 is at   5.057083 -1.658529 -0.005967
      ESP Fit Center  792 is at   4.868005 -0.647052 -0.005967
      ESP Fit Center  793 is at   4.326308  0.227819 -0.005967
      ESP Fit Center  794 is at  -0.123525 -3.132539 -0.005967
      ESP Fit Center  795 is at   0.569706 -3.892977 -0.005967
      ESP Fit Center  796 is at   4.868005 -2.670006 -0.005967
      ESP Fit Center  797 is at   4.843946 -1.658529 -1.077481
      ESP Fit Center  798 is at   4.620300 -0.606357 -1.077481
      ESP Fit Center  799 is at   3.988032  0.263885 -1.077481
      ESP Fit Center  800 is at   0.164267 -3.179049 -1.077481
      ESP Fit Center  801 is at   0.963652 -3.898818 -1.077481
      ESP Fit Center  802 is at   1.986682 -4.231221 -1.077481
      ESP Fit Center  803 is at   3.056468 -4.118782 -1.077481
      ESP Fit Center  804 is at   3.988032 -3.580943 -1.077481
      ESP Fit Center  805 is at   4.620300 -2.710701 -1.077481
      ESP Fit Center  806 is at   4.236982 -1.658529 -1.985866
      ESP Fit Center  807 is at   3.971726 -0.668580 -1.985866
      ESP Fit Center  808 is at   0.542440 -2.648478 -1.985866
      ESP Fit Center  809 is at   1.267134 -3.373172 -1.985866
      ESP Fit Center  810 is at   2.257083 -3.638428 -1.985866
      ESP Fit Center  811 is at   3.247032 -3.373172 -1.985866
      ESP Fit Center  812 is at   3.971726 -2.648478 -1.985866
      ESP Fit Center  813 is at   3.328597 -1.658529 -2.592830
      ESP Fit Center  814 is at   2.792840 -0.730571 -2.592830
      ESP Fit Center  815 is at   1.721326 -0.730571 -2.592830
      ESP Fit Center  816 is at   1.185569 -1.658529 -2.592830
      ESP Fit Center  817 is at   1.721326 -2.586487 -2.592830
      ESP Fit Center  818 is at   2.792840 -2.586487 -2.592830
      ESP Fit Center  819 is at   2.257083 -1.658529 -2.805967
      ESP Fit Center  820 is at   0.871337 -0.713818  3.242243
      ESP Fit Center  821 is at   3.045227 -0.540725  4.023803
      ESP Fit Center  822 is at   2.085227 -0.540725  4.023803
      ESP Fit Center  823 is at   4.227996 -1.372109  3.321034
      ESP Fit Center  824 is at   3.910435 -0.394758  3.321034
      ESP Fit Center  825 is at   3.079051  0.209278  3.321034
      ESP Fit Center  826 is at   2.051403  0.209278  3.321034
      ESP Fit Center  827 is at   1.220019 -0.394758  3.321034
      ESP Fit Center  828 is at   4.485227 -1.372109  2.361034
      ESP Fit Center  829 is at   4.227996 -0.412109  2.361034
      ESP Fit Center  830 is at   3.525227  0.290660  2.361034
      ESP Fit Center  831 is at   0.575808 -1.370542  3.683066
      ESP Fit Center  832 is at   0.095808 -2.201926  3.683066
      ESP Fit Center  833 is at   0.541984 -0.620539  2.980297
      ESP Fit Center  834 is at  -0.289400 -1.224575  2.980297
      ESP Fit Center  835 is at  -0.606961 -2.201926  2.980297
      ESP Fit Center  836 is at  -0.289400 -3.179277  2.980297
      ESP Fit Center  837 is at  -0.864192 -2.201926  2.020297
      ESP Fit Center  838 is at  -0.606961 -3.161926  2.020297
      ESP Fit Center  839 is at   0.095808 -3.864695  2.020297
      ESP Fit Center  840 is at  -0.289400 -3.179277  1.060297
      ESP Fit Center  841 is at   5.502521 -3.399537  2.682145
      ESP Fit Center  842 is at   5.184960 -2.422186  2.682145
      ESP Fit Center  843 is at   5.759752 -3.399537  1.722145
      ESP Fit Center  844 is at   5.502521 -2.439537  1.722145
      ESP Fit Center  845 is at   4.799752 -1.736768  1.722145
      ESP Fit Center  846 is at   5.502521 -4.359537  1.722145
      ESP Fit Center  847 is at   5.502521 -3.399537  0.762145
      ESP Fit Center  848 is at   5.184960 -2.422186  0.762145
      ESP Fit Center  849 is at   5.184960 -4.376888  0.762145
      ESP Fit Center  850 is at   4.799752 -3.399537  0.059376
      ESP Fit Center  851 is at   4.319752 -4.230921  0.059376
      ESP Fit Center  852 is at   0.421942 -4.225980  1.322612
      ESP Fit Center  853 is at   0.679173 -5.185980  1.322612
      ESP Fit Center  854 is at   0.679173 -4.225980  0.362612
      ESP Fit Center  855 is at   0.996734 -5.203331  0.362612
      ESP Fit Center  856 is at   1.828118 -5.807367  0.362612
      ESP Fit Center  857 is at   3.687150 -5.203331  0.362612
      ESP Fit Center  858 is at   1.861942 -5.057364 -0.340157
      ESP Fit Center  859 is at   2.821942 -5.057364 -0.340157
      ESP Fit Center  860 is at   2.610703 -3.964230  6.510009
      ESP Fit Center  861 is at   3.682217 -3.964230  6.296872
      ESP Fit Center  862 is at   3.146460 -3.036272  6.296872
      ESP Fit Center  863 is at   2.074946 -3.036272  6.296872
      ESP Fit Center  864 is at   1.539189 -3.964230  6.296872
      ESP Fit Center  865 is at   2.074946 -4.892188  6.296872
      ESP Fit Center  866 is at   4.590602 -3.964230  5.689908
      ESP Fit Center  867 is at   4.325346 -2.974281  5.689908
      ESP Fit Center  868 is at   3.600652 -2.249587  5.689908
      ESP Fit Center  869 is at   2.610703 -1.984331  5.689908
      ESP Fit Center  870 is at   1.620754 -2.249587  5.689908
      ESP Fit Center  871 is at   0.896060 -2.974281  5.689908
      ESP Fit Center  872 is at   0.630804 -3.964230  5.689908
      ESP Fit Center  873 is at   0.896060 -4.954179  5.689908
      ESP Fit Center  874 is at   1.620754 -5.678873  5.689908
      ESP Fit Center  875 is at   4.973920 -2.912058  4.781523
      ESP Fit Center  876 is at   4.341652 -2.041816  4.781523
      ESP Fit Center  877 is at   3.410088 -1.503977  4.781523
      ESP Fit Center  878 is at   2.340302 -1.391538  4.781523
      ESP Fit Center  879 is at   1.317272 -1.723941  4.781523
      ESP Fit Center  880 is at   0.517887 -2.443710  4.781523
      ESP Fit Center  881 is at   0.080369 -3.426391  4.781523
      ESP Fit Center  882 is at   0.080369 -4.502069  4.781523
      ESP Fit Center  883 is at   0.517887 -5.484750  4.781523
      ESP Fit Center  884 is at   5.221625 -2.952753  3.710009
      ESP Fit Center  885 is at   4.679928 -2.077882  3.710009
      ESP Fit Center  886 is at  -0.141622 -3.449731  3.710009
      ESP Fit Center  887 is at  -0.141622 -4.478729  3.710009
      ESP Fit Center  888 is at   0.230095 -5.438240  3.710009
      ESP Fit Center  889 is at   0.080369 -4.502069  2.638495
      ESP Fit Center  890 is at   0.517887 -5.484750  2.638495
      ESP Fit Center  891 is at   3.804183 -5.650605  6.745734
      ESP Fit Center  892 is at   4.764183 -5.650605  6.488503
      ESP Fit Center  893 is at   4.284183 -4.819221  6.488503
      ESP Fit Center  894 is at   3.324183 -4.819221  6.488503
      ESP Fit Center  895 is at   2.844183 -5.650605  6.488503
      ESP Fit Center  896 is at   3.324183 -6.481989  6.488503
      ESP Fit Center  897 is at   4.284183 -6.481989  6.488503
      ESP Fit Center  898 is at   5.466952 -5.650605  5.785734
      ESP Fit Center  899 is at   5.149391 -4.673254  5.785734
      ESP Fit Center  900 is at   2.458975 -6.627956  5.785734
      ESP Fit Center  901 is at   5.149391 -6.627956  5.785734
      ESP Fit Center  902 is at   6.263532 -5.255966  4.290304
      ESP Fit Center  903 is at   5.945971 -4.278615  4.290304
      ESP Fit Center  904 is at   5.945971 -6.233317  4.290304
      ESP Fit Center  905 is at   6.520763 -5.255966  3.330304
      ESP Fit Center  906 is at   6.263532 -4.295966  3.330304
      ESP Fit Center  907 is at   5.560763 -3.593197  3.330304
      ESP Fit Center  908 is at   5.945971 -4.278615  2.370304
      ESP Fit Center  909 is at   2.029613 -6.878840  5.528607
      ESP Fit Center  910 is at   1.549613 -6.047456  5.271376
      ESP Fit Center  911 is at   1.069613 -6.878840  5.271376
      ESP Fit Center  912 is at   1.549613 -7.710224  5.271376
      ESP Fit Center  913 is at   0.684405 -5.901489  4.568607
      ESP Fit Center  914 is at   0.366844 -6.878840  4.568607
      ESP Fit Center  915 is at   0.684405 -7.856191  4.568607
      ESP Fit Center  916 is at   0.366844 -5.918840  3.608607
      ESP Fit Center  917 is at   0.109613 -6.878840  3.608607
      ESP Fit Center  918 is at   0.366844 -7.838840  3.608607
      ESP Fit Center  919 is at   1.069613 -8.541609  3.608607
      ESP Fit Center  920 is at   0.684405 -5.901489  2.648607
      ESP Fit Center  921 is at   0.366844 -6.878840  2.648607
      ESP Fit Center  922 is at   0.684405 -7.856191  2.648607
      ESP Fit Center  923 is at   1.126255 -6.533521  1.120269
      ESP Fit Center  924 is at   1.443816 -7.510872  1.120269
      ESP Fit Center  925 is at   3.269024 -5.702137  0.417500
      ESP Fit Center  926 is at   1.829024 -6.533521  0.417500
      ESP Fit Center  927 is at   2.309024 -7.364905  0.417500
      ESP Fit Center  928 is at   2.789024 -6.533521  0.160269
      ESP Fit Center  929 is at   3.972444 -8.212552  6.117214
      ESP Fit Center  930 is at   5.043958 -8.212552  5.904077
      ESP Fit Center  931 is at   4.508201 -7.284594  5.904077
      ESP Fit Center  932 is at   3.436687 -7.284594  5.904077
      ESP Fit Center  933 is at   2.900930 -8.212552  5.904077
      ESP Fit Center  934 is at   3.436687 -9.140510  5.904077
      ESP Fit Center  935 is at   4.508201 -9.140510  5.904077
      ESP Fit Center  936 is at   5.952343 -8.212552  5.297113
      ESP Fit Center  937 is at   5.687087 -7.222603  5.297113
      ESP Fit Center  938 is at   1.992545 -8.212552  5.297113
      ESP Fit Center  939 is at   2.257801 -9.202501  5.297113
      ESP Fit Center  940 is at   2.982495 -9.927195  5.297113
      ESP Fit Center  941 is at   3.972444-10.192451  5.297113
      ESP Fit Center  942 is at   4.962393 -9.927195  5.297113
      ESP Fit Center  943 is at   5.687087 -9.202501  5.297113
      ESP Fit Center  944 is at   6.559307 -8.212552  4.388728
      ESP Fit Center  945 is at   6.335661 -7.160380  4.388728
      ESP Fit Center  946 is at   1.442110 -8.750391  4.388728
      ESP Fit Center  947 is at   1.879628 -9.733072  4.388728
      ESP Fit Center  948 is at   2.679013-10.452841  4.388728
      ESP Fit Center  949 is at   3.702043-10.785244  4.388728
      ESP Fit Center  950 is at   4.771829-10.672805  4.388728
      ESP Fit Center  951 is at   5.703393-10.134966  4.388728
      ESP Fit Center  952 is at   6.335661 -9.264724  4.388728
      ESP Fit Center  953 is at   1.220119 -8.727051  3.317214
      ESP Fit Center  954 is at   1.591836 -9.686562  3.317214
      ESP Fit Center  955 is at   2.285067-10.447000  3.317214
      ESP Fit Center  956 is at   3.206188-10.905664  3.317214
      ESP Fit Center  957 is at   4.230795-11.000608  3.317214
      ESP Fit Center  958 is at   5.220511-10.719009  3.317214
      ESP Fit Center  959 is at   6.041669-10.098900  3.317214
      ESP Fit Center  960 is at   6.583366 -9.224029  3.317214
      ESP Fit Center  961 is at   1.442110 -8.750391  2.245700
      ESP Fit Center  962 is at   1.879628 -9.733072  2.245700
      ESP Fit Center  963 is at   2.679013-10.452841  2.245700
      ESP Fit Center  964 is at   3.702043-10.785244  2.245700
      ESP Fit Center  965 is at   1.992545 -8.212552  1.337315
      ESP Fit Center  966 is at   2.257801 -9.202501  1.337315
      ESP Fit Center  967 is at   3.316498-10.209068  1.158206
      ESP Fit Center  968 is at   5.296016 -9.281528 -0.470069
      ESP Fit Center  969 is at   6.881003 -9.368353  2.678576
      ESP Fit Center  970 is at   4.704410-10.949740  2.678576
      ESP Fit Center  971 is at   5.732058-10.949740  2.678576
      ESP Fit Center  972 is at   6.563442-10.345704  2.678576
      ESP Fit Center  973 is at   7.138234 -9.368353  1.718576
      ESP Fit Center  974 is at   4.258234-11.031122  1.718576
      ESP Fit Center  975 is at   5.218234-11.288353  1.718576
      ESP Fit Center  976 is at   6.178234-11.031122  1.718576
      ESP Fit Center  977 is at   6.881003-10.328353  1.718576
      ESP Fit Center  978 is at   4.704410-10.949740  0.758576
      ESP Fit Center  979 is at   5.732058-10.949740  0.758576
      ESP Fit Center  980 is at   6.563442-10.345704  0.758576
      ESP Fit Center  981 is at   4.738234-10.199737  0.055807
      ESP Fit Center  982 is at   5.698234-10.199737  0.055807
      ESP Fit Center  983 is at   2.088518 -8.398625  0.926552
      ESP Fit Center  984 is at   2.345749 -9.358625  0.926552
      ESP Fit Center  985 is at   3.048518-10.061394  0.926552
      ESP Fit Center  986 is at   3.494694 -6.817238 -0.033448
      ESP Fit Center  987 is at   2.663310 -7.421274 -0.033448
      ESP Fit Center  988 is at   2.345749 -8.398625 -0.033448
      ESP Fit Center  989 is at   2.663310 -9.375976 -0.033448
      ESP Fit Center  990 is at   3.494694 -9.980012 -0.033448
      ESP Fit Center  991 is at   4.968518 -8.398625 -0.736217
      ESP Fit Center  992 is at   4.488518 -7.567241 -0.736217
      ESP Fit Center  993 is at   3.528518 -7.567241 -0.736217
      ESP Fit Center  994 is at   3.048518 -8.398625 -0.736217
      ESP Fit Center  995 is at   3.528518 -9.230009 -0.736217
      ESP Fit Center  996 is at   4.488518 -9.230009 -0.736217
      ESP Fit Center  997 is at   4.008518 -8.398625 -0.993448
      ESP Fit Center  998 is at   7.300594 -5.510292  1.898983
      ESP Fit Center  999 is at   7.300594 -9.168992  1.898983
      ESP Fit Center 1000 is at   8.181563 -7.339642  0.830883
      ESP Fit Center 1001 is at   7.949847 -6.324429  0.830883
      ESP Fit Center 1002 is at   7.300594 -5.510292  0.830883
      ESP Fit Center 1003 is at   6.621219 -5.632813 -0.131443
      ESP Fit Center 1004 is at   5.321076 -6.437832 -0.797392
      ESP Fit Center 1005 is at   4.800415 -7.339642 -0.797392
      ESP Fit Center 1006 is at   8.232576 -7.579069  0.415689
      ESP Fit Center 1007 is at   7.975345 -6.619069  0.415689
      ESP Fit Center 1008 is at   7.272576 -9.241838  0.415689
      ESP Fit Center 1009 is at   7.975345 -8.539069  0.415689
      ESP Fit Center 1010 is at   7.975345 -7.579069 -0.544311
      ESP Fit Center 1011 is at   7.657784 -6.601718 -0.544311
      ESP Fit Center 1012 is at   6.826400 -5.997682 -0.544311
      ESP Fit Center 1013 is at   5.798752 -9.160456 -0.544311
      ESP Fit Center 1014 is at   6.826400 -9.160456 -0.544311
      ESP Fit Center 1015 is at   7.657784 -8.556420 -0.544311
      ESP Fit Center 1016 is at   7.272576 -7.579069 -1.247080
      ESP Fit Center 1017 is at   6.792576 -6.747685 -1.247080
      ESP Fit Center 1018 is at   5.832576 -6.747685 -1.247080
      ESP Fit Center 1019 is at   5.352576 -7.579069 -1.247080
      ESP Fit Center 1020 is at   5.832576 -8.410453 -1.247080
      ESP Fit Center 1021 is at   6.792576 -8.410453 -1.247080
      ESP Fit Center 1022 is at   6.312576 -7.579069 -1.504311
      ESP Fit Center 1023 is at   6.377996 -4.682467  1.275921
      ESP Fit Center 1024 is at   5.417996 -4.425236  1.275921
      ESP Fit Center 1025 is at   6.763204 -5.367885  0.315921
      ESP Fit Center 1026 is at   5.931820 -4.763849  0.315921
      ESP Fit Center 1027 is at   4.904172 -4.763849  0.315921
      ESP Fit Center 1028 is at   4.072788 -5.367885  0.315921
      ESP Fit Center 1029 is at   3.755227 -6.345236  0.315921
      ESP Fit Center 1030 is at   5.897996 -5.513852 -0.386848
      ESP Fit Center 1031 is at   4.937996 -5.513852 -0.386848
      ESP Fit Center 1032 is at   4.457996 -6.345236 -0.386848
      ESP Fit Center 1033 is at   6.609075 -7.313793  4.049918
      ESP Fit Center 1034 is at   7.569075 -7.313793  3.792687
      ESP Fit Center 1035 is at   7.089075 -6.482409  3.792687
      ESP Fit Center 1036 is at   6.129075 -6.482409  3.792687
      ESP Fit Center 1037 is at   7.089075 -8.145177  3.792687
      ESP Fit Center 1038 is at   8.271844 -7.313793  3.089918
      ESP Fit Center 1039 is at   7.954283 -6.336442  3.089918
      ESP Fit Center 1040 is at   7.122899 -5.732406  3.089918
      ESP Fit Center 1041 is at   7.122899 -8.895180  3.089918
      ESP Fit Center 1042 is at   7.954283 -8.291144  3.089918
      ESP Fit Center 1043 is at   8.529075 -7.313793  2.129918
      ESP Fit Center 1044 is at   8.271844 -6.353793  2.129918
      ESP Fit Center 1045 is at   7.569075 -5.651024  2.129918
      ESP Fit Center 1046 is at   7.569075 -8.976562  2.129918
      ESP Fit Center 1047 is at   8.271844 -8.273793  2.129918
      ESP Fit Center 1048 is at   8.271844 -7.313793  1.169918
[...]
 1367 Fit       0.012127
 1368 Fit       0.007149
 1369 Fit       0.003347
 1370 Fit       0.009033
 1371 Fit       0.001075
 1372 Fit       0.002619
 1373 Fit       0.009925
 1374 Fit       0.007398
 1375 Fit       0.010634
 1376 Fit       0.006994
 1377 Fit       0.012749
 1378 Fit       0.008732
 1379 Fit       0.011312
 1380 Fit      -0.005002
 1381 Fit      -0.003326
 1382 Fit      -0.010284
 1383 Fit      -0.010446
 1384 Fit      -0.007652
 1385 Fit      -0.000962
 1386 Fit      -0.002760
 1387 Fit      -0.010863
 1388 Fit      -0.014057
 1389 Fit      -0.013155
 1390 Fit      -0.011474
 1391 Fit      -0.011076
 1392 Fit      -0.010566
 1393 Fit      -0.006748
 1394 Fit       0.001016
 1395 Fit      -0.001861
 1396 Fit      -0.009409
 1397 Fit      -0.013421
 1398 Fit      -0.012805
 1399 Fit      -0.009754
 1400 Fit      -0.007519
 1401 Fit      -0.007624
 1402 Fit      -0.009970
 1403 Fit      -0.012152
 1404 Fit      -0.010672
 1405 Fit      -0.003349
 1406 Fit      -0.004167
 1407 Fit      -0.008231
 1408 Fit      -0.006693
 1409 Fit       0.001891
 1410 Fit      -0.000020
 1411 Fit      -0.005282
 1412 Fit      -0.010493
 1413 Fit      -0.011317
 1414 Fit       0.004881
 1415 Fit       0.001003
 1416 Fit      -0.004501
 1417 Fit      -0.007567
 1418 Fit       0.000468
 1419 Fit       0.004862
 1420 Fit       0.003364
 1421 Fit       0.002803
 1422 Fit       0.005211
 1423 Fit       0.004742
 1424 Fit       0.002102
 1425 Fit       0.001236
 1426 Fit       0.001795
 1427 Fit       0.006567
 1428 Fit       0.006875
 1429 Fit      -0.004484
 1430 Fit       0.003837
 1431 Fit       0.004200
 1432 Fit       0.008311
 1433 Fit       0.009161
 1434 Fit       0.007512
 1435 Fit       0.014656
 1436 Fit       0.006115
 1437 Fit       0.004574
 1438 Fit       0.007103
 1439 Fit       0.003637
 1440 Fit       0.002770
 1441 Fit      -0.000224
 1442 Fit       0.003384
 1443 Fit       0.000762
 1444 Fit       0.000225
 1445 Fit       0.003537
 1446 Fit       0.000980
 1447 Fit       0.003101
 1448 Fit       0.004460
 1449 Fit       0.000485
 1450 Fit       0.013560
 1451 Fit       0.010864
 1452 Fit       0.010079
 1453 Fit       0.016170
 1454 Fit       0.019444
 1455 Fit      -0.008974
 1456 Fit      -0.013544
 1457 Fit      -0.005144
 1458 Fit       0.001306
 1459 Fit      -0.004559
 1460 Fit      -0.011744
 1461 Fit      -0.014370
 1462 Fit      -0.015503
 1463 Fit      -0.011727
 1464 Fit      -0.001448
 1465 Fit      -0.009868
 1466 Fit      -0.014678
 1467 Fit      -0.015404
 1468 Fit      -0.014848
 1469 Fit      -0.015299
 1470 Fit      -0.012434
 1471 Fit      -0.011115
 1472 Fit      -0.009529
 1473 Fit      -0.015872
 1474 Fit      -0.017123
 1475 Fit      -0.014699
 1476 Fit      -0.011567
 1477 Fit      -0.010345
 1478 Fit      -0.011345
 1479 Fit      -0.009763
 1480 Fit      -0.016577
 1481 Fit      -0.017773
 1482 Fit      -0.014238
 1483 Fit      -0.008430
 1484 Fit      -0.003542
 1485 Fit      -0.001968
 1486 Fit      -0.003005
 1487 Fit      -0.009076
 1488 Fit      -0.014772
 1489 Fit      -0.014776
 1490 Fit      -0.009654
 1491 Fit      -0.001409
 1492 Fit      -0.004867
 1493 Fit      -0.008547
 1494 Fit      -0.006403
 1495 Fit       0.008887
 1496 Fit       0.011893
 1497 Fit       0.006585
 1498 Fit       0.001793
 1499 Fit       0.005613
 1500 Fit       0.006582
 1501 Fit       0.003794
 1502 Fit       0.007342
 1503 Fit       0.009096
 1504 Fit       0.009622
 1505 Fit       0.005596
 1506 Fit       0.007924
 1507 Fit       0.009905
 1508 Fit       0.010975
 1509 Fit       0.010792
 1510 Fit       0.004964
 1511 Fit       0.001107
 1512 Fit       0.018731
 1513 Fit       0.018728
 1514 Fit       0.014192
 1515 Fit       0.009918
 1516 Fit       0.007587
 1517 Fit       0.007623
 1518 Fit       0.014039
 1519 Fit       0.012319
 1520 Fit       0.010383
 1521 Fit       0.010968
 1522 Fit       0.012168
 1523 Fit       0.006131
 1524 Fit       0.008027
 1525 Fit       0.006119
 1526 Fit       0.005800
 1527 Fit       0.006250
 1528 Fit       0.006973
 1529 Fit       0.015447
 1530 Fit       0.011870
 1531 Fit       0.006321
 1532 Fit       0.009550
 1533 Fit       0.007387
 1534 Fit       0.008075
 1535 Fit       0.007224
 1536 Fit       0.006867
 1537 Fit       0.012014
 1538 Fit       0.010565
 1539 Fit       0.009167
 1540 Fit       0.009332
 1541 Fit       0.008344
 1542 Fit       0.008821
 1543 Fit       0.010885
 1544 Fit       0.011251
 1545 Fit       0.010485
 1546 Fit       0.009910
 1547 Fit       0.010366
 1548 Fit       0.009371
 1549 Fit       0.013114
 1550 Fit       0.021321
 1551 Fit       0.007910
 1552 Fit       0.010455
 1553 Fit       0.001348
 1554 Fit       0.001624
 1555 Fit      -0.003627
 1556 Fit       0.005176
 1557 Fit       0.005483
 1558 Fit       0.006233
 1559 Fit       0.003434
 1560 Fit       0.004395
 1561 Fit       0.005849
 1562 Fit       0.005913
 1563 Fit       0.006406
 1564 Fit       0.006910
 1565 Fit       0.005869
 1566 Fit      -0.003823
 1567 Fit      -0.001180
 1568 Fit       0.001229
 1569 Fit      -0.001170
 1570 Fit       0.000194
 1571 Fit       0.000097
 1572 Fit      -0.005069
 1573 Fit      -0.002256
 1574 Fit       0.000256
 1575 Fit      -0.004058
 1576 Fit      -0.003122
 1577 Fit      -0.002050
 1578 Fit      -0.000283
 1579 Fit      -0.003041
 1580 Fit      -0.002556
 1581 Fit      -0.001592
 1582 Fit      -0.003126
 1583 Fit       0.000562
 1584 Fit       0.002454
 1585 Fit      -0.000941
 1586 Fit      -0.003564
 1587 Fit       0.000783
 1588 Fit       0.002482
 1589 Fit       0.003426
 1590 Fit       0.002076
 1591 Fit      -0.000154
 1592 Fit      -0.002116
 1593 Fit      -0.000832
 1594 Fit       0.000920
 1595 Fit       0.001608
 1596 Fit      -0.000246
 1597 Fit       0.001060
 1598 Fit       0.002394
 1599 Fit       0.002817
 1600 Fit       0.000403
 1601 Fit       0.001941
 1602 Fit       0.002612
 1603 Fit       0.002452
 1604 Fit       0.001781
 1605 Fit      -0.001874
 1606 Fit       0.000210
 1607 Fit       0.001691
 1608 Fit       0.002277
 1609 Fit       0.001968
 1610 Fit       0.001003
 1611 Fit      -0.000128
 1612 Fit       0.001141
 1613 Fit       0.001245
 1614 Fit       0.000385
 1615 Fit      -0.001362
 1616 Fit      -0.000185
 1617 Fit      -0.018857
 1618 Fit      -0.009302
 1619 Fit      -0.005134
 1620 Fit      -0.012954
 1621 Fit      -0.007430
 1622 Fit      -0.004493
 1623 Fit      -0.003216
 1624 Fit      -0.010381
 1625 Fit      -0.007331
 1626 Fit      -0.004601
 1627 Fit      -0.003036
 1628 Fit      -0.002586
 1629 Fit      -0.005883
 1630 Fit      -0.004426
 1631 Fit      -0.003063
 1632 Fit      -0.002691
 1633 Fit      -0.003514
 1634 Fit      -0.012683
 1635 Fit      -0.003764
 1636 Fit      -0.001000
 1637 Fit      -0.016345
 1638 Fit       0.002060
 1639 Fit       0.001058
 1640 Fit       0.002455
 1641 Fit      -0.007766
 1642 Fit      -0.009576
 1643 Fit      -0.003918
 1644 Fit      -0.003033
 1645 Fit      -0.006990
 1646 Fit      -0.009925
 1647 Fit      -0.003912
 1648 Fit      -0.001051
 1649 Fit      -0.000250
 1650 Fit      -0.001330
 1651 Fit      -0.016122
 1652 Fit      -0.006955
 1653 Fit      -0.002498
 1654 Fit      -0.000085
 1655 Fit       0.001072
 1656 Fit       0.001073
 1657 Fit       0.000120
 1658 Fit       0.002020
 1659 Fit      -0.002759
 1660 Fit       0.000350
 1661 Fit      -0.001710
 1662 Fit      -0.007357
 1663 Fit       0.001744
 1664 Fit      -0.000358
 1665 Fit      -0.004352
 1666 Fit       0.000937
 1667 Fit      -0.001123
 1668 Fit      -0.003314
 1669 Fit      -0.020450
 1670 Fit      -0.017948
 1671 Fit      -0.019971
 1672 Fit      -0.023198
 1673 Fit      -0.020515
 1674 Fit      -0.018143
 1675 Fit      -0.023436
 1676 Fit      -0.022944
 1677 Fit      -0.021456
 1678 Fit      -0.022327
 1679 Fit      -0.017974
 1680 Fit      -0.019125
 1681 Fit      -0.004342
 1682 Fit       0.005635
 1683 Fit       0.006664
 1684 Fit      -0.006839
 1685 Fit       0.004660
 1686 Fit       0.002040
 1687 Fit       0.001736
 1688 Fit      -0.004525
 1689 Fit       0.002541
 1690 Fit      -0.001665
 1691 Fit      -0.008876
 1692 Fit       0.005470
 1693 Fit       0.002964
 1694 Fit      -0.000487
 1695 Fit      -0.006093
 1696 Fit       0.007358
 1697 Fit       0.005318
 1698 Fit       0.002715
 1699 Fit      -0.000660
 1700 Fit      -0.005923
 1701 Fit       0.004763
 1702 Fit       0.001969
 1703 Fit      -0.001608
 1704 Fit      -0.003773
 1705 Fit      -0.004624
 1706 Fit      -0.001388
 1707 Fit       0.003040
 1708 Fit       0.001657
 1709 Fit       0.002895
 1710 Fit       0.004531
 1711 Fit       0.003269
 1712 Fit       0.003968
 1713 Fit       0.004213
 1714 Fit       0.002320
 1715 Fit       0.001251
 1716 Fit       0.005413
 1717 Fit       0.001223
 1718 Fit       0.003092
 1719 Fit       0.006047
 1720 Fit       0.007322
 1721 Fit       0.002666
 1722 Fit       0.005897
 1723 Fit       0.007060
 1724 Fit       0.005801
 1725 Fit      -0.000399
 1726 Fit      -0.001083
 1727 Fit      -0.000797
 1728 Fit      -0.001778
 1729 Fit      -0.005779
 1730 Fit      -0.010062
 1731 Fit      -0.009377
 1732 Fit      -0.005433
 1733 Fit       0.000289
 1734 Fit      -0.001490
 1735 Fit      -0.007181
 1736 Fit      -0.008154
 1737 Fit      -0.005259
 1738 Fit      -0.010334
 1739 Fit      -0.008092
 1740 Fit      -0.005199
 1741 Fit       0.009935
 1742 Fit       0.005185
 1743 Fit       0.000449
 1744 Fit      -0.013352
 1745 Fit      -0.008804
 1746 Fit       0.006992
 1747 Fit       0.009640
 1748 Fit       0.004806
 1749 Fit       0.007578
 1750 Fit       0.010227
 1751 Fit       0.013721
 1752 Fit       0.001716
 1753 Fit       0.005026
 1754 Fit       0.007595
 1755 Fit       0.010073
 1756 Fit      -0.002280
 1757 Fit       0.002140
 1758 Fit       0.005080
 1759 Fit       0.007727
 1760 Fit      -0.001804
 1761 Fit       0.001886
 1762 Fit       0.006228
 1763 Fit       0.003619
 1764 Fit       0.003910
 1765 Fit       0.004950
 1766 Fit       0.008042
 1767 Fit       0.005660
 1768 Fit      -0.000428
 1769 Fit       0.001702
 1770 Fit       0.001331
 1771 Fit       0.001202
 1772 Fit       0.003131
 1773 Fit      -0.004120
 1774 Fit      -0.004374
 1775 Fit       0.005133
 1776 Fit       0.012521
 1777 Fit       0.010316
 1778 Fit       0.010839
 1779 Fit       0.007021
 1780 Fit       0.008368
 1781 Fit       0.009116
 1782 Fit       0.010125
 1783 Fit      -0.000229
 1784 Fit       0.005172
 1785 Fit       0.007221
 1786 Fit       0.008486
 1787 Fit       0.000719
 1788 Fit       0.000519
 1789 Fit       0.004821
 1790 Fit       0.005250
 1791 Fit      -0.000265
 1792 Fit       0.009936
 1793 Fit       0.008344
 1794 Fit       0.008612
 1795 Fit       0.010721
 1796 Fit       0.011008
 1797 Fit       0.011069
 1798 Fit       0.011262
 1799 Fit       0.012379
 1800 Fit       0.011591
 1801 Fit       0.011498
 1802 Fit       0.012742
 1803 Fit       0.012799
 1804 Fit       0.011671
 1805 Fit       0.011578
 1806 Fit       0.012955
 1807 Fit       0.004330
 1808 Fit      -0.001159
 1809 Fit      -0.004644
 1810 Fit      -0.006743
 1811 Fit       0.007817
 1812 Fit       0.011114
 1813 Fit       0.002467
 1814 Fit       0.009695
 1815 Fit       0.006689
 1816 Fit       0.001308
 1817 Fit       0.008553
 1818 Fit       0.006282
 1819 Fit       0.001939
 1820 Fit       0.006122
 1821 Fit       0.005828
 1822 Fit       0.004450
 1823 Fit       0.006480
 1824 Fit       0.005368
 1825 Fit       0.003224
 1826 Fit       0.005583
 1827 Fit       0.011608
 1828 Fit       0.009884
 1829 Fit       0.010081
 1830 Fit       0.011944
 1831 Fit       0.013065
 1832 Fit       0.012347
 1833 Fit       0.012637
 1834 Fit       0.011313
 1835 Fit       0.009791
 1836 Fit       0.008344
 1837 Fit       0.006822
 1838 Fit       0.010501
 1839 Fit       0.007231
 1840 Fit       0.005371
 1841 Fit       0.002032
 1842 Fit       0.004600
 1843 Fit       0.004184
 1844 Fit       0.001282
 1845 Fit       0.002950
 1846 Fit       0.003229
 1847 Fit       0.004740
 1848 Fit       0.004290
 1849 Fit       0.002862
 1850 Fit       0.005716
 1851 Fit       0.007090
 1852 Fit       0.005861
 1853 Fit       0.007622
 1854 Fit       0.007701
 1855 Fit       0.007254
 1856 Fit       0.007211
 1857 Fit       0.002350
 1858 Fit       0.005446
 1859 Fit      -0.000681
 1860 Fit      -0.003536
 1861 Fit      -0.001543
 1862 Fit      -0.005872
 1863 Fit      -0.007387
 1864 Fit      -0.005357
 1865 Fit      -0.000839
 1866 Fit       0.003398
 1867 Fit       0.001453
 1868 Fit      -0.000799
 1869 Fit      -0.008306
 1870 Fit      -0.008239
 1871 Fit      -0.004679
 1872 Fit      -0.001343
 1873 Fit      -0.003277
 1874 Fit      -0.000835
 1875 Fit       0.003252
 1876 Fit       0.004883
 1877 Fit       0.003133
 1878 Fit      -0.000708
 1879 Fit      -0.005238
 1880 Fit      -0.008005
 1881 Fit      -0.006244
 1882 Fit      -0.000875
 1883 Fit      -0.001863
 1884 Fit      -0.005779
 1885 Fit      -0.005371
 1886 Fit      -0.003382
 1887 Fit      -0.002718
 1888 Fit      -0.004238
 1889 Fit      -0.006723
 1890 Fit      -0.006027
 1891 Fit      -0.002684
 1892 Fit       0.003755
 1893 Fit      -0.004064
 1894 Fit      -0.006482
 1895 Fit      -0.006197
 1896 Fit      -0.005905
 1897 Fit      -0.006423
 1898 Fit      -0.003681
 1899 Fit       0.001181
 1900 Fit       0.003467
 1901 Fit      -0.000515
 1902 Fit      -0.004762
 1903 Fit      -0.005310
 1904 Fit      -0.001873
 1905 Fit       0.005970
 1906 Fit       0.011056
 1907 Fit      -0.000080
 1908 Fit       0.001812
 1909 Fit       0.002505
 1910 Fit       0.005824
 1911 Fit       0.007503
 1912 Fit       0.007784
 1913 Fit       0.003257
 1914 Fit       0.004323
 1915 Fit       0.007034
 1916 Fit       0.010263
 1917 Fit       0.008649
 1918 Fit       0.003320
 1919 Fit       0.011834
 1920 Fit       0.006585
 1921 Fit       0.009099
 1922 Fit       0.006375
 1923 Fit       0.009299
 1924 Fit       0.010523
 1925 Fit       0.006174
 1926 Fit       0.003994
 1927 Fit       0.009416
 1928 Fit       0.004549
 1929 Fit       0.005919
 1930 Fit       0.006058
 1931 Fit       0.007687
 1932 Fit       0.004108
 1933 Fit       0.009937
 1934 Fit       0.015626
 1935 Fit       0.005798
 1936 Fit       0.008169
 1937 Fit      -0.004185
 1938 Fit      -0.002882
 1939 Fit      -0.007603
 1940 Fit      -0.007925
 1941 Fit      -0.005931
 1942 Fit      -0.001366
 1943 Fit       0.001743
 1944 Fit      -0.002201
 1945 Fit      -0.007724
 1946 Fit      -0.010146
 1947 Fit      -0.009883
 1948 Fit      -0.008898
 1949 Fit      -0.008444
 1950 Fit      -0.007713
 1951 Fit      -0.004867
 1952 Fit       0.000314
 1953 Fit      -0.001630
 1954 Fit      -0.006948
 1955 Fit      -0.009944
 1956 Fit      -0.009928
 1957 Fit      -0.008193
 1958 Fit      -0.006732
 1959 Fit      -0.006621
 1960 Fit      -0.007793
 1961 Fit      -0.008727
 1962 Fit      -0.007275
 1963 Fit      -0.002321
 1964 Fit      -0.003925
 1965 Fit      -0.007093
 1966 Fit      -0.007010
 1967 Fit      -0.004262
 1968 Fit      -0.001584
 1969 Fit      -0.000653
 1970 Fit      -0.001138
 1971 Fit      -0.003490
 1972 Fit      -0.006745
 1973 Fit      -0.008452
 1974 Fit      -0.006539
 1975 Fit       0.001744
 1976 Fit      -0.001629
 1977 Fit      -0.001313
 1978 Fit      -0.002378
 1979 Fit      -0.005935
 1980 Fit      -0.005557
 1981 Fit      -0.001126
 1982 Fit      -0.001422
 1983 Fit       0.004349
 1984 Fit       0.000603
 1985 Fit       0.001192
 1986 Fit       0.003069
 1987 Fit       0.002076
 1988 Fit       0.001642
 1989 Fit       0.003304
 1990 Fit       0.002963
 1991 Fit       0.001163
 1992 Fit       0.000658
 1993 Fit       0.000979
 1994 Fit       0.003832
 1995 Fit      -0.003185
 1996 Fit       0.002015
 1997 Fit       0.002147
 1998 Fit       0.005216
 1999 Fit       0.005728
 2000 Fit       0.009509
 2001 Fit       0.009679
 2002 Fit       0.007065
 2003 Fit       0.006220
 2004 Fit       0.003311
 2005 Fit       0.005303
 2006 Fit       0.002391
 2007 Fit       0.001602
 2008 Fit      -0.000840
 2009 Fit       0.001928
 2010 Fit      -0.000100
 2011 Fit       0.001262
 2012 Fit       0.001789
 2013 Fit      -0.002237
 2014 Fit       0.002304
 2015 Fit       0.002228
 2016 Fit       0.004503
 2017 Fit       0.010557
 2018 Fit       0.010610
 2019 Fit       0.014313
 2020 Fit       0.016922
 2021 Fit      -0.007062
 2022 Fit      -0.010019
 2023 Fit      -0.003904
 2024 Fit       0.000158
 2025 Fit      -0.004168
 2026 Fit      -0.009283
 2027 Fit      -0.011123
 2028 Fit      -0.011508
 2029 Fit      -0.008159
 2030 Fit       0.003681
 2031 Fit      -0.001987
 2032 Fit      -0.007761
 2033 Fit      -0.011329
 2034 Fit      -0.012234
 2035 Fit      -0.012035
 2036 Fit      -0.012044
 2037 Fit      -0.010053
 2038 Fit      -0.008403
 2039 Fit      -0.007168
 2040 Fit      -0.011814
 2041 Fit      -0.013208
 2042 Fit      -0.012141
 2043 Fit      -0.010411
 2044 Fit      -0.009602
 2045 Fit      -0.009908
 2046 Fit      -0.004769
 2047 Fit      -0.001159
 2048 Fit      -0.002856
 2049 Fit      -0.009764
 2050 Fit      -0.013337
 2051 Fit      -0.013522
 2052 Fit      -0.011142
 2053 Fit      -0.007789
 2054 Fit      -0.005214
 2055 Fit      -0.004413
 2056 Fit      -0.004814
 2057 Fit      -0.002455
 2058 Fit      -0.008872
 2059 Fit      -0.012352
 2060 Fit      -0.012604
 2061 Fit      -0.010018
 2062 Fit      -0.005650
 2063 Fit      -0.001002
 2064 Fit       0.002168
 2065 Fit       0.002824
 2066 Fit      -0.001687
 2067 Fit      -0.007144
 2068 Fit      -0.009456
 2069 Fit      -0.008086
 2070 Fit      -0.003503
 2071 Fit       0.005249
 2072 Fit      -0.000571
 2073 Fit      -0.003259
 2074 Fit      -0.002008
 2075 Fit       0.005083
 2076 Fit       0.008317
 2077 Fit       0.009794
 2078 Fit       0.010729
 2079 Fit       0.002478
 2080 Fit       0.003520
 2081 Fit       0.001919
 2082 Fit       0.005064
 2083 Fit       0.006550
 2084 Fit       0.007068
 2085 Fit       0.001966
 2086 Fit       0.004934
 2087 Fit       0.007073
 2088 Fit       0.008303
 2089 Fit       0.008893
 2090 Fit       0.007224
 2091 Fit       0.008719
 2092 Fit       0.009887
 2093 Fit       0.009873
 2094 Fit       0.009058
 2095 Fit       0.004918
 2096 Fit       0.003387
 2097 Fit       0.015039
 2098 Fit       0.012116
 2099 Fit       0.009106
 2100 Fit       0.007407
 2101 Fit       0.007477
 2102 Fit       0.012048
 2103 Fit       0.010717
 2104 Fit       0.009381
 2105 Fit       0.010057
 2106 Fit       0.010803
 2107 Fit       0.005802
 2108 Fit       0.008161
 2109 Fit       0.006523
 2110 Fit       0.005328
 2111 Fit       0.005097
 2112 Fit       0.005435
 2113 Fit       0.007244
 2114 Fit       0.007456
 2115 Fit       0.005970
 2116 Fit       0.005739
 2117 Fit       0.006503
 2118 Fit       0.010061
 2119 Fit       0.012850
 2120 Fit       0.010508
 2121 Fit       0.006346
 2122 Fit       0.005865
 2123 Fit       0.010597
 2124 Fit       0.008506
 2125 Fit       0.007165
 2126 Fit       0.007447
 2127 Fit       0.006768
 2128 Fit       0.006479
 2129 Fit       0.010444
 2130 Fit       0.009378
 2131 Fit       0.008320
 2132 Fit       0.008228
 2133 Fit       0.007545
 2134 Fit       0.008074
 2135 Fit       0.009674
 2136 Fit       0.009879
 2137 Fit       0.009167
 2138 Fit       0.008739
 2139 Fit       0.009486
 2140 Fit       0.007967
 2141 Fit       0.011644
 2142 Fit       0.007530
 2143 Fit       0.009462
 2144 Fit       0.016757
 2145 Fit       0.008834
 2146 Fit      -0.000588
 2147 Fit      -0.000158
 2148 Fit       0.003448
 2149 Fit       0.003938
 2150 Fit       0.004774
 2151 Fit       0.000459
 2152 Fit       0.002413
 2153 Fit       0.004882
 2154 Fit       0.005065
 2155 Fit       0.005598
 2156 Fit       0.004982
 2157 Fit       0.004721
 2158 Fit       0.005176
 2159 Fit       0.005190
 2160 Fit       0.005467
 Job cpu time:       0 days  0 hours  4 minutes 41.2 seconds.
 Normal termination of Gaussian 16 at Sat Jul  8 20:36:01 2023.
