 Copyright (c) 1988-2019, Gaussian, Inc.  All Rights Reserved.
  
 This is part of the Gaussian(R) 16 program.  It is based on
 the Gaussian(R) 09 system (copyright 2009, Gaussian, Inc.),
 the Gaussian(R) 03 system (copyright 2003, Gaussian, Inc.),
 the Gaussian(R) 98 system (copyright 1998, Gaussian, Inc.),
 the Gaussian(R) 94 system (copyright 1995, Gaussian, Inc.),
 the Gaussian 92(TM) system (copyright 1992, Gaussian, Inc.),
 the Gaussian 90(TM) system (copyright 1990, Gaussian, Inc.),
 the Gaussian 88(TM) system (copyright 1988, Gaussian, Inc.),
 the Gaussian 86(TM) system (copyright 1986, Carnegie Mellon
 University), and the Gaussian 82(TM) system (copyright 1983,
 Carnegie Mellon University). Gaussian is a federally registered
 trademark of Gaussian, Inc.
 Cite this work as:
 Gaussian 16, Revision C.01,
 M. J. Frisch, G. W. Trucks, H. B. Schlegel, G. E. Scuseria, 
 M. A. Robb, J. R. Cheeseman, G. Scalmani, V. Barone, 
 G. A. Petersson, H. Nakatsuji, X. Li, M. Caricato, A. V. Marenich, 
 J. Bloino, B. G. Janesko, R. Gomperts, B. Mennucci, H. P. Hratchian, 
 J. V. Ortiz, A. F. Izmaylov, J. L. Sonnenberg, D. Williams-Young, 
 F. Ding, F. Lipparini, F. Egidi, J. Goings, B. Peng, A. Petrone, 
 T. Henderson, D. Ranasinghe, V. G. Zakrzewski, J. Gao, N. Rega, 
 G. Zheng, W. Liang, M. Hada, M. Ehara, K. Toyota, R. Fukuda, 
 J. Hasegawa, M. Ishida, T. Nakajima, Y. Honda, O. Kitao, H. Nakai, 
 T. Vreven, K. Throssell, J. A. Montgomery, Jr., J. E. Peralta, 
 F. Ogliaro, M. J. Bearpark, J. J. Heyd, E. N. Brothers, K. N. Kudin, 
 V. N. Staroverov, T. A. Keith, R. Kobayashi, J. Normand, 
 K. Raghavachari, A. P. Rendell, J. C. Burant, S. S. Iyengar, 
 J. Tomasi, M. Cossi, J. M. Millam, M. Klene, C. Adamo, R. Cammi, 
 J. W. Ochterski, R. L. Martin, K. Morokuma, O. Farkas, 
 J. B. Foresman, and D. J. Fox, Gaussian, Inc., Wallingford CT, 2019.
 
 ******************************************
 Gaussian 16:  EM64L-G16RevC.01  3-Jul-2019
                 8-Jul-2023 
 ******************************************
 ----------------------------------------------------------------------
 #P HF/6-31G(d) SCF(Conver=8,XQC,MaxConventionalCycles=64,MaxCycle=128)
  NoSymm Test Pop=mk IOp(6/33=2) GFInput GFPrint
 ----------------------------------------------------------------------
 1/38=1,172=1/1;
 2/12=2,15=1,17=6,18=5,40=1/2;
 3/5=1,6=6,7=1,11=9,24=110,25=1,30=1/1,2,3;
 4//1;
 5/5=2,6=8,7=128,8=3,13=1,38=5,85=64/2,8;
 6/7=2,8=2,9=2,10=2,15=8,20=1,28=1,33=2/1,2;
 99/5=1,9=1/99;
 -------------------------------------------------
 MEP step - Input generated by PyRED DVE-DMDS-OPLS
 -------------------------------------------------
 Symbolic Z-matrix:
 Charge =  0 Multiplicity = 1
 C                    -6.64113   2.21765  -6.67192 
 H                    -6.91018   1.42898  -7.36772 
 H                    -7.33592   2.19625  -5.83992 
 H                    -6.7425    3.17255  -7.17488 
 C                    -5.2196    2.02999  -6.18015 
 H                    -5.1176    1.06696  -5.68355 
 H                    -4.52355   2.03807  -7.01718 
 O                    -4.91654   3.07758  -5.30137 
 C                    -3.64089   3.05153  -4.73129 
 H                    -3.3378    4.0766   -4.56121 
 H                    -2.91628   2.5983   -5.40251 
 C                    -3.64608   2.3097   -3.40465 
 H                    -4.34274   2.79114  -2.72213 
 H                    -3.97358   1.28008  -3.53856 
 O                    -2.3461    2.34523  -2.89649 
 C                    -2.17991   1.73171  -1.6552 
 H                    -2.44001   0.67532  -1.71094 
 H                    -2.82037   2.18907  -0.90451 
 C                    -0.72571   1.898    -1.2504 
 H                    -0.49362   2.95175  -1.16832 
 H                    -0.08304   1.47616  -2.01724 
 O                    -0.49548   1.30936   0. 
 C                     0.        0.        0. 
 H                    -0.3714   -0.56363  -0.85048 
 H                    -0.37588  -0.47623   0.89627 
 C                     1.52583   0.        0. 
 H                     1.89159   0.60075   0.82258 
 H                     1.90092   0.44839  -0.91194 
 S                     2.24547  -1.66837   0.06263 
 C                     2.1732   -2.06238   1.84003 
 H                     1.209    -1.78329   2.24279 
 H                     2.23758  -3.14156   1.89079 
 C                     3.2974   -1.41866   2.649 
 H                     3.23201  -0.3396    2.59705 
 H                     4.26184  -1.69571   2.24512 
 S                     3.22685  -1.80867   4.42657 
 C                     3.92072  -3.49166   4.49716 
 H                     3.48779  -4.10196   3.71564 
 H                     3.5793   -3.90174   5.43762 
 C                     5.44634  -3.52549   4.4203 
 H                     5.7847   -3.09612   3.48672 
 H                     5.88064  -2.93451   5.21633 
 S                     6.13646  -5.2134    4.48727 
 C                     6.68207  -5.36255   6.21767 
 H                     7.25279  -6.28357   6.23406 
 H                     7.37539  -4.55787   6.43259 
 C                     5.57438  -5.41637   7.26466 
 H                     5.02308  -4.48376   7.31342 
 H                     4.87343  -6.21487   7.05043 
 H                     6.00352  -5.59244   8.247 
 
 ITRead=  0  0  0  0  0  0  0  0  0  0  0  0  0  0  0  0  0  0  0  0
 ITRead=  0  0  0  0  0  0  0  0  0  0  0  0  0  0  0  0  0  0  0  0
 ITRead=  0  0  0  0  0  0  0  0  0  0
 MicOpt= -1 -1 -1 -1 -1 -1 -1 -1 -1 -1 -1 -1 -1 -1 -1 -1 -1 -1 -1 -1
 MicOpt= -1 -1 -1 -1 -1 -1 -1 -1 -1 -1 -1 -1 -1 -1 -1 -1 -1 -1 -1 -1
 MicOpt= -1 -1 -1 -1 -1 -1 -1 -1 -1 -1
 NAtoms=     50 NQM=       50 NQMF=       0 NMMI=      0 NMMIF=      0
                NMic=       0 NMicF=      0.
                          Input orientation:                          
 ---------------------------------------------------------------------
 Center     Atomic      Atomic             Coordinates (Angstroms)
 Number     Number       Type             X           Y           Z
 ---------------------------------------------------------------------
      1          6           0       -6.641134    2.217653   -6.671918
      2          1           0       -6.910177    1.428980   -7.367721
      3          1           0       -7.335922    2.196248   -5.839917
      4          1           0       -6.742499    3.172553   -7.174883
      5          6           0       -5.219598    2.029988   -6.180152
      6          1           0       -5.117603    1.066963   -5.683549
      7          1           0       -4.523553    2.038066   -7.017177
      8          8           0       -4.916536    3.077577   -5.301367
      9          6           0       -3.640891    3.051530   -4.731293
     10          1           0       -3.337804    4.076602   -4.561210
     11          1           0       -2.916281    2.598303   -5.402506
     12          6           0       -3.646077    2.309697   -3.404651
     13          1           0       -4.342736    2.791136   -2.722131
     14          1           0       -3.973582    1.280077   -3.538560
     15          8           0       -2.346098    2.345228   -2.896493
     16          6           0       -2.179912    1.731712   -1.655197
     17          1           0       -2.440011    0.675322   -1.710938
     18          1           0       -2.820373    2.189073   -0.904507
     19          6           0       -0.725712    1.898004   -1.250404
     20          1           0       -0.493617    2.951754   -1.168319
     21          1           0       -0.083035    1.476157   -2.017242
     22          8           0       -0.495476    1.309356    0.000000
     23          6           0        0.000000    0.000000    0.000000
     24          1           0       -0.371402   -0.563632   -0.850483
     25          1           0       -0.375880   -0.476232    0.896266
     26          6           0        1.525830    0.000000    0.000000
     27          1           0        1.891586    0.600754    0.822584
     28          1           0        1.900918    0.448385   -0.911938
     29         16           0        2.245474   -1.668367    0.062628
     30          6           0        2.173195   -2.062379    1.840026
     31          1           0        1.209000   -1.783293    2.242789
     32          1           0        2.237583   -3.141559    1.890787
     33          6           0        3.297399   -1.418664    2.648997
     34          1           0        3.232009   -0.339595    2.597051
     35          1           0        4.261836   -1.695709    2.245120
     36         16           0        3.226851   -1.808668    4.426571
     37          6           0        3.920717   -3.491663    4.497155
     38          1           0        3.487787   -4.101962    3.715639
     39          1           0        3.579298   -3.901743    5.437624
     40          6           0        5.446344   -3.525494    4.420300
     41          1           0        5.784697   -3.096123    3.486724
     42          1           0        5.880642   -2.934505    5.216334
     43         16           0        6.136457   -5.213400    4.487271
     44          6           0        6.682069   -5.362550    6.217669
     45          1           0        7.252787   -6.283572    6.234057
     46          1           0        7.375389   -4.557872    6.432590
     47          6           0        5.574378   -5.416372    7.264661
     48          1           0        5.023081   -4.483764    7.313420
     49          1           0        4.873431   -6.214870    7.050430
     50          1           0        6.003517   -5.592442    8.247005
 ---------------------------------------------------------------------
 Stoichiometry    C14H30O3S3
 Framework group  C1[X(C14H30O3S3)]
 Standard basis: 6-31G(d) (6D, 7F)
   372 basis functions,   752 primitive gaussians,   372 cartesian basis functions
    93 alpha electrons       93 beta electrons
 Requested convergence on RMS density matrix=1.00D-08 within  64 cycles.
 Requested convergence on MAX density matrix=1.00D-06.
 Requested convergence on             energy=1.00D-06.
 SCF Done:  E(RHF) =  -1964.69378422     A.U. after   13 cycles
            NFock= 13  Conv=0.59D-08     -V/T= 2.0006
 Mulliken charges:
     1  C   -0.488581
     2  H    0.156896
     3  H    0.172778
     4  H    0.176120
     5  C    0.017562
     6  H    0.135766
     7  H    0.143032
     8  O   -0.631850
     9  C    0.001902
    10  H    0.181579
    11  H    0.152802
    12  C    0.012425
    13  H    0.155285
    14  H    0.140498
    15  O   -0.647474
    16  C    0.018198
    17  H    0.140278
    18  H    0.156398
    19  C   -0.007533
    20  H    0.183945
    21  H    0.154896
    22  O   -0.638597
    23  C    0.017351
    24  H    0.160155
    25  H    0.175281
    26  C   -0.497976
    27  H    0.204507
    28  H    0.203510
    29  S    0.109911
    30  C   -0.475624
    31  H    0.210786
    32  H    0.205196
    33  C   -0.475549
    34  H    0.206350
    35  H    0.209105
    36  S    0.113667
    37  C   -0.472986
    38  H    0.204982
    39  H    0.210952
    40  C   -0.476542
    41  H    0.204398
    42  H    0.206643
    43  S    0.110844
    44  C   -0.470217
    45  H    0.200567
    46  H    0.192073
    47  C   -0.477997
    48  H    0.163655
    49  H    0.179985
    50  H    0.170648
 Sum of Mulliken charges =  -0.00000
 Dipole moment (field-independent basis, Debye):
    X=             -0.0359    Y=             -1.0994    Z=              0.5803  Tot=              1.2437
 Quadrupole moment (field-independent basis, Debye-Ang):
   XX=           -148.6126   YY=           -159.2740   ZZ=           -133.6469
   XY=              8.5008   XZ=             14.1713   YZ=             -5.8394
 Traceless Quadrupole moment (field-independent basis, Debye-Ang):
   XX=             -1.4347   YY=            -12.0962   ZZ=             13.5309
   XY=              8.5008   XZ=             14.1713   YZ=             -5.8394
 Octapole moment (field-independent basis, Debye-Ang**2):
  XXX=           -454.5249  YYY=            411.8917  ZZZ=           -242.6353  XYY=           -136.5840
  XXY=            107.1887  XXZ=            -14.8631  XZZ=            -70.9044  YZZ=             16.9839
  YYZ=            -18.0023  XYZ=            -98.5180
 Hexadecapole moment (field-independent basis, Debye-Ang**3):
 XXXX=         -15486.8477 YYYY=          -8485.0354 ZZZZ=         -14184.7396 XXXY=           5458.7051
 XXXZ=          -6742.9659 YYYX=           5438.9994 YYYZ=           4954.9095 ZZZX=          -6162.8511
 ZZZY=           4343.6681 XXYY=          -4203.9835 XXZZ=          -4241.8460 YYZZ=          -3609.9875
 XXYZ=           1442.3192 YYXZ=          -2305.8443 ZZXY=           1224.3737
 Merz-Kollman atomic radii used.
 Atom Element Radius
    1     6    1.50
    2     1    1.20
    3     1    1.20
    4     1    1.20
    5     6    1.50
    6     1    1.20
    7     1    1.20
    8     8    1.40
    9     6    1.50
   10     1    1.20
   11     1    1.20
   12     6    1.50
   13     1    1.20
   14     1    1.20
   15     8    1.40
   16     6    1.50
   17     1    1.20
   18     1    1.20
   19     6    1.50
   20     1    1.20
   21     1    1.20
   22     8    1.40
   23     6    1.50
   24     1    1.20
   25     1    1.20
   26     6    1.50
   27     1    1.20
   28     1    1.20
   29    16    1.75
   30     6    1.50
   31     1    1.20
   32     1    1.20
   33     6    1.50
   34     1    1.20
   35     1    1.20
   36    16    1.75
   37     6    1.50
   38     1    1.20
   39     1    1.20
   40     6    1.50
   41     1    1.20
   42     1    1.20
   43    16    1.75
   44     6    1.50
   45     1    1.20
   46     1    1.20
   47     6    1.50
   48     1    1.20
   49     1    1.20
   50     1    1.20
 Generate VDW surfaces: Layer= 4 Dens= 1 Start= 1.400 Inc= 0.200
            Electrostatic Properties Using The SCF Density.


       Atomic Center    1 is at  -6.641134  2.217653 -6.671918
       Atomic Center    2 is at  -6.910177  1.428980 -7.367721
       Atomic Center    3 is at  -7.335922  2.196248 -5.839917
       Atomic Center    4 is at  -6.742499  3.172553 -7.174883
       Atomic Center    5 is at  -5.219598  2.029988 -6.180152
       Atomic Center    6 is at  -5.117603  1.066963 -5.683549
       Atomic Center    7 is at  -4.523553  2.038066 -7.017177
       Atomic Center    8 is at  -4.916536  3.077577 -5.301367
       Atomic Center    9 is at  -3.640891  3.051530 -4.731293
       Atomic Center   10 is at  -3.337804  4.076602 -4.561210
       Atomic Center   11 is at  -2.916281  2.598303 -5.402506
       Atomic Center   12 is at  -3.646077  2.309697 -3.404651
       Atomic Center   13 is at  -4.342736  2.791136 -2.722131
       Atomic Center   14 is at  -3.973582  1.280077 -3.538560
       Atomic Center   15 is at  -2.346098  2.345228 -2.896493
       Atomic Center   16 is at  -2.179912  1.731712 -1.655197
       Atomic Center   17 is at  -2.440011  0.675322 -1.710938
       Atomic Center   18 is at  -2.820373  2.189073 -0.904507
       Atomic Center   19 is at  -0.725712  1.898004 -1.250404
       Atomic Center   20 is at  -0.493617  2.951754 -1.168319
       Atomic Center   21 is at  -0.083035  1.476157 -2.017242
       Atomic Center   22 is at  -0.495476  1.309356  0.000000
       Atomic Center   23 is at   0.000000  0.000000  0.000000
       Atomic Center   24 is at  -0.371402 -0.563632 -0.850483
       Atomic Center   25 is at  -0.375880 -0.476232  0.896266
       Atomic Center   26 is at   1.525830  0.000000  0.000000
       Atomic Center   27 is at   1.891586  0.600754  0.822584
       Atomic Center   28 is at   1.900918  0.448385 -0.911938
       Atomic Center   29 is at   2.245474 -1.668367  0.062628
       Atomic Center   30 is at   2.173195 -2.062379  1.840026
       Atomic Center   31 is at   1.209000 -1.783293  2.242789
       Atomic Center   32 is at   2.237583 -3.141559  1.890787
       Atomic Center   33 is at   3.297399 -1.418664  2.648997
       Atomic Center   34 is at   3.232009 -0.339595  2.597051
       Atomic Center   35 is at   4.261836 -1.695709  2.245120
       Atomic Center   36 is at   3.226851 -1.808668  4.426571
       Atomic Center   37 is at   3.920717 -3.491663  4.497155
       Atomic Center   38 is at   3.487787 -4.101962  3.715639
       Atomic Center   39 is at   3.579298 -3.901743  5.437624
       Atomic Center   40 is at   5.446344 -3.525494  4.420300
       Atomic Center   41 is at   5.784697 -3.096123  3.486724
       Atomic Center   42 is at   5.880642 -2.934505  5.216334
       Atomic Center   43 is at   6.136457 -5.213400  4.487271
       Atomic Center   44 is at   6.682069 -5.362550  6.217669
       Atomic Center   45 is at   7.252787 -6.283572  6.234057
       Atomic Center   46 is at   7.375389 -4.557872  6.432590
       Atomic Center   47 is at   5.574378 -5.416372  7.264661
       Atomic Center   48 is at   5.023081 -4.483764  7.313420
       Atomic Center   49 is at   4.873431 -6.214870  7.050430
       Atomic Center   50 is at   6.003517 -5.592442  8.247005
      ESP Fit Center   51 is at  -6.899955  4.017795 -5.621918
      ESP Fit Center   52 is at  -6.899955  0.417511 -5.621918
      ESP Fit Center   53 is at  -8.386119  2.730027 -7.721918
      ESP Fit Center   54 is at  -5.591134  2.217653 -8.490571
      ESP Fit Center   55 is at  -8.411594  0.882509 -6.848572
      ESP Fit Center   56 is at  -7.709064  0.045266 -6.848572
      ESP Fit Center   57 is at  -6.632726 -0.144521 -6.848572
      ESP Fit Center   58 is at  -8.411594  1.975451 -7.886870
      ESP Fit Center   59 is at  -8.411594  0.882509 -7.886870
      ESP Fit Center   60 is at  -7.709064  0.045266 -7.886870
      ESP Fit Center   61 is at  -6.632726 -0.144521 -7.886870
      ESP Fit Center   62 is at  -5.686210  0.401950 -7.886870
      ESP Fit Center   63 is at  -5.922698  1.428980 -8.726870
      ESP Fit Center   64 is at  -7.709064  2.009406 -8.726870
      ESP Fit Center   65 is at  -7.709064  0.848554 -8.726870
      ESP Fit Center   66 is at  -6.605029  0.489831 -8.726870
      ESP Fit Center   67 is at  -6.910177  1.428980 -9.047721
      ESP Fit Center   68 is at  -7.335922  2.196248 -4.159917
      ESP Fit Center   69 is at  -7.030774  3.135397 -4.480768
      ESP Fit Center   70 is at  -8.134809  2.776674 -4.480768
      ESP Fit Center   71 is at  -8.134809  1.615822 -4.480768
      ESP Fit Center   72 is at  -7.030774  1.257099 -4.480768
      ESP Fit Center   73 is at  -8.134809  3.579962 -5.320768
      ESP Fit Center   74 is at  -8.837339  2.742719 -5.320768
      ESP Fit Center   75 is at  -8.837339  1.649777 -5.320768
      ESP Fit Center   76 is at  -8.134809  0.812534 -5.320768
      ESP Fit Center   77 is at  -7.058471  0.622747 -5.320768
      ESP Fit Center   78 is at  -8.837339  2.742719 -6.359066
      ESP Fit Center   79 is at  -8.837339  1.649777 -6.359066
      ESP Fit Center   80 is at  -6.465048  4.746054 -6.655734
      ESP Fit Center   81 is at  -7.541386  4.556267 -6.655734
      ESP Fit Center   82 is at  -8.243916  3.719024 -6.655734
      ESP Fit Center   83 is at  -5.518532  4.199583 -7.694032
      ESP Fit Center   84 is at  -6.465048  4.746054 -7.694032
      ESP Fit Center   85 is at  -7.541386  4.556267 -7.694032
      ESP Fit Center   86 is at  -8.243916  3.719024 -7.694032
      ESP Fit Center   87 is at  -5.755020  3.172553 -8.534032
      ESP Fit Center   88 is at  -6.437351  4.111702 -8.534032
      ESP Fit Center   89 is at  -7.541386  3.752979 -8.534032
      ESP Fit Center   90 is at  -7.541386  2.592127 -8.534032
      ESP Fit Center   91 is at  -6.742499  3.172553 -8.854883
      ESP Fit Center   92 is at  -3.360140  1.054069 -6.180152
      ESP Fit Center   93 is at  -5.478419  0.229846 -7.230152
      ESP Fit Center   94 is at  -5.916490  0.486537 -4.324400
      ESP Fit Center   95 is at  -6.619020  0.520492 -5.164400
      ESP Fit Center   96 is at  -5.916490 -0.316751 -5.164400
      ESP Fit Center   97 is at  -4.840152 -0.506538 -5.164400
      ESP Fit Center   98 is at  -3.893636  0.039933 -5.164400
      ESP Fit Center   99 is at  -5.916490 -0.316751 -6.202698
      ESP Fit Center  100 is at  -4.840152 -0.506538 -6.202698
      ESP Fit Center  101 is at  -3.893636  0.039933 -6.202698
      ESP Fit Center  102 is at  -4.812455  0.127814 -7.042698
      ESP Fit Center  103 is at  -3.299586  1.011036 -6.498028
      ESP Fit Center  104 is at  -2.925778  2.038066 -7.536326
      ESP Fit Center  105 is at  -3.299586  3.065096 -7.536326
      ESP Fit Center  106 is at  -4.246102  3.611567 -7.536326
      ESP Fit Center  107 is at  -4.246102  0.464565 -7.536326
      ESP Fit Center  108 is at  -3.299586  1.011036 -7.536326
      ESP Fit Center  109 is at  -3.536074  2.038066 -8.376326
      ESP Fit Center  110 is at  -4.218405  2.977215 -8.376326
      ESP Fit Center  111 is at  -5.322440  2.618492 -8.376326
      ESP Fit Center  112 is at  -5.322440  1.457640 -8.376326
      ESP Fit Center  113 is at  -4.218405  1.098917 -8.376326
      ESP Fit Center  114 is at  -4.523553  2.038066 -8.697177
      ESP Fit Center  115 is at  -5.406536  3.926282 -3.603957
      ESP Fit Center  116 is at  -5.896536  3.077577 -3.603957
      ESP Fit Center  117 is at  -5.441064  4.691910 -4.321367
      ESP Fit Center  118 is at  -6.289769  4.075289 -4.321367
      ESP Fit Center  119 is at  -6.613946  3.077577 -4.321367
      ESP Fit Center  120 is at  -6.289769  2.079865 -4.321367
      ESP Fit Center  121 is at  -4.916536  5.037577 -5.301367
      ESP Fit Center  122 is at  -5.896536  4.774987 -5.301367
      ESP Fit Center  123 is at  -6.613946  4.057577 -5.301367
      ESP Fit Center  124 is at  -4.392008  4.691910 -6.281367
      ESP Fit Center  125 is at  -5.441064  4.691910 -6.281367
      ESP Fit Center  126 is at  -4.426536  3.926282 -6.998777
      ESP Fit Center  127 is at  -4.831856  4.425976 -3.681293
      ESP Fit Center  128 is at  -2.110942  4.034768 -5.781293
      ESP Fit Center  129 is at  -3.115891  3.960857 -6.549946
      ESP Fit Center  130 is at  -3.032656  5.015751 -3.202061
      ESP Fit Center  131 is at  -4.136691  4.657028 -3.202061
      ESP Fit Center  132 is at  -1.740029  4.076602 -4.042061
      ESP Fit Center  133 is at  -2.113837  5.103632 -4.042061
      ESP Fit Center  134 is at  -3.060353  5.650103 -4.042061
      ESP Fit Center  135 is at  -4.136691  5.460316 -4.042061
      ESP Fit Center  136 is at  -1.740029  4.076602 -5.080359
      ESP Fit Center  137 is at  -2.113837  5.103632 -5.080359
      ESP Fit Center  138 is at  -3.060353  5.650103 -5.080359
      ESP Fit Center  139 is at  -4.136691  5.460316 -5.080359
      ESP Fit Center  140 is at  -3.032656  5.015751 -5.920359
      ESP Fit Center  141 is at  -1.318506  2.598303 -4.883357
      ESP Fit Center  142 is at  -2.638830  1.024802 -4.883357
      ESP Fit Center  143 is at  -1.692314  1.571273 -4.883357
      ESP Fit Center  144 is at  -1.318506  2.598303 -5.921655
      ESP Fit Center  145 is at  -1.692314  3.625333 -5.921655
      ESP Fit Center  146 is at  -2.638830  1.024802 -5.921655
      ESP Fit Center  147 is at  -1.692314  1.571273 -5.921655
      ESP Fit Center  148 is at  -1.928802  2.598303 -6.761655
      ESP Fit Center  149 is at  -2.611133  3.537452 -6.761655
      ESP Fit Center  150 is at  -2.611133  1.659154 -6.761655
      ESP Fit Center  151 is at  -2.916281  2.598303 -7.082506
      ESP Fit Center  152 is at  -5.685055  1.807134 -3.404651
      ESP Fit Center  153 is at  -4.037588  3.730285 -1.362982
      ESP Fit Center  154 is at  -5.141623  3.371562 -1.362982
      ESP Fit Center  155 is at  -5.141623  2.210710 -1.362982
      ESP Fit Center  156 is at  -4.065285  4.364637 -2.202982
      ESP Fit Center  157 is at  -5.141623  4.174850 -2.202982
      ESP Fit Center  158 is at  -5.844153  3.337607 -2.202982
      ESP Fit Center  159 is at  -5.844153  2.244665 -2.202982
      ESP Fit Center  160 is at  -5.141623  1.407422 -2.202982
      ESP Fit Center  161 is at  -5.141623  4.174850 -3.241280
      ESP Fit Center  162 is at  -5.844153  3.337607 -3.241280
      ESP Fit Center  163 is at  -5.844153  2.244665 -3.241280
      ESP Fit Center  164 is at  -4.772469  0.699651 -2.179411
      ESP Fit Center  165 is at  -5.474999  0.733606 -3.019411
      ESP Fit Center  166 is at  -4.772469 -0.103637 -3.019411
      ESP Fit Center  167 is at  -3.696131 -0.293424 -3.019411
      ESP Fit Center  168 is at  -5.474999  0.733606 -4.057709
      ESP Fit Center  169 is at  -4.772469 -0.103637 -4.057709
      ESP Fit Center  170 is at  -3.696131 -0.293424 -4.057709
      ESP Fit Center  171 is at  -2.749615  0.253047 -4.057709
      ESP Fit Center  172 is at  -3.668434  0.340928 -4.897709
      ESP Fit Center  173 is at  -1.821570  3.959561 -1.916493
      ESP Fit Center  174 is at  -2.870626  3.959561 -1.916493
      ESP Fit Center  175 is at  -0.648688  3.325228 -2.896493
      ESP Fit Center  176 is at  -1.366098  4.042638 -2.896493
      ESP Fit Center  177 is at  -2.346098  4.305228 -2.896493
      ESP Fit Center  178 is at  -0.648688  2.345228 -3.876493
      ESP Fit Center  179 is at  -0.972865  3.342940 -3.876493
      ESP Fit Center  180 is at  -1.821570  0.730895 -3.876493
      ESP Fit Center  181 is at  -0.972865  1.347516 -3.876493
      ESP Fit Center  182 is at  -1.366098  2.345228 -4.593903
      ESP Fit Center  183 is at  -1.856098  1.496523 -4.593903
      ESP Fit Center  184 is at  -2.704912  0.822385  0.163456
      ESP Fit Center  185 is at  -1.926785  3.816401 -1.655197
      ESP Fit Center  186 is at  -4.218890  1.229149 -1.655197
      ESP Fit Center  187 is at  -3.238898  0.094896 -0.351789
      ESP Fit Center  188 is at  -2.134863 -0.263827 -0.351789
      ESP Fit Center  189 is at  -3.941428  0.128851 -1.191789
      ESP Fit Center  190 is at  -3.238898 -0.708392 -1.191789
      ESP Fit Center  191 is at  -2.162560 -0.898179 -1.191789
      ESP Fit Center  192 is at  -3.941428  0.128851 -2.230087
      ESP Fit Center  193 is at  -3.238898 -0.708392 -2.230087
      ESP Fit Center  194 is at  -2.162560 -0.898179 -2.230087
      ESP Fit Center  195 is at  -2.134863 -0.263827 -3.070087
      ESP Fit Center  196 is at  -2.820373  2.189073  0.775493
      ESP Fit Center  197 is at  -2.515225  3.128222  0.454642
      ESP Fit Center  198 is at  -3.619260  2.769499  0.454642
      ESP Fit Center  199 is at  -3.619260  1.608647  0.454642
      ESP Fit Center  200 is at  -2.515225  1.249924  0.454642
      ESP Fit Center  201 is at  -2.542922  3.762574 -0.385358
      ESP Fit Center  202 is at  -3.619260  3.572787 -0.385358
      ESP Fit Center  203 is at  -4.321790  2.735544 -0.385358
      ESP Fit Center  204 is at  -4.321790  1.642602 -0.385358
      ESP Fit Center  205 is at  -3.619260  0.805359 -0.385358
      ESP Fit Center  206 is at  -4.321790  1.642602 -1.423656
      ESP Fit Center  207 is at   0.804237  2.881242 -2.300404
      ESP Fit Center  208 is at  -0.200712  2.807331 -3.069057
      ESP Fit Center  209 is at  -0.188469  3.890903  0.190830
      ESP Fit Center  210 is at  -1.292504  3.532180  0.190830
      ESP Fit Center  211 is at   1.104158  2.951754 -0.649170
      ESP Fit Center  212 is at   0.730350  3.978784 -0.649170
      ESP Fit Center  213 is at  -0.216166  4.525255 -0.649170
      ESP Fit Center  214 is at  -1.292504  4.335468 -0.649170
      ESP Fit Center  215 is at   1.104158  2.951754 -1.687468
      ESP Fit Center  216 is at   0.730350  3.978784 -1.687468
      ESP Fit Center  217 is at  -0.216166  4.525255 -1.687468
      ESP Fit Center  218 is at  -1.292504  4.335468 -1.687468
      ESP Fit Center  219 is at  -0.188469  3.890903 -2.527468
      ESP Fit Center  220 is at   1.514740  1.476157 -2.536391
      ESP Fit Center  221 is at   1.140932  2.503187 -2.536391
      ESP Fit Center  222 is at  -0.881922  0.092443 -2.536391
      ESP Fit Center  223 is at   0.194416 -0.097344 -2.536391
      ESP Fit Center  224 is at   1.140932  0.449127 -2.536391
      ESP Fit Center  225 is at   0.904444  1.476157 -3.376391
      ESP Fit Center  226 is at   0.222113  2.415306 -3.376391
      ESP Fit Center  227 is at  -0.881922  0.895731 -3.376391
      ESP Fit Center  228 is at   0.222113  0.537008 -3.376391
      ESP Fit Center  229 is at  -0.083035  1.476157 -3.697242
      ESP Fit Center  230 is at  -0.495476  1.309356  1.960000
      ESP Fit Center  231 is at   0.484524  1.309356  1.697410
      ESP Fit Center  232 is at  -0.005476  2.158061  1.697410
      ESP Fit Center  233 is at  -0.985476  2.158061  1.697410
      ESP Fit Center  234 is at  -1.475476  1.309356  1.697410
      ESP Fit Center  235 is at   0.877757  2.307068  0.980000
      ESP Fit Center  236 is at   0.029052  2.923689  0.980000
      ESP Fit Center  237 is at  -1.020004  2.923689  0.980000
      ESP Fit Center  238 is at  -1.868709  2.307068  0.980000
      ESP Fit Center  239 is at  -2.192886  1.309356  0.980000
      ESP Fit Center  240 is at  -1.868709  0.311644  0.980000
      ESP Fit Center  241 is at   1.201934  2.289356  0.000000
      ESP Fit Center  242 is at  -2.192886  0.329356  0.000000
      ESP Fit Center  243 is at   0.525000  0.909327  1.818653
      ESP Fit Center  244 is at  -2.038978 -0.502563  0.000000
      ESP Fit Center  245 is at  -1.571873 -1.392558  0.000000
      ESP Fit Center  246 is at  -1.872819 -1.110103 -0.331334
      ESP Fit Center  247 is at  -1.170289 -1.947346 -0.331334
      ESP Fit Center  248 is at  -1.872819 -1.110103 -1.369632
      ESP Fit Center  249 is at  -1.170289 -1.947346 -1.369632
      ESP Fit Center  250 is at  -0.093951 -2.137133 -1.369632
      ESP Fit Center  251 is at   0.616077 -0.563632 -2.209632
      ESP Fit Center  252 is at  -1.170289 -1.144058 -2.209632
      ESP Fit Center  253 is at  -0.066254 -1.502781 -2.209632
      ESP Fit Center  254 is at  -0.371402 -0.563632 -2.530483
      ESP Fit Center  255 is at  -0.375880 -0.476232  2.576266
      ESP Fit Center  256 is at  -0.070732  0.462917  2.255415
      ESP Fit Center  257 is at  -1.174767  0.104194  2.255415
      ESP Fit Center  258 is at  -1.174767 -1.056658  2.255415
      ESP Fit Center  259 is at  -1.877297  0.070239  1.415415
      ESP Fit Center  260 is at  -1.877297 -1.022703  1.415415
      ESP Fit Center  261 is at  -1.174767 -1.859946  1.415415
      ESP Fit Center  262 is at  -1.877297 -1.022703  0.377117
      ESP Fit Center  263 is at  -1.174767 -1.859946  0.377117
      ESP Fit Center  264 is at   3.385288  0.975919  0.000000
      ESP Fit Center  265 is at   1.778957  2.084689  0.000000
      ESP Fit Center  266 is at   2.196734  1.539903  2.181733
      ESP Fit Center  267 is at   1.092699  1.181180  2.181733
      ESP Fit Center  268 is at   1.092699  0.020328  2.181733
      ESP Fit Center  269 is at   3.115553  1.627784  1.341733
      ESP Fit Center  270 is at   2.169037  2.174255  1.341733
      ESP Fit Center  271 is at   1.092699  1.984468  1.341733
      ESP Fit Center  272 is at   3.115553  1.627784  0.303435
      ESP Fit Center  273 is at   2.169037  2.174255  0.303435
      ESP Fit Center  274 is at   3.124885  1.475415 -0.392789
      ESP Fit Center  275 is at   2.178369  2.021886 -0.392789
      ESP Fit Center  276 is at   3.498693  0.448385 -1.431087
      ESP Fit Center  277 is at   3.124885  1.475415 -1.431087
      ESP Fit Center  278 is at   2.178369  2.021886 -1.431087
      ESP Fit Center  279 is at   2.888397  0.448385 -2.271087
      ESP Fit Center  280 is at   2.206066  1.387534 -2.271087
      ESP Fit Center  281 is at   1.102031 -0.132041 -2.271087
      ESP Fit Center  282 is at   2.206066 -0.490764 -2.271087
      ESP Fit Center  283 is at   1.900918  0.448385 -2.591938
      ESP Fit Center  284 is at   4.397504 -0.632004  0.607804
      ESP Fit Center  285 is at   3.734725  0.199095  0.607804
      ESP Fit Center  286 is at   0.093444 -2.704730  0.607804
      ESP Fit Center  287 is at   0.756223 -3.535829  0.607804
      ESP Fit Center  288 is at   3.734725 -3.535829  0.607804
      ESP Fit Center  289 is at   4.397504 -2.704730  0.607804
      ESP Fit Center  290 is at   4.634047 -1.668367 -0.482548
      ESP Fit Center  291 is at   4.397504 -0.632004 -0.482548
      ESP Fit Center  292 is at   3.734725  0.199095 -0.482548
      ESP Fit Center  293 is at   0.093444 -2.704730 -0.482548
      ESP Fit Center  294 is at   0.756223 -3.535829 -0.482548
      ESP Fit Center  295 is at   1.713966 -3.997054 -0.482548
      ESP Fit Center  296 is at   2.776982 -3.997054 -0.482548
      ESP Fit Center  297 is at   3.734725 -3.535829 -0.482548
      ESP Fit Center  298 is at   4.397504 -2.704730 -0.482548
      ESP Fit Center  299 is at   4.160961 -1.668367 -1.464922
      ESP Fit Center  300 is at   3.856884 -0.632776 -1.464922
      ESP Fit Center  301 is at   0.407578 -2.208022 -1.464922
      ESP Fit Center  302 is at   0.991097 -3.115996 -1.464922
      ESP Fit Center  303 is at   1.972872 -3.564357 -1.464922
      ESP Fit Center  304 is at   3.041196 -3.410755 -1.464922
      ESP Fit Center  305 is at   3.856884 -2.703958 -1.464922
      ESP Fit Center  306 is at   3.308489 -1.668367 -2.144746
      ESP Fit Center  307 is at   2.776982 -0.747769 -2.144746
      ESP Fit Center  308 is at   1.713966 -0.747769 -2.144746
      ESP Fit Center  309 is at   1.182459 -1.668367 -2.144746
      ESP Fit Center  310 is at   1.713966 -2.588965 -2.144746
      ESP Fit Center  311 is at   2.776982 -2.588965 -2.144746
      ESP Fit Center  312 is at   2.245474 -1.668367 -2.387372
      ESP Fit Center  313 is at   0.410113 -1.202867  3.601938
      ESP Fit Center  314 is at   0.410113 -2.363719  3.601938
      ESP Fit Center  315 is at   1.486451 -0.209792  2.761938
      ESP Fit Center  316 is at   0.410113 -0.399579  2.761938
      ESP Fit Center  317 is at  -0.292417 -1.236822  2.761938
      ESP Fit Center  318 is at  -0.292417 -2.329764  2.761938
      ESP Fit Center  319 is at   0.410113 -3.167007  2.761938
      ESP Fit Center  320 is at  -0.292417 -2.329764  1.723640
      ESP Fit Center  321 is at   1.438696 -3.721985  3.249936
      ESP Fit Center  322 is at   0.736166 -3.688030  2.409936
      ESP Fit Center  323 is at   1.438696 -4.525273  2.409936
      ESP Fit Center  324 is at   2.515034 -4.715060  2.409936
      ESP Fit Center  325 is at   0.736166 -3.688030  1.371638
      ESP Fit Center  326 is at   1.438696 -4.525273  1.371638
      ESP Fit Center  327 is at   2.515034 -4.715060  1.371638
      ESP Fit Center  328 is at   3.461550 -4.168589  1.371638
      ESP Fit Center  329 is at   2.542731 -4.080708  0.531638
      ESP Fit Center  330 is at   3.537157  0.599554  3.956200
      ESP Fit Center  331 is at   4.455976  0.687435  3.116200
      ESP Fit Center  332 is at   3.509460  1.233906  3.116200
      ESP Fit Center  333 is at   2.433122  1.044119  3.116200
      ESP Fit Center  334 is at   1.730592  0.206876  3.116200
      ESP Fit Center  335 is at   4.455976  0.687435  2.077902
      ESP Fit Center  336 is at   3.509460  1.233906  2.077902
      ESP Fit Center  337 is at   3.537157  0.599554  1.237902
      ESP Fit Center  338 is at   5.485803 -0.668679  2.764269
      ESP Fit Center  339 is at   5.859611 -1.695709  1.725971
      ESP Fit Center  340 is at   5.485803 -0.668679  1.725971
      ESP Fit Center  341 is at   4.539287 -3.269210  1.725971
      ESP Fit Center  342 is at   5.485803 -2.722739  1.725971
      ESP Fit Center  343 is at   5.249315 -1.695709  0.885971
      ESP Fit Center  344 is at   4.566984 -0.756560  0.885971
      ESP Fit Center  345 is at   4.566984 -2.634858  0.885971
      ESP Fit Center  346 is at   3.226851 -1.808668  6.876571
      ESP Fit Center  347 is at   4.289866 -1.808668  6.633945
      ESP Fit Center  348 is at   3.758359 -0.888070  6.633945
      ESP Fit Center  349 is at   2.695343 -0.888070  6.633945
      ESP Fit Center  350 is at   2.163836 -1.808668  6.633945
      ESP Fit Center  351 is at   2.695343 -2.729266  6.633945
      ESP Fit Center  352 is at   3.758359 -2.729266  6.633945
      ESP Fit Center  353 is at   4.838261 -0.773077  5.954121
      ESP Fit Center  354 is at   4.022573 -0.066280  5.954121
      ESP Fit Center  355 is at   2.954249  0.087322  5.954121
      ESP Fit Center  356 is at   1.972474 -0.361039  5.954121
      ESP Fit Center  357 is at   1.388955 -1.269013  5.954121
      ESP Fit Center  358 is at   1.388955 -2.348323  5.954121
      ESP Fit Center  359 is at   1.972474 -3.256297  5.954121
      ESP Fit Center  360 is at   5.378881 -0.772305  4.971747
      ESP Fit Center  361 is at   4.716102  0.058794  4.971747
      ESP Fit Center  362 is at   3.758359  0.520019  4.971747
      ESP Fit Center  363 is at   2.695343  0.520019  4.971747
      ESP Fit Center  364 is at   1.737600  0.058794  4.971747
      ESP Fit Center  365 is at   1.074821 -0.772305  4.971747
      ESP Fit Center  366 is at   0.838278 -1.808668  4.971747
      ESP Fit Center  367 is at   1.074821 -2.845031  4.971747
      ESP Fit Center  368 is at   1.737600 -3.676130  4.971747
      ESP Fit Center  369 is at   5.378881 -0.772305  3.881395
      ESP Fit Center  370 is at   4.716102  0.058794  3.881395
      ESP Fit Center  371 is at   1.737600  0.058794  3.881395
      ESP Fit Center  372 is at   1.074821 -0.772305  3.881395
      ESP Fit Center  373 is at   0.838278 -1.808668  3.881395
      ESP Fit Center  374 is at   1.074821 -2.845031  3.881395
      ESP Fit Center  375 is at   1.737600 -3.676130  3.881395
      ESP Fit Center  376 is at   1.881739 -3.994226  4.497155
      ESP Fit Center  377 is at   1.986370 -4.648433  4.234788
      ESP Fit Center  378 is at   2.688900 -5.485676  4.234788
      ESP Fit Center  379 is at   1.986370 -4.648433  3.196490
      ESP Fit Center  380 is at   2.688900 -5.485676  3.196490
      ESP Fit Center  381 is at   3.765238 -5.675463  3.196490
      ESP Fit Center  382 is at   4.475266 -4.101962  2.356490
      ESP Fit Center  383 is at   3.792935 -5.041111  2.356490
      ESP Fit Center  384 is at   3.884446 -2.962594  6.796773
      ESP Fit Center  385 is at   2.780411 -3.321317  6.796773
      ESP Fit Center  386 is at   2.780411 -4.482169  6.796773
      ESP Fit Center  387 is at   2.077881 -3.355272  5.956773
      ESP Fit Center  388 is at   2.077881 -4.448214  5.956773
      ESP Fit Center  389 is at   2.780411 -5.285457  5.956773
      ESP Fit Center  390 is at   2.077881 -4.448214  4.918475
      ESP Fit Center  391 is at   2.780411 -5.285457  4.918475
      ESP Fit Center  392 is at   5.699471 -1.440805  4.420300
      ESP Fit Center  393 is at   7.008664 -2.069093  4.005873
      ESP Fit Center  394 is at   6.062148 -1.522622  4.005873
      ESP Fit Center  395 is at   7.382472 -3.096123  2.967575
      ESP Fit Center  396 is at   7.008664 -2.069093  2.967575
      ESP Fit Center  397 is at   6.062148 -1.522622  2.967575
      ESP Fit Center  398 is at   6.772176 -3.096123  2.127575
      ESP Fit Center  399 is at   6.089845 -2.156974  2.127575
      ESP Fit Center  400 is at   4.985810 -3.676549  2.127575
      ESP Fit Center  401 is at   6.089845 -4.035272  2.127575
      ESP Fit Center  402 is at   5.784697 -3.096123  1.806724
      ESP Fit Center  403 is at   5.880642 -2.934505  6.896334
      ESP Fit Center  404 is at   6.868121 -2.934505  6.575483
      ESP Fit Center  405 is at   6.185790 -1.995356  6.575483
      ESP Fit Center  406 is at   5.081755 -2.354079  6.575483
      ESP Fit Center  407 is at   7.478417 -2.934505  5.735483
      ESP Fit Center  408 is at   7.104609 -1.907475  5.735483
      ESP Fit Center  409 is at   6.158093 -1.361004  5.735483
      ESP Fit Center  410 is at   7.478417 -2.934505  4.697185
      ESP Fit Center  411 is at   7.104609 -1.907475  4.697185
      ESP Fit Center  412 is at   6.158093 -1.361004  4.697185
      ESP Fit Center  413 is at   8.525030 -5.213400  5.032447
      ESP Fit Center  414 is at   8.288487 -4.177037  5.032447
      ESP Fit Center  415 is at   7.625708 -3.345938  5.032447
      ESP Fit Center  416 is at   3.984427 -6.249763  5.032447
      ESP Fit Center  417 is at   4.647206 -7.080862  5.032447
      ESP Fit Center  418 is at   5.604949 -7.542087  5.032447
      ESP Fit Center  419 is at   6.667965 -7.542087  5.032447
      ESP Fit Center  420 is at   8.525030 -5.213400  3.942095
      ESP Fit Center  421 is at   8.288487 -4.177037  3.942095
      ESP Fit Center  422 is at   7.625708 -3.345938  3.942095
      ESP Fit Center  423 is at   3.984427 -6.249763  3.942095
      ESP Fit Center  424 is at   4.647206 -7.080862  3.942095
      ESP Fit Center  425 is at   5.604949 -7.542087  3.942095
      ESP Fit Center  426 is at   6.667965 -7.542087  3.942095
      ESP Fit Center  427 is at   7.625708 -7.080862  3.942095
      ESP Fit Center  428 is at   8.288487 -6.249763  3.942095
      ESP Fit Center  429 is at   8.051944 -5.213400  2.959721
      ESP Fit Center  430 is at   7.747867 -4.177809  2.959721
      ESP Fit Center  431 is at   4.298561 -5.753055  2.959721
      ESP Fit Center  432 is at   4.882080 -6.661029  2.959721
      ESP Fit Center  433 is at   5.863855 -7.109390  2.959721
      ESP Fit Center  434 is at   6.932179 -6.955788  2.959721
      ESP Fit Center  435 is at   7.747867 -6.248991  2.959721
      ESP Fit Center  436 is at   7.199472 -5.213400  2.279897
      ESP Fit Center  437 is at   6.667965 -4.292802  2.279897
      ESP Fit Center  438 is at   5.604949 -4.292802  2.279897
      ESP Fit Center  439 is at   5.073442 -5.213400  2.279897
      ESP Fit Center  440 is at   5.604949 -6.133998  2.279897
      ESP Fit Center  441 is at   6.667965 -6.133998  2.279897
      ESP Fit Center  442 is at   6.136457 -5.213400  2.037271
      ESP Fit Center  443 is at   7.732069 -5.362550  8.036322
      ESP Fit Center  444 is at   8.500722 -5.362550  5.167669
      ESP Fit Center  445 is at   8.240266 -6.283572  7.593206
      ESP Fit Center  446 is at   7.557935 -7.222721  7.593206
      ESP Fit Center  447 is at   8.850562 -6.283572  6.753206
      ESP Fit Center  448 is at   6.453900 -7.667286  6.753206
      ESP Fit Center  449 is at   7.530238 -7.857073  6.753206
      ESP Fit Center  450 is at   8.476754 -7.310602  6.753206
      ESP Fit Center  451 is at   8.850562 -6.283572  5.714908
      ESP Fit Center  452 is at   6.453900 -7.667286  5.714908
      ESP Fit Center  453 is at   7.530238 -7.857073  5.714908
      ESP Fit Center  454 is at   8.476754 -7.310602  5.714908
      ESP Fit Center  455 is at   7.557935 -7.222721  4.874908
      ESP Fit Center  456 is at   7.375389 -4.557872  8.112590
      ESP Fit Center  457 is at   8.362868 -4.557872  7.791739
      ESP Fit Center  458 is at   7.680537 -3.618723  7.791739
      ESP Fit Center  459 is at   8.973164 -4.557872  6.951739
      ESP Fit Center  460 is at   8.599356 -3.530842  6.951739
      ESP Fit Center  461 is at   7.652840 -2.984371  6.951739
      ESP Fit Center  462 is at   6.576502 -3.174158  6.951739
      ESP Fit Center  463 is at   8.973164 -4.557872  5.913441
      ESP Fit Center  464 is at   8.599356 -3.530842  5.913441
      ESP Fit Center  465 is at   7.652840 -2.984371  5.913441
      ESP Fit Center  466 is at   4.524378 -5.416372  9.083314
      ESP Fit Center  467 is at   6.329874 -3.762067  8.314661
      ESP Fit Center  468 is at   5.328229 -3.544615  8.672569
      ESP Fit Center  469 is at   4.224194 -3.903338  8.672569
      ESP Fit Center  470 is at   6.247048 -3.456734  7.832569
      ESP Fit Center  471 is at   5.300532 -2.910263  7.832569
      ESP Fit Center  472 is at   4.224194 -3.100050  7.832569
      ESP Fit Center  473 is at   3.521664 -3.937293  7.832569
      ESP Fit Center  474 is at   3.521664 -5.030235  7.832569
      ESP Fit Center  475 is at   5.300532 -2.910263  6.794271
      ESP Fit Center  476 is at   4.224194 -3.100050  6.794271
      ESP Fit Center  477 is at   3.521664 -5.030235  6.794271
      ESP Fit Center  478 is at   4.074544 -6.795296  8.409579
      ESP Fit Center  479 is at   5.178579 -7.154019  8.409579
      ESP Fit Center  480 is at   3.372014 -5.668399  7.569579
      ESP Fit Center  481 is at   3.372014 -6.761341  7.569579
      ESP Fit Center  482 is at   4.074544 -7.598584  7.569579
      ESP Fit Center  483 is at   5.150882 -7.788371  7.569579
      ESP Fit Center  484 is at   3.372014 -5.668399  6.531281
      ESP Fit Center  485 is at   3.372014 -6.761341  6.531281
      ESP Fit Center  486 is at   4.074544 -7.598584  6.531281
      ESP Fit Center  487 is at   5.150882 -7.788371  6.531281
      ESP Fit Center  488 is at   4.074544 -6.795296  5.691281
      ESP Fit Center  489 is at   5.178579 -7.154019  5.691281
      ESP Fit Center  490 is at   6.003517 -5.592442  9.927005
      ESP Fit Center  491 is at   6.990996 -5.592442  9.606154
      ESP Fit Center  492 is at   6.308665 -4.653293  9.606154
      ESP Fit Center  493 is at   5.204630 -5.012016  9.606154
      ESP Fit Center  494 is at   5.204630 -6.172868  9.606154
      ESP Fit Center  495 is at   6.308665 -6.531591  9.606154
      ESP Fit Center  496 is at   7.601292 -5.592442  8.766154
      ESP Fit Center  497 is at   7.227484 -4.565412  8.766154
      ESP Fit Center  498 is at   6.280968 -4.018941  8.766154
      ESP Fit Center  499 is at   5.204630 -6.976156  8.766154
      ESP Fit Center  500 is at   6.280968 -7.165943  8.766154
      ESP Fit Center  501 is at   7.227484 -6.619472  8.766154
      ESP Fit Center  502 is at  -6.908173  0.360356 -5.175542
      ESP Fit Center  503 is at  -8.099992  0.388303 -6.137868
      ESP Fit Center  504 is at  -7.161794 -0.063510 -6.137868
      ESP Fit Center  505 is at  -8.749245  3.232866 -7.205968
      ESP Fit Center  506 is at  -8.980961  2.217653 -7.205968
      ESP Fit Center  507 is at  -8.441522  2.746295 -8.168294
      ESP Fit Center  508 is at  -5.599813  2.217653 -8.834243
      ESP Fit Center  509 is at  -8.255385  0.451629 -6.407721
      ESP Fit Center  510 is at  -7.424001 -0.152407 -6.407721
      ESP Fit Center  511 is at  -8.830177  1.428980 -7.367721
      ESP Fit Center  512 is at  -8.572946  0.468980 -7.367721
      ESP Fit Center  513 is at  -7.870177 -0.233789 -7.367721
      ESP Fit Center  514 is at  -6.910177 -0.491020 -7.367721
      ESP Fit Center  515 is at  -5.950177 -0.233789 -7.367721
      ESP Fit Center  516 is at  -8.572946  1.428980 -8.327721
      ESP Fit Center  517 is at  -8.255385  0.451629 -8.327721
      ESP Fit Center  518 is at  -7.424001 -0.152407 -8.327721
      ESP Fit Center  519 is at  -6.396353 -0.152407 -8.327721
      ESP Fit Center  520 is at  -5.564969  0.451629 -8.327721
      ESP Fit Center  521 is at  -5.950177  1.428980 -9.030490
      ESP Fit Center  522 is at  -7.390177  2.260364 -9.030490
      ESP Fit Center  523 is at  -7.870177  1.428980 -9.030490
      ESP Fit Center  524 is at  -7.390177  0.597596 -9.030490
      ESP Fit Center  525 is at  -6.430177  0.597596 -9.030490
      ESP Fit Center  526 is at  -6.910177  1.428980 -9.287721
      ESP Fit Center  527 is at  -7.335922  2.196248 -3.919917
      ESP Fit Center  528 is at  -6.855922  3.027632 -4.177148
      ESP Fit Center  529 is at  -7.815922  3.027632 -4.177148
      ESP Fit Center  530 is at  -8.295922  2.196248 -4.177148
      ESP Fit Center  531 is at  -7.815922  1.364864 -4.177148
      ESP Fit Center  532 is at  -6.855922  1.364864 -4.177148
      ESP Fit Center  533 is at  -7.849746  3.777635 -4.879917
      ESP Fit Center  534 is at  -8.681130  3.173599 -4.879917
      ESP Fit Center  535 is at  -8.998691  2.196248 -4.879917
      ESP Fit Center  536 is at  -8.681130  1.218897 -4.879917
      ESP Fit Center  537 is at  -7.849746  0.614861 -4.879917
      ESP Fit Center  538 is at  -6.822098  0.614861 -4.879917
      ESP Fit Center  539 is at  -8.295922  3.859017 -5.839917
      ESP Fit Center  540 is at  -8.998691  3.156248 -5.839917
      ESP Fit Center  541 is at  -9.255922  2.196248 -5.839917
      ESP Fit Center  542 is at  -8.998691  1.236248 -5.839917
      ESP Fit Center  543 is at  -8.295922  0.533479 -5.839917
      ESP Fit Center  544 is at  -6.228675  4.753940 -6.214883
      ESP Fit Center  545 is at  -7.256323  4.753940 -6.214883
      ESP Fit Center  546 is at  -8.087707  4.149904 -6.214883
      ESP Fit Center  547 is at  -5.782499  4.835322 -7.174883
      ESP Fit Center  548 is at  -6.742499  5.092553 -7.174883
      ESP Fit Center  549 is at  -7.702499  4.835322 -7.174883
      ESP Fit Center  550 is at  -8.405268  4.132553 -7.174883
      ESP Fit Center  551 is at  -5.397291  4.149904 -8.134883
      ESP Fit Center  552 is at  -6.228675  4.753940 -8.134883
      ESP Fit Center  553 is at  -7.256323  4.753940 -8.134883
      ESP Fit Center  554 is at  -8.087707  4.149904 -8.134883
      ESP Fit Center  555 is at  -8.405268  3.172553 -8.134883
      ESP Fit Center  556 is at  -5.782499  3.172553 -8.837652
      ESP Fit Center  557 is at  -6.262499  4.003937 -8.837652
      ESP Fit Center  558 is at  -7.222499  4.003937 -8.837652
      ESP Fit Center  559 is at  -7.702499  3.172553 -8.837652
      ESP Fit Center  560 is at  -6.742499  3.172553 -9.094883
      ESP Fit Center  561 is at  -5.486637  0.172691 -7.676528
      ESP Fit Center  562 is at  -6.077603  1.066963 -4.020780
      ESP Fit Center  563 is at  -5.597603  0.235579 -4.020780
      ESP Fit Center  564 is at  -6.462811  0.089612 -4.723549
      ESP Fit Center  565 is at  -5.631427 -0.514424 -4.723549
      ESP Fit Center  566 is at  -4.603779 -0.514424 -4.723549
      ESP Fit Center  567 is at  -6.077603 -0.595806 -5.683549
      ESP Fit Center  568 is at  -5.117603 -0.853037 -5.683549
      ESP Fit Center  569 is at  -4.157603 -0.595806 -5.683549
      ESP Fit Center  570 is at  -3.454834  0.106963 -5.683549
      ESP Fit Center  571 is at  -5.631427 -0.514424 -6.643549
      ESP Fit Center  572 is at  -4.603779 -0.514424 -6.643549
      ESP Fit Center  573 is at  -3.772395  0.089612 -6.643549
      ESP Fit Center  574 is at  -3.563553  0.375297 -7.017177
      ESP Fit Center  575 is at  -2.860784  1.078066 -7.017177
      ESP Fit Center  576 is at  -2.860784  2.038066 -7.977177
      ESP Fit Center  577 is at  -3.178345  3.015417 -7.977177
      ESP Fit Center  578 is at  -4.009729  3.619453 -7.977177
      ESP Fit Center  579 is at  -5.037377  3.619453 -7.977177
      ESP Fit Center  580 is at  -4.009729  0.456679 -7.977177
      ESP Fit Center  581 is at  -3.178345  1.060715 -7.977177
      ESP Fit Center  582 is at  -3.563553  2.038066 -8.679946
      ESP Fit Center  583 is at  -4.043553  2.869450 -8.679946
      ESP Fit Center  584 is at  -5.003553  2.869450 -8.679946
      ESP Fit Center  585 is at  -5.003553  1.206682 -8.679946
      ESP Fit Center  586 is at  -4.043553  1.206682 -8.679946
      ESP Fit Center  587 is at  -4.523553  2.038066 -8.937177
      ESP Fit Center  588 is at  -5.457718  4.743165 -3.904750
      ESP Fit Center  589 is at  -6.333370  4.106967 -3.904750
      ESP Fit Center  590 is at  -6.667839  3.077577 -3.904750
      ESP Fit Center  591 is at  -6.333370  2.048187 -3.904750
      ESP Fit Center  592 is at  -5.690936  5.119501 -4.802920
      ESP Fit Center  593 is at  -6.551163  4.525730 -4.802920
      ESP Fit Center  594 is at  -4.653303  5.245493 -5.799814
      ESP Fit Center  595 is at  -5.690936  5.119501 -5.799814
      ESP Fit Center  596 is at  -6.551163  4.525730 -5.799814
      ESP Fit Center  597 is at  -4.375354  4.743165 -6.697984
      ESP Fit Center  598 is at  -5.457718  4.743165 -6.697984
      ESP Fit Center  599 is at  -1.532780  4.066743 -5.265343
      ESP Fit Center  600 is at  -3.907930  4.908827 -6.227669
      ESP Fit Center  601 is at  -3.120231  3.953340 -6.893618
      ESP Fit Center  602 is at  -2.857804  4.907986 -2.898441
      ESP Fit Center  603 is at  -3.817804  4.907986 -2.898441
      ESP Fit Center  604 is at  -1.992596  5.053953 -3.601210
      ESP Fit Center  605 is at  -2.823980  5.657989 -3.601210
      ESP Fit Center  606 is at  -3.851628  5.657989 -3.601210
      ESP Fit Center  607 is at  -4.683012  5.053953 -3.601210
      ESP Fit Center  608 is at  -1.417804  4.076602 -4.561210
      ESP Fit Center  609 is at  -1.675035  5.036602 -4.561210
      ESP Fit Center  610 is at  -2.377804  5.739371 -4.561210
      ESP Fit Center  611 is at  -3.337804  5.996602 -4.561210
      ESP Fit Center  612 is at  -4.297804  5.739371 -4.561210
      ESP Fit Center  613 is at  -1.992596  5.053953 -5.521210
      ESP Fit Center  614 is at  -2.823980  5.657989 -5.521210
      ESP Fit Center  615 is at  -3.851628  5.657989 -5.521210
      ESP Fit Center  616 is at  -2.857804  4.907986 -6.223979
      ESP Fit Center  617 is at  -0.996281  2.598303 -5.402506
      ESP Fit Center  618 is at  -1.253512  3.558303 -5.402506
      ESP Fit Center  619 is at  -2.916281  0.678303 -5.402506
      ESP Fit Center  620 is at  -1.956281  0.935534 -5.402506
      ESP Fit Center  621 is at  -1.253512  1.638303 -5.402506
      ESP Fit Center  622 is at  -1.253512  2.598303 -6.362506
      ESP Fit Center  623 is at  -1.571073  3.575654 -6.362506
      ESP Fit Center  624 is at  -2.402457  1.016916 -6.362506
      ESP Fit Center  625 is at  -1.571073  1.620952 -6.362506
      ESP Fit Center  626 is at  -1.956281  2.598303 -7.065275
      ESP Fit Center  627 is at  -2.436281  3.429687 -7.065275
      ESP Fit Center  628 is at  -2.436281  1.766919 -7.065275
      ESP Fit Center  629 is at  -4.822736  3.622520 -1.059362
      ESP Fit Center  630 is at  -5.302736  2.791136 -1.059362
      ESP Fit Center  631 is at  -4.822736  1.959752 -1.059362
      ESP Fit Center  632 is at  -3.828912  4.372523 -1.762131
      ESP Fit Center  633 is at  -4.856560  4.372523 -1.762131
      ESP Fit Center  634 is at  -5.687944  3.768487 -1.762131
      ESP Fit Center  635 is at  -6.005505  2.791136 -1.762131
      ESP Fit Center  636 is at  -5.687944  1.813785 -1.762131
      ESP Fit Center  637 is at  -4.342736  4.711136 -2.722131
      ESP Fit Center  638 is at  -5.302736  4.453905 -2.722131
      ESP Fit Center  639 is at  -6.005505  3.751136 -2.722131
      ESP Fit Center  640 is at  -6.262736  2.791136 -2.722131
      ESP Fit Center  641 is at  -6.005505  1.831136 -2.722131
      ESP Fit Center  642 is at  -4.453582  0.448693 -1.875791
      ESP Fit Center  643 is at  -5.318790  0.302726 -2.578560
      ESP Fit Center  644 is at  -4.487406 -0.301310 -2.578560
      ESP Fit Center  645 is at  -5.893582  1.280077 -3.538560
      ESP Fit Center  646 is at  -5.636351  0.320077 -3.538560
      ESP Fit Center  647 is at  -4.933582 -0.382692 -3.538560
      ESP Fit Center  648 is at  -3.973582 -0.639923 -3.538560
      ESP Fit Center  649 is at  -3.013582 -0.382692 -3.538560
      ESP Fit Center  650 is at  -3.459758 -0.301310 -4.498560
      ESP Fit Center  651 is at  -2.628374  0.302726 -4.498560
      ESP Fit Center  652 is at  -2.082865  4.513144 -2.398046
      ESP Fit Center  653 is at  -0.412405  3.360108 -3.394940
      ESP Fit Center  654 is at  -1.105536  4.142492 -3.394940
      ESP Fit Center  655 is at  -0.594795  2.345228 -4.293110
      ESP Fit Center  656 is at  -0.929264  3.374618 -4.293110
      ESP Fit Center  657 is at  -1.804916  0.679640 -4.293110
      ESP Fit Center  658 is at  -0.929264  1.315838 -4.293110
      ESP Fit Center  659 is at  -2.700572  0.829902  0.507128
      ESP Fit Center  660 is at  -4.288023  0.716499 -1.121147
      ESP Fit Center  661 is at  -2.920011 -0.156062 -0.048169
      ESP Fit Center  662 is at  -3.785219 -0.302029 -0.750938
      ESP Fit Center  663 is at  -2.953835 -0.906065 -0.750938
      ESP Fit Center  664 is at  -4.360011  0.675322 -1.710938
      ESP Fit Center  665 is at  -4.102780 -0.284678 -1.710938
      ESP Fit Center  666 is at  -3.400011 -0.987447 -1.710938
      ESP Fit Center  667 is at  -2.440011 -1.244678 -1.710938
      ESP Fit Center  668 is at  -2.953835 -0.906065 -2.670938
      ESP Fit Center  669 is at  -1.926187 -0.906065 -2.670938
      ESP Fit Center  670 is at  -1.094803 -0.302029 -2.670938
      ESP Fit Center  671 is at  -1.960011 -0.156062 -3.373707
      ESP Fit Center  672 is at  -2.820373  2.189073  1.015493
      ESP Fit Center  673 is at  -2.340373  3.020457  0.758262
      ESP Fit Center  674 is at  -3.300373  3.020457  0.758262
      ESP Fit Center  675 is at  -3.780373  2.189073  0.758262
      ESP Fit Center  676 is at  -3.300373  1.357689  0.758262
      ESP Fit Center  677 is at  -2.306549  3.770460  0.055493
      ESP Fit Center  678 is at  -3.334197  3.770460  0.055493
      ESP Fit Center  679 is at  -4.165581  3.166424  0.055493
      ESP Fit Center  680 is at  -4.483142  2.189073  0.055493
      ESP Fit Center  681 is at  -4.165581  1.211722  0.055493
      ESP Fit Center  682 is at  -2.820373  4.109073 -0.904507
      ESP Fit Center  683 is at  -3.780373  3.851842 -0.904507
      ESP Fit Center  684 is at  -4.740373  2.189073 -0.904507
      ESP Fit Center  685 is at  -4.483142  1.229073 -0.904507
      ESP Fit Center  686 is at   1.382399  2.913217 -0.716354
      ESP Fit Center  687 is at   1.382399  2.913217 -1.784454
      ESP Fit Center  688 is at  -0.205052  2.799814 -3.412729
      ESP Fit Center  689 is at  -0.013617  3.783138  0.494450
      ESP Fit Center  690 is at  -0.973617  3.783138  0.494450
      ESP Fit Center  691 is at   1.169152  2.951754 -0.208319
      ESP Fit Center  692 is at   0.851591  3.929105 -0.208319
      ESP Fit Center  693 is at   0.020207  4.533141 -0.208319
      ESP Fit Center  694 is at  -1.007441  4.533141 -0.208319
      ESP Fit Center  695 is at  -1.838825  3.929105 -0.208319
      ESP Fit Center  696 is at   1.169152  3.911754 -1.168319
      ESP Fit Center  697 is at   0.466383  4.614523 -1.168319
      ESP Fit Center  698 is at  -0.493617  4.871754 -1.168319
      ESP Fit Center  699 is at  -1.453617  4.614523 -1.168319
      ESP Fit Center  700 is at   0.851591  3.929105 -2.128319
      ESP Fit Center  701 is at   0.020207  4.533141 -2.128319
      ESP Fit Center  702 is at  -1.007441  4.533141 -2.128319
      ESP Fit Center  703 is at  -0.013617  3.783138 -2.831088
      ESP Fit Center  704 is at   1.579734  2.436157 -2.017242
      ESP Fit Center  705 is at   1.579734  1.476157 -2.977242
      ESP Fit Center  706 is at   1.262173  2.453508 -2.977242
      ESP Fit Center  707 is at  -0.596859 -0.105230 -2.977242
      ESP Fit Center  708 is at   0.430789 -0.105230 -2.977242
      ESP Fit Center  709 is at   1.262173  0.498806 -2.977242
      ESP Fit Center  710 is at   0.876965  1.476157 -3.680011
      ESP Fit Center  711 is at   0.396965  2.307541 -3.680011
      ESP Fit Center  712 is at  -0.563035  0.644773 -3.680011
      ESP Fit Center  713 is at   0.396965  0.644773 -3.680011
      ESP Fit Center  714 is at  -0.083035  1.476157 -3.937242
      ESP Fit Center  715 is at  -0.495476  1.309356  2.240000
      ESP Fit Center  716 is at   0.476424  1.309356  2.018170
      ESP Fit Center  717 is at  -0.009526  2.151046  2.018170
      ESP Fit Center  718 is at  -0.981426  2.151046  2.018170
      ESP Fit Center  719 is at  -1.467376  1.309356  2.018170
      ESP Fit Center  720 is at   0.921358  2.338746  1.396617
      ESP Fit Center  721 is at   0.045706  2.974944  1.396617
      ESP Fit Center  722 is at  -1.036658  2.974944  1.396617
      ESP Fit Center  723 is at  -1.912310  2.338746  1.396617
      ESP Fit Center  724 is at  -2.246779  1.309356  1.396617
      ESP Fit Center  725 is at   0.745086  3.106620  0.498447
      ESP Fit Center  726 is at   0.520660  0.901810  2.162325
      ESP Fit Center  727 is at  -2.339827  0.000000  0.534050
      ESP Fit Center  728 is at  -2.034171 -1.523632 -0.850483
      ESP Fit Center  729 is at  -1.331402 -2.226401 -0.850483
      ESP Fit Center  730 is at  -0.371402 -2.483632 -0.850483
      ESP Fit Center  731 is at  -1.716610 -1.540983 -1.810483
      ESP Fit Center  732 is at  -0.885226 -2.145019 -1.810483
      ESP Fit Center  733 is at   0.142422 -2.145019 -1.810483
      ESP Fit Center  734 is at   0.588598 -0.563632 -2.513252
      ESP Fit Center  735 is at  -0.851402 -1.395016 -2.513252
      ESP Fit Center  736 is at   0.108598 -1.395016 -2.513252
      ESP Fit Center  737 is at  -0.371402 -0.563632 -2.770483
      ESP Fit Center  738 is at  -0.375880 -0.476232  2.816266
      ESP Fit Center  739 is at   0.104120  0.355152  2.559035
      ESP Fit Center  740 is at  -0.855880  0.355152  2.559035
      ESP Fit Center  741 is at  -1.335880 -0.476232  2.559035
      ESP Fit Center  742 is at  -0.855880 -1.307616  2.559035
      ESP Fit Center  743 is at  -1.721088  0.501119  1.856266
      ESP Fit Center  744 is at  -2.038649 -0.476232  1.856266
      ESP Fit Center  745 is at  -1.721088 -1.453583  1.856266
      ESP Fit Center  746 is at  -0.889704 -2.057619  1.856266
      ESP Fit Center  747 is at  -2.295880 -0.476232  0.896266
      ESP Fit Center  748 is at  -2.038649 -1.436232  0.896266
      ESP Fit Center  749 is at  -1.335880 -2.139001  0.896266
      ESP Fit Center  750 is at  -0.375880 -2.396232  0.896266
      ESP Fit Center  751 is at   2.371586  1.432138  2.485353
      ESP Fit Center  752 is at   1.411586  1.432138  2.485353
      ESP Fit Center  753 is at   0.931586  0.600754  2.485353
      ESP Fit Center  754 is at   3.236794  1.578105  1.782584
      ESP Fit Center  755 is at   2.405410  2.182141  1.782584
      ESP Fit Center  756 is at   1.377762  2.182141  1.782584
      ESP Fit Center  757 is at   3.811586  0.600754  0.822584
      ESP Fit Center  758 is at   3.554355  1.560754  0.822584
      ESP Fit Center  759 is at   2.851586  2.263523  0.822584
      ESP Fit Center  760 is at   1.891586  2.520754  0.822584
      ESP Fit Center  761 is at   3.820918  0.448385 -0.911938
      ESP Fit Center  762 is at   3.563687  1.408385 -0.911938
      ESP Fit Center  763 is at   2.860918  2.111154 -0.911938
      ESP Fit Center  764 is at   1.900918  2.368385 -0.911938
      ESP Fit Center  765 is at   3.563687  0.448385 -1.871938
      ESP Fit Center  766 is at   3.246126  1.425736 -1.871938
      ESP Fit Center  767 is at   2.414742  2.029772 -1.871938
      ESP Fit Center  768 is at   2.860918  0.448385 -2.574707
      ESP Fit Center  769 is at   2.380918  1.279769 -2.574707
      ESP Fit Center  770 is at   1.420918 -0.382999 -2.574707
      ESP Fit Center  771 is at   2.380918 -0.382999 -2.574707
      ESP Fit Center  772 is at   1.900918  0.448385 -2.831938
      ESP Fit Center  773 is at   0.152658 -3.188887  1.134142
      ESP Fit Center  774 is at   3.976423 -3.590781  1.134142
      ESP Fit Center  775 is at   5.045474 -1.668367  0.062628
      ESP Fit Center  776 is at   4.856396 -0.656890  0.062628
      ESP Fit Center  777 is at   4.314699  0.217981  0.062628
      ESP Fit Center  778 is at  -0.135134 -3.142377  0.062628
      ESP Fit Center  779 is at   0.558097 -3.902815  0.062628
      ESP Fit Center  780 is at   1.479218 -4.361479  0.062628
      ESP Fit Center  781 is at   2.503825 -4.456423  0.062628
      ESP Fit Center  782 is at   3.493541 -4.174824  0.062628
      ESP Fit Center  783 is at   4.314699 -3.554715  0.062628
      ESP Fit Center  784 is at   4.856396 -2.679844  0.062628
      ESP Fit Center  785 is at   4.832337 -1.668367 -1.008886
      ESP Fit Center  786 is at   4.608691 -0.616195 -1.008886
      ESP Fit Center  787 is at   3.976423  0.254047 -1.008886
      ESP Fit Center  788 is at   0.152658 -3.188887 -1.008886
      ESP Fit Center  789 is at   0.952043 -3.908656 -1.008886
      ESP Fit Center  790 is at   1.975073 -4.241059 -1.008886
      ESP Fit Center  791 is at   3.044859 -4.128620 -1.008886
      ESP Fit Center  792 is at   3.976423 -3.590781 -1.008886
      ESP Fit Center  793 is at   4.608691 -2.720539 -1.008886
      ESP Fit Center  794 is at   4.225373 -1.668367 -1.917271
      ESP Fit Center  795 is at   3.960117 -0.678418 -1.917271
      ESP Fit Center  796 is at   0.530831 -2.658316 -1.917271
      ESP Fit Center  797 is at   1.255525 -3.383010 -1.917271
      ESP Fit Center  798 is at   2.245474 -3.648266 -1.917271
      ESP Fit Center  799 is at   3.235423 -3.383010 -1.917271
      ESP Fit Center  800 is at   3.960117 -2.658316 -1.917271
      ESP Fit Center  801 is at   3.316988 -1.668367 -2.524235
      ESP Fit Center  802 is at   2.781231 -0.740409 -2.524235
      ESP Fit Center  803 is at   1.709717 -0.740409 -2.524235
      ESP Fit Center  804 is at   1.173960 -1.668367 -2.524235
      ESP Fit Center  805 is at   1.709717 -2.596325 -2.524235
      ESP Fit Center  806 is at   2.781231 -2.596325 -2.524235
      ESP Fit Center  807 is at   2.245474 -1.668367 -2.737372
      ESP Fit Center  808 is at   0.944417 -3.480464  3.336402
      ESP Fit Center  809 is at   0.065084 -3.077592  1.305976
      ESP Fit Center  810 is at   0.249000 -1.783293  3.905558
      ESP Fit Center  811 is at   0.695176 -0.201906  3.202789
      ESP Fit Center  812 is at  -0.136208 -0.805942  3.202789
      ESP Fit Center  813 is at  -0.453769 -1.783293  3.202789
      ESP Fit Center  814 is at  -0.136208 -2.760644  3.202789
      ESP Fit Center  815 is at  -0.453769 -2.743293  2.242789
      ESP Fit Center  816 is at   0.249000 -3.446062  2.242789
      ESP Fit Center  817 is at  -0.136208 -2.760644  1.282789
      ESP Fit Center  818 is at   0.892375 -4.118910  2.850787
      ESP Fit Center  819 is at   1.723759 -4.722946  2.850787
      ESP Fit Center  820 is at   0.574814 -4.101559  1.890787
      ESP Fit Center  821 is at   1.277583 -4.804328  1.890787
      ESP Fit Center  822 is at   2.237583 -5.061559  1.890787
      ESP Fit Center  823 is at   3.197583 -4.804328  1.890787
      ESP Fit Center  824 is at   0.892375 -4.118910  0.930787
      ESP Fit Center  825 is at   1.723759 -4.722946  0.930787
      ESP Fit Center  826 is at   2.751407 -4.722946  0.930787
      ESP Fit Center  827 is at   3.582791 -4.118910  0.930787
      ESP Fit Center  828 is at   5.405510 -0.403451  3.183047
      ESP Fit Center  829 is at   4.577217  0.637756  3.557051
      ESP Fit Center  830 is at   3.745833  1.241792  3.557051
      ESP Fit Center  831 is at   2.718185  1.241792  3.557051
      ESP Fit Center  832 is at   1.886801  0.637756  3.557051
      ESP Fit Center  833 is at   4.894778  0.620405  2.597051
      ESP Fit Center  834 is at   4.192009  1.323174  2.597051
      ESP Fit Center  835 is at   3.232009  1.580405  2.597051
      ESP Fit Center  836 is at   2.272009  1.323174  2.597051
      ESP Fit Center  837 is at   4.577217  0.637756  1.637051
      ESP Fit Center  838 is at   3.745833  1.241792  1.637051
      ESP Fit Center  839 is at   5.607044 -0.718358  3.205120
      ESP Fit Center  840 is at   5.924605 -0.735709  2.245120
      ESP Fit Center  841 is at   5.221836 -0.032940  2.245120
      ESP Fit Center  842 is at   5.924605 -1.695709  1.285120
      ESP Fit Center  843 is at   5.607044 -0.718358  1.285120
      ESP Fit Center  844 is at   4.775660 -3.277096  1.285120
      ESP Fit Center  845 is at   5.607044 -2.673060  1.285120
      ESP Fit Center  846 is at   5.221836 -1.695709  0.582351
      ESP Fit Center  847 is at   3.226851 -1.808668  7.226571
      ESP Fit Center  848 is at   4.298365 -1.808668  7.013434
      ESP Fit Center  849 is at   3.762608 -0.880710  7.013434
      ESP Fit Center  850 is at   2.691094 -0.880710  7.013434
      ESP Fit Center  851 is at   2.155337 -1.808668  7.013434
      ESP Fit Center  852 is at   2.691094 -2.736626  7.013434
      ESP Fit Center  853 is at   3.762608 -2.736626  7.013434
      ESP Fit Center  854 is at   4.941494 -0.818719  6.406470
      ESP Fit Center  855 is at   4.216800 -0.094025  6.406470
      ESP Fit Center  856 is at   3.226851  0.171231  6.406470
      ESP Fit Center  857 is at   2.236902 -0.094025  6.406470
      ESP Fit Center  858 is at   1.512208 -0.818719  6.406470
      ESP Fit Center  859 is at   1.246952 -1.808668  6.406470
      ESP Fit Center  860 is at   1.512208 -2.798617  6.406470
      ESP Fit Center  861 is at   5.590068 -0.756496  5.498085
      ESP Fit Center  862 is at   4.957800  0.113746  5.498085
      ESP Fit Center  863 is at   4.026236  0.651585  5.498085
      ESP Fit Center  864 is at   2.956450  0.764024  5.498085
      ESP Fit Center  865 is at   1.933420  0.431621  5.498085
      ESP Fit Center  866 is at   1.134035 -0.288148  5.498085
      ESP Fit Center  867 is at   0.696517 -1.270829  5.498085
      ESP Fit Center  868 is at   0.696517 -2.346507  5.498085
      ESP Fit Center  869 is at   1.134035 -3.329188  5.498085
      ESP Fit Center  870 is at   5.837773 -0.797191  4.426571
      ESP Fit Center  871 is at   5.296076  0.077680  4.426571
      ESP Fit Center  872 is at   4.474918  0.697789  4.426571
      ESP Fit Center  873 is at   3.485202  0.979388  4.426571
      ESP Fit Center  874 is at   2.460595  0.884444  4.426571
      ESP Fit Center  875 is at   1.539474  0.425780  4.426571
      ESP Fit Center  876 is at   0.846243 -0.334658  4.426571
      ESP Fit Center  877 is at   0.474526 -1.294169  4.426571
      ESP Fit Center  878 is at   0.474526 -2.323167  4.426571
      ESP Fit Center  879 is at   0.846243 -3.282678  4.426571
      ESP Fit Center  880 is at   1.539474 -4.043116  4.426571
      ESP Fit Center  881 is at   5.590068 -0.756496  3.355057
      ESP Fit Center  882 is at   3.400057 -5.772826  5.031205
      ESP Fit Center  883 is at   1.567787 -4.101962  3.715639
      ESP Fit Center  884 is at   1.825018 -5.061962  3.715639
      ESP Fit Center  885 is at   2.527787 -5.764731  3.715639
      ESP Fit Center  886 is at   3.487787 -6.021962  3.715639
      ESP Fit Center  887 is at   2.142579 -5.079313  2.755639
      ESP Fit Center  888 is at   2.973963 -5.683349  2.755639
      ESP Fit Center  889 is at   4.447787 -4.101962  2.052870
      ESP Fit Center  890 is at   3.007787 -4.933346  2.052870
      ESP Fit Center  891 is at   3.967787 -4.933346  2.052870
      ESP Fit Center  892 is at   3.099298 -3.070359  7.100393
      ESP Fit Center  893 is at   2.619298 -3.901743  7.100393
      ESP Fit Center  894 is at   3.099298 -4.733127  7.100393
      ESP Fit Center  895 is at   1.916529 -3.901743  6.397624
      ESP Fit Center  896 is at   2.234090 -4.879094  6.397624
      ESP Fit Center  897 is at   3.065474 -5.483130  6.397624
      ESP Fit Center  898 is at   1.659298 -3.901743  5.437624
      ESP Fit Center  899 is at   1.916529 -4.861743  5.437624
      ESP Fit Center  900 is at   2.619298 -5.564512  5.437624
      ESP Fit Center  901 is at   7.704697 -3.096123  3.486724
      ESP Fit Center  902 is at   7.447466 -2.136123  3.486724
      ESP Fit Center  903 is at   6.744697 -1.433354  3.486724
      ESP Fit Center  904 is at   7.447466 -3.096123  2.526724
      ESP Fit Center  905 is at   7.129905 -2.118772  2.526724
      ESP Fit Center  906 is at   6.298521 -1.514736  2.526724
      ESP Fit Center  907 is at   6.744697 -3.096123  1.823955
      ESP Fit Center  908 is at   6.264697 -2.264739  1.823955
      ESP Fit Center  909 is at   5.304697 -3.927507  1.823955
      ESP Fit Center  910 is at   6.264697 -3.927507  1.823955
      ESP Fit Center  911 is at   5.784697 -3.096123  1.566724
      ESP Fit Center  912 is at   6.360642 -2.103121  6.879103
      ESP Fit Center  913 is at   5.400642 -2.103121  6.879103
      ESP Fit Center  914 is at   7.225850 -1.957154  6.176334
      ESP Fit Center  915 is at   6.394466 -1.353118  6.176334
      ESP Fit Center  916 is at   5.366818 -1.353118  6.176334
      ESP Fit Center  917 is at   7.800642 -2.934505  5.216334
      ESP Fit Center  918 is at   7.543411 -1.974505  5.216334
      ESP Fit Center  919 is at   6.840642 -1.271736  5.216334
      ESP Fit Center  920 is at   5.880642 -1.014505  5.216334
      ESP Fit Center  921 is at   4.843026 -7.453689  5.558785
      ESP Fit Center  922 is at   5.866056 -7.786092  5.558785
      ESP Fit Center  923 is at   8.936457 -5.213400  4.487271
      ESP Fit Center  924 is at   8.747379 -4.201923  4.487271
      ESP Fit Center  925 is at   8.205682 -3.327052  4.487271
      ESP Fit Center  926 is at   3.755849 -6.687410  4.487271
      ESP Fit Center  927 is at   4.449080 -7.447848  4.487271
      ESP Fit Center  928 is at   5.370201 -7.906512  4.487271
      ESP Fit Center  929 is at   6.394808 -8.001456  4.487271
      ESP Fit Center  930 is at   7.384524 -7.719857  4.487271
      ESP Fit Center  931 is at   8.205682 -7.099748  4.487271
      ESP Fit Center  932 is at   8.747379 -6.224877  4.487271
      ESP Fit Center  933 is at   8.723320 -5.213400  3.415757
      ESP Fit Center  934 is at   8.499674 -4.161228  3.415757
      ESP Fit Center  935 is at   7.867406 -3.290986  3.415757
      ESP Fit Center  936 is at   4.043641 -6.733920  3.415757
      ESP Fit Center  937 is at   4.843026 -7.453689  3.415757
      ESP Fit Center  938 is at   5.866056 -7.786092  3.415757
      ESP Fit Center  939 is at   6.935842 -7.673653  3.415757
      ESP Fit Center  940 is at   7.867406 -7.135814  3.415757
      ESP Fit Center  941 is at   8.499674 -6.265572  3.415757
      ESP Fit Center  942 is at   8.116356 -5.213400  2.507372
      ESP Fit Center  943 is at   7.851100 -4.223451  2.507372
      ESP Fit Center  944 is at   4.421814 -6.203349  2.507372
      ESP Fit Center  945 is at   5.146508 -6.928043  2.507372
      ESP Fit Center  946 is at   6.136457 -7.193299  2.507372
      ESP Fit Center  947 is at   7.126406 -6.928043  2.507372
      ESP Fit Center  948 is at   7.851100 -6.203349  2.507372
      ESP Fit Center  949 is at   7.207971 -5.213400  1.900408
      ESP Fit Center  950 is at   6.672214 -4.285442  1.900408
      ESP Fit Center  951 is at   5.600700 -4.285442  1.900408
      ESP Fit Center  952 is at   5.064943 -5.213400  1.900408
      ESP Fit Center  953 is at   5.600700 -6.141358  1.900408
      ESP Fit Center  954 is at   6.672214 -6.141358  1.900408
      ESP Fit Center  955 is at   6.136457 -5.213400  1.687271
      ESP Fit Center  956 is at   8.558465 -5.362550  7.714045
      ESP Fit Center  957 is at   9.021896 -5.362550  5.683619
      ESP Fit Center  958 is at   8.212787 -6.283572  7.896826
      ESP Fit Center  959 is at   7.732787 -7.114956  7.896826
      ESP Fit Center  960 is at   8.915556 -6.283572  7.194057
      ESP Fit Center  961 is at   6.738963 -7.864959  7.194057
      ESP Fit Center  962 is at   7.766611 -7.864959  7.194057
      ESP Fit Center  963 is at   8.597995 -7.260923  7.194057
      ESP Fit Center  964 is at   9.172787 -6.283572  6.234057
      ESP Fit Center  965 is at   6.292787 -7.946341  6.234057
      ESP Fit Center  966 is at   7.252787 -8.203572  6.234057
      ESP Fit Center  967 is at   8.212787 -7.946341  6.234057
      ESP Fit Center  968 is at   8.915556 -7.243572  6.234057
      ESP Fit Center  969 is at   8.915556 -6.283572  5.274057
      ESP Fit Center  970 is at   6.738963 -7.864959  5.274057
      ESP Fit Center  971 is at   7.766611 -7.864959  5.274057
      ESP Fit Center  972 is at   8.597995 -7.260923  5.274057
      ESP Fit Center  973 is at   8.335389 -4.557872  8.095359
      ESP Fit Center  974 is at   7.855389 -3.726488  8.095359
      ESP Fit Center  975 is at   9.038158 -4.557872  7.392590
      ESP Fit Center  976 is at   8.720597 -3.580521  7.392590
      ESP Fit Center  977 is at   7.889213 -2.976485  7.392590
      ESP Fit Center  978 is at   6.861565 -2.976485  7.392590
      ESP Fit Center  979 is at   9.295389 -4.557872  6.432590
      ESP Fit Center  980 is at   9.038158 -3.597872  6.432590
      ESP Fit Center  981 is at   8.335389 -2.895103  6.432590
      ESP Fit Center  982 is at   7.375389 -2.637872  6.432590
      ESP Fit Center  983 is at   9.038158 -4.557872  5.472590
      ESP Fit Center  984 is at   8.720597 -3.580521  5.472590
      ESP Fit Center  985 is at   7.889213 -2.976485  5.472590
      ESP Fit Center  986 is at   6.353861 -3.709543  8.761037
      ESP Fit Center  987 is at   3.773990 -4.887730  8.761037
      ESP Fit Center  988 is at   3.773990 -5.945014  8.761037
      ESP Fit Center  989 is at   3.234551 -5.416372  7.798711
      ESP Fit Center  990 is at   6.095038 -7.697535  7.798711
      ESP Fit Center  991 is at   5.503081 -3.652380  8.976189
      ESP Fit Center  992 is at   4.543081 -3.652380  8.976189
      ESP Fit Center  993 is at   4.063081 -4.483764  8.976189
      ESP Fit Center  994 is at   5.536905 -2.902377  8.273420
      ESP Fit Center  995 is at   4.509257 -2.902377  8.273420
      ESP Fit Center  996 is at   3.677873 -3.506413  8.273420
      ESP Fit Center  997 is at   3.360312 -4.483764  8.273420
      ESP Fit Center  998 is at   5.983081 -2.820995  7.313420
      ESP Fit Center  999 is at   5.023081 -2.563764  7.313420
      ESP Fit Center 1000 is at   4.063081 -2.820995  7.313420
      ESP Fit Center 1001 is at   3.360312 -3.523764  7.313420
      ESP Fit Center 1002 is at   3.103081 -4.483764  7.313420
      ESP Fit Center 1003 is at   4.393431 -7.046254  8.713199
      ESP Fit Center 1004 is at   3.210662 -6.214870  8.010430
      ESP Fit Center 1005 is at   3.528223 -7.192221  8.010430
      ESP Fit Center 1006 is at   4.359607 -7.796257  8.010430
      ESP Fit Center 1007 is at   5.387255 -7.796257  8.010430
      ESP Fit Center 1008 is at   2.953431 -6.214870  7.050430
      ESP Fit Center 1009 is at   3.210662 -7.174870  7.050430
      ESP Fit Center 1010 is at   3.913431 -7.877639  7.050430
      ESP Fit Center 1011 is at   4.873431 -8.134870  7.050430
      ESP Fit Center 1012 is at   5.833431 -7.877639  7.050430
      ESP Fit Center 1013 is at   3.210662 -6.214870  6.090430
      ESP Fit Center 1014 is at   3.528223 -7.192221  6.090430
      ESP Fit Center 1015 is at   4.359607 -7.796257  6.090430
      ESP Fit Center 1016 is at   5.387255 -7.796257  6.090430
      ESP Fit Center 1017 is at   6.003517 -5.592442 10.167005
      ESP Fit Center 1018 is at   6.963517 -5.592442  9.909774
      ESP Fit Center 1019 is at   6.483517 -4.761058  9.909774
      ESP Fit Center 1020 is at   5.523517 -4.761058  9.909774
      ESP Fit Center 1021 is at   5.043517 -5.592442  9.909774
      ESP Fit Center 1022 is at   5.523517 -6.423826  9.909774
      ESP Fit Center 1023 is at   6.483517 -6.423826  9.909774
      ESP Fit Center 1024 is at   7.666286 -5.592442  9.207005
      ESP Fit Center 1025 is at   7.348725 -4.615091  9.207005
      ESP Fit Center 1026 is at   6.517341 -4.011055  9.207005
      ESP Fit Center 1027 is at   4.658309 -6.569793  9.207005
      ESP Fit Center 1028 is at   5.489693 -7.173829  9.207005
      ESP Fit Center 1029 is at   6.517341 -7.173829  9.207005
      ESP Fit Center 1030 is at   7.348725 -6.569793  9.207005
      ESP Fit Center 1031 is at   6.963517 -7.255211  8.247005
      ESP Fit Center 1032 is at   7.666286 -6.552442  8.247005
      ESP Fit Center 1033 is at  -7.196207  4.649586 -5.638673
      ESP Fit Center 1034 is at  -8.196414  4.167912 -5.638673
      ESP Fit Center 1035 is at  -7.196207 -0.214280 -5.638673
      ESP Fit Center 1036 is at  -9.135609  3.250898 -6.671918
      ESP Fit Center 1037 is at  -9.341134  2.217653 -6.671918
      ESP Fit Center 1038 is at  -9.135609  1.184408 -6.671918
      ESP Fit Center 1039 is at  -8.888578  3.299965 -7.705163
      ESP Fit Center 1040 is at  -9.135609  2.217653 -7.705163
      ESP Fit Center 1041 is at  -8.472987  2.755534 -8.581106
      ESP Fit Center 1042 is at  -5.607889  2.217653 -9.166393
      ESP Fit Center 1043 is at  -6.641134  2.217653 -9.371918
      ESP Fit Center 1044 is at  -7.176393 -0.422595 -6.287721
      ESP Fit Center 1045 is at  -9.007411  0.912058 -7.367721
      ESP Fit Center 1046 is at  -8.526960 -0.003365 -7.367721
      ESP Fit Center 1047 is at  -7.676124 -0.590655 -7.367721
      ESP Fit Center 1048 is at  -6.649818 -0.715271 -7.367721
[...]
 1362 Fit       0.002230
 1363 Fit       0.005746
 1364 Fit       0.007633
 1365 Fit       0.003900
 1366 Fit       0.006513
 1367 Fit       0.007179
 1368 Fit       0.005198
 1369 Fit       0.007478
 1370 Fit       0.010207
 1371 Fit       0.005730
 1372 Fit       0.010087
 1373 Fit       0.007220
 1374 Fit       0.006481
 1375 Fit       0.003611
 1376 Fit       0.009944
 1377 Fit       0.008812
 1378 Fit      -0.001893
 1379 Fit       0.001459
 1380 Fit      -0.007916
 1381 Fit      -0.009627
 1382 Fit      -0.006332
 1383 Fit       0.003378
 1384 Fit      -0.007349
 1385 Fit      -0.012627
 1386 Fit      -0.013165
 1387 Fit      -0.012900
 1388 Fit      -0.012960
 1389 Fit      -0.011186
 1390 Fit      -0.004934
 1391 Fit      -0.005970
 1392 Fit      -0.012955
 1393 Fit      -0.013621
 1394 Fit      -0.011962
 1395 Fit      -0.011193
 1396 Fit      -0.012343
 1397 Fit      -0.014117
 1398 Fit      -0.014172
 1399 Fit      -0.010443
 1400 Fit      -0.002196
 1401 Fit      -0.004541
 1402 Fit      -0.010410
 1403 Fit      -0.010263
 1404 Fit      -0.007256
 1405 Fit      -0.005024
 1406 Fit      -0.005533
 1407 Fit      -0.008084
 1408 Fit      -0.010843
 1409 Fit      -0.012274
 1410 Fit      -0.010740
 1411 Fit      -0.005067
 1412 Fit      -0.000463
 1413 Fit      -0.004147
 1414 Fit      -0.002008
 1415 Fit       0.004240
 1416 Fit       0.001366
 1417 Fit      -0.000409
 1418 Fit       0.002768
 1419 Fit       0.006761
 1420 Fit       0.006101
 1421 Fit       0.000490
 1422 Fit       0.009822
 1423 Fit       0.002779
 1424 Fit       0.015964
 1425 Fit       0.009027
 1426 Fit       0.008630
 1427 Fit       0.005558
 1428 Fit       0.007265
 1429 Fit       0.002091
 1430 Fit       0.004621
 1431 Fit       0.001567
 1432 Fit       0.003415
 1433 Fit       0.003881
 1434 Fit       0.005427
 1435 Fit      -0.000239
 1436 Fit       0.005979
 1437 Fit       0.009748
 1438 Fit       0.004936
 1439 Fit       0.010924
 1440 Fit       0.010385
 1441 Fit       0.010171
 1442 Fit       0.011350
 1443 Fit       0.008233
 1444 Fit       0.011115
 1445 Fit       0.006029
 1446 Fit       0.007506
 1447 Fit       0.004697
 1448 Fit      -0.003925
 1449 Fit      -0.004431
 1450 Fit      -0.002493
 1451 Fit       0.002469
 1452 Fit      -0.005577
 1453 Fit      -0.009956
 1454 Fit      -0.009329
 1455 Fit      -0.005378
 1456 Fit      -0.000195
 1457 Fit      -0.001758
 1458 Fit      -0.013253
 1459 Fit      -0.011290
 1460 Fit      -0.005326
 1461 Fit      -0.006415
 1462 Fit      -0.013603
 1463 Fit      -0.014447
 1464 Fit      -0.011650
 1465 Fit      -0.008205
 1466 Fit      -0.006685
 1467 Fit      -0.008216
 1468 Fit      -0.011448
 1469 Fit      -0.017667
 1470 Fit      -0.014226
 1471 Fit      -0.005672
 1472 Fit      -0.005131
 1473 Fit      -0.013476
 1474 Fit      -0.015231
 1475 Fit      -0.014112
 1476 Fit      -0.013347
 1477 Fit      -0.014576
 1478 Fit      -0.016930
 1479 Fit      -0.016921
 1480 Fit      -0.011069
 1481 Fit      -0.006348
 1482 Fit      -0.012928
 1483 Fit      -0.014930
 1484 Fit      -0.016056
 1485 Fit      -0.017507
 1486 Fit      -0.012352
 1487 Fit      -0.002788
 1488 Fit       0.005274
 1489 Fit      -0.000135
 1490 Fit      -0.009599
 1491 Fit      -0.013557
 1492 Fit      -0.006307
 1493 Fit       0.010212
 1494 Fit       0.011106
 1495 Fit       0.004648
 1496 Fit       0.011091
 1497 Fit       0.008436
 1498 Fit       0.009309
 1499 Fit       0.009770
 1500 Fit       0.009307
 1501 Fit       0.005406
 1502 Fit       0.006280
 1503 Fit       0.007611
 1504 Fit       0.007873
 1505 Fit       0.006940
 1506 Fit      -0.000576
 1507 Fit       0.003913
 1508 Fit       0.002694
 1509 Fit       0.010696
 1510 Fit       0.011346
 1511 Fit       0.008756
 1512 Fit       0.010051
 1513 Fit       0.011535
 1514 Fit       0.013337
 1515 Fit       0.005946
 1516 Fit       0.007782
 1517 Fit       0.010102
 1518 Fit       0.013795
 1519 Fit      -0.000283
 1520 Fit       0.003150
 1521 Fit       0.008046
 1522 Fit       0.005122
 1523 Fit       0.004524
 1524 Fit       0.004741
 1525 Fit       0.011718
 1526 Fit       0.005351
 1527 Fit       0.006856
 1528 Fit       0.007161
 1529 Fit       0.006489
 1530 Fit       0.009099
 1531 Fit       0.007937
 1532 Fit       0.007682
 1533 Fit       0.007334
 1534 Fit       0.011217
 1535 Fit       0.005204
 1536 Fit       0.005325
 1537 Fit       0.005284
 1538 Fit       0.006493
 1539 Fit       0.004942
 1540 Fit       0.004674
 1541 Fit       0.004524
 1542 Fit       0.004914
 1543 Fit       0.001272
 1544 Fit       0.000288
 1545 Fit       0.000055
 1546 Fit       0.008110
 1547 Fit       0.009482
 1548 Fit       0.008452
 1549 Fit       0.006835
 1550 Fit       0.006264
 1551 Fit       0.007064
 1552 Fit       0.008743
 1553 Fit       0.010442
 1554 Fit       0.010067
 1555 Fit       0.008688
 1556 Fit       0.005239
 1557 Fit       0.006557
 1558 Fit       0.008533
 1559 Fit       0.010012
 1560 Fit       0.010583
 1561 Fit      -0.010714
 1562 Fit       0.003989
 1563 Fit      -0.005979
 1564 Fit      -0.003109
 1565 Fit       0.003261
 1566 Fit       0.005512
 1567 Fit      -0.002026
 1568 Fit      -0.000876
 1569 Fit       0.000460
 1570 Fit      -0.000275
 1571 Fit       0.001202
 1572 Fit       0.000516
 1573 Fit       0.003903
 1574 Fit       0.002649
 1575 Fit       0.004092
 1576 Fit       0.005998
 1577 Fit       0.008368
 1578 Fit       0.003191
 1579 Fit       0.004870
 1580 Fit       0.006361
 1581 Fit       0.007809
 1582 Fit       0.001492
 1583 Fit       0.003346
 1584 Fit       0.005086
 1585 Fit       0.006425
 1586 Fit       0.007394
 1587 Fit       0.008159
 1588 Fit       0.005132
 1589 Fit       0.003233
 1590 Fit       0.005073
 1591 Fit       0.005927
 1592 Fit       0.003955
 1593 Fit      -0.002983
 1594 Fit      -0.005758
 1595 Fit      -0.000297
 1596 Fit       0.001859
 1597 Fit       0.001650
 1598 Fit      -0.013172
 1599 Fit      -0.004658
 1600 Fit      -0.000541
 1601 Fit       0.001617
 1602 Fit       0.002868
 1603 Fit       0.004239
 1604 Fit      -0.004915
 1605 Fit      -0.001429
 1606 Fit       0.000629
 1607 Fit       0.001844
 1608 Fit       0.002746
 1609 Fit      -0.000013
 1610 Fit       0.001147
 1611 Fit      -0.016931
 1612 Fit      -0.013105
 1613 Fit      -0.007831
 1614 Fit      -0.005064
 1615 Fit      -0.007391
 1616 Fit      -0.005156
 1617 Fit      -0.003077
 1618 Fit      -0.001895
 1619 Fit      -0.001432
 1620 Fit      -0.000620
 1621 Fit      -0.001222
 1622 Fit      -0.000510
 1623 Fit      -0.000040
 1624 Fit      -0.000027
 1625 Fit       0.000909
 1626 Fit       0.000852
 1627 Fit       0.000854
 1628 Fit       0.001473
 1629 Fit       0.008250
 1630 Fit      -0.007215
 1631 Fit       0.009488
 1632 Fit       0.008781
 1633 Fit       0.007728
 1634 Fit       0.010097
 1635 Fit       0.007520
 1636 Fit       0.008828
 1637 Fit       0.009667
 1638 Fit       0.009995
 1639 Fit       0.008000
 1640 Fit       0.008686
 1641 Fit       0.008872
 1642 Fit       0.008742
 1643 Fit       0.007675
 1644 Fit       0.007167
 1645 Fit       0.005670
 1646 Fit       0.003661
 1647 Fit       0.000916
 1648 Fit      -0.000247
 1649 Fit       0.008715
 1650 Fit       0.007543
 1651 Fit       0.006725
 1652 Fit       0.005489
 1653 Fit       0.003707
 1654 Fit       0.003339
 1655 Fit       0.007043
 1656 Fit       0.006669
 1657 Fit       0.005344
 1658 Fit      -0.013193
 1659 Fit      -0.014259
 1660 Fit      -0.010487
 1661 Fit      -0.013815
 1662 Fit      -0.018414
 1663 Fit      -0.018539
 1664 Fit      -0.018582
 1665 Fit      -0.019782
 1666 Fit      -0.011915
 1667 Fit      -0.016542
 1668 Fit      -0.008490
 1669 Fit      -0.011997
 1670 Fit      -0.006776
 1671 Fit      -0.004435
 1672 Fit      -0.003101
 1673 Fit      -0.000684
 1674 Fit      -0.008295
 1675 Fit      -0.002877
 1676 Fit      -0.002320
 1677 Fit      -0.004297
 1678 Fit      -0.005811
 1679 Fit      -0.002215
 1680 Fit      -0.001680
 1681 Fit      -0.003657
 1682 Fit      -0.008747
 1683 Fit      -0.002663
 1684 Fit      -0.001420
 1685 Fit      -0.002135
 1686 Fit      -0.005490
 1687 Fit      -0.013571
 1688 Fit      -0.001342
 1689 Fit      -0.002470
 1690 Fit      -0.006525
 1691 Fit      -0.000867
 1692 Fit      -0.001549
 1693 Fit       0.007187
 1694 Fit       0.003661
 1695 Fit       0.000909
 1696 Fit       0.002694
 1697 Fit       0.001243
 1698 Fit       0.007029
 1699 Fit       0.004595
 1700 Fit       0.004605
 1701 Fit       0.002377
 1702 Fit       0.006045
 1703 Fit       0.000429
 1704 Fit       0.002025
 1705 Fit       0.003527
 1706 Fit       0.004436
 1707 Fit      -0.000092
 1708 Fit       0.000794
 1709 Fit       0.001034
 1710 Fit       0.001803
 1711 Fit       0.003430
 1712 Fit       0.005653
 1713 Fit      -0.001646
 1714 Fit      -0.001938
 1715 Fit      -0.003113
 1716 Fit      -0.002970
 1717 Fit      -0.000856
 1718 Fit       0.002387
 1719 Fit       0.008110
 1720 Fit       0.006803
 1721 Fit       0.008771
 1722 Fit       0.009796
 1723 Fit       0.010553
 1724 Fit       0.009557
 1725 Fit       0.007249
 1726 Fit       0.009466
 1727 Fit      -0.005346
 1728 Fit      -0.009400
 1729 Fit      -0.009582
 1730 Fit      -0.010938
 1731 Fit       0.002817
 1732 Fit      -0.008200
 1733 Fit      -0.009267
 1734 Fit      -0.001510
 1735 Fit      -0.005397
 1736 Fit       0.001360
 1737 Fit       0.005370
 1738 Fit      -0.001608
 1739 Fit       0.006487
 1740 Fit       0.007841
 1741 Fit       0.008276
 1742 Fit       0.008987
 1743 Fit       0.009714
 1744 Fit       0.009424
 1745 Fit       0.009256
 1746 Fit       0.008647
 1747 Fit      -0.008727
 1748 Fit      -0.009389
 1749 Fit      -0.002059
 1750 Fit      -0.000531
 1751 Fit      -0.003605
 1752 Fit      -0.003684
 1753 Fit      -0.000491
 1754 Fit       0.001558
 1755 Fit       0.002781
 1756 Fit       0.003040
 1757 Fit       0.002430
 1758 Fit      -0.000346
 1759 Fit       0.000518
 1760 Fit       0.002610
 1761 Fit       0.004420
 1762 Fit       0.005174
 1763 Fit       0.005520
 1764 Fit      -0.001640
 1765 Fit       0.002994
 1766 Fit       0.005369
 1767 Fit      -0.008235
 1768 Fit      -0.003424
 1769 Fit      -0.002170
 1770 Fit      -0.002087
 1771 Fit      -0.002282
 1772 Fit       0.001077
 1773 Fit       0.000853
 1774 Fit       0.000460
 1775 Fit      -0.000342
 1776 Fit      -0.000871
 1777 Fit       0.002581
 1778 Fit       0.001374
 1779 Fit       0.000059
 1780 Fit      -0.002157
 1781 Fit       0.000835
 1782 Fit      -0.001853
 1783 Fit      -0.006817
 1784 Fit       0.006937
 1785 Fit       0.007262
 1786 Fit       0.003468
 1787 Fit       0.007496
 1788 Fit       0.008166
 1789 Fit       0.008826
 1790 Fit       0.002979
 1791 Fit      -0.003508
 1792 Fit       0.003969
 1793 Fit      -0.004041
 1794 Fit      -0.008531
 1795 Fit      -0.012245
 1796 Fit      -0.015306
 1797 Fit      -0.011712
 1798 Fit      -0.012855
 1799 Fit      -0.015341
 1800 Fit      -0.015329
 1801 Fit      -0.013995
 1802 Fit      -0.011180
 1803 Fit      -0.008221
 1804 Fit      -0.010474
 1805 Fit      -0.010328
 1806 Fit      -0.009382
 1807 Fit      -0.004709
 1808 Fit       0.002986
 1809 Fit       0.003928
 1810 Fit       0.006169
 1811 Fit       0.005219
 1812 Fit       0.006005
 1813 Fit      -0.000393
 1814 Fit       0.007762
 1815 Fit       0.002203
 1816 Fit       0.007686
 1817 Fit       0.005197
 1818 Fit       0.009151
 1819 Fit       0.003879
 1820 Fit      -0.001117
 1821 Fit       0.003038
 1822 Fit      -0.001585
 1823 Fit       0.004010
 1824 Fit       0.007133
 1825 Fit       0.001532
 1826 Fit       0.005222
 1827 Fit       0.006397
 1828 Fit       0.006550
 1829 Fit       0.004633
 1830 Fit       0.004422
 1831 Fit       0.004889
 1832 Fit       0.007844
 1833 Fit       0.006881
 1834 Fit       0.000289
 1835 Fit       0.008372
 1836 Fit       0.006287
 1837 Fit       0.002172
 1838 Fit       0.004799
 1839 Fit       0.001775
 1840 Fit       0.003799
 1841 Fit       0.005694
 1842 Fit       0.005968
 1843 Fit       0.002724
 1844 Fit       0.006035
 1845 Fit       0.007636
 1846 Fit       0.006229
 1847 Fit       0.008673
 1848 Fit       0.009334
 1849 Fit       0.002860
 1850 Fit       0.001372
 1851 Fit      -0.004859
 1852 Fit      -0.005236
 1853 Fit      -0.003181
 1854 Fit       0.001301
 1855 Fit      -0.001120
 1856 Fit      -0.004186
 1857 Fit      -0.003965
 1858 Fit      -0.001964
 1859 Fit      -0.000270
 1860 Fit      -0.000139
 1861 Fit      -0.001191
 1862 Fit      -0.002468
 1863 Fit      -0.003647
 1864 Fit      -0.009928
 1865 Fit      -0.008389
 1866 Fit      -0.004162
 1867 Fit      -0.004216
 1868 Fit      -0.008014
 1869 Fit      -0.008279
 1870 Fit      -0.007077
 1871 Fit      -0.006294
 1872 Fit      -0.006756
 1873 Fit      -0.008112
 1874 Fit      -0.009487
 1875 Fit      -0.010397
 1876 Fit      -0.007282
 1877 Fit      -0.000944
 1878 Fit      -0.002482
 1879 Fit      -0.008541
 1880 Fit      -0.010225
 1881 Fit      -0.009943
 1882 Fit      -0.009708
 1883 Fit      -0.010262
 1884 Fit      -0.010951
 1885 Fit      -0.008269
 1886 Fit      -0.003655
 1887 Fit      -0.004473
 1888 Fit      -0.008859
 1889 Fit      -0.010023
 1890 Fit      -0.010130
 1891 Fit      -0.009926
 1892 Fit      -0.005192
 1893 Fit       0.001261
 1894 Fit       0.005162
 1895 Fit       0.000318
 1896 Fit      -0.005928
 1897 Fit      -0.007509
 1898 Fit      -0.002291
 1899 Fit       0.002660
 1900 Fit       0.005140
 1901 Fit       0.001956
 1902 Fit       0.002489
 1903 Fit       0.001604
 1904 Fit      -0.000103
 1905 Fit       0.008222
 1906 Fit       0.005868
 1907 Fit       0.004642
 1908 Fit       0.007035
 1909 Fit       0.006180
 1910 Fit       0.006613
 1911 Fit       0.008783
 1912 Fit       0.004371
 1913 Fit       0.006101
 1914 Fit       0.007282
 1915 Fit       0.008633
 1916 Fit       0.011622
 1917 Fit       0.001582
 1918 Fit       0.004390
 1919 Fit       0.002908
 1920 Fit       0.004015
 1921 Fit       0.006022
 1922 Fit       0.007129
 1923 Fit       0.007223
 1924 Fit       0.008439
 1925 Fit       0.006280
 1926 Fit       0.008772
 1927 Fit       0.003530
 1928 Fit       0.005728
 1929 Fit       0.008094
 1930 Fit       0.005212
 1931 Fit       0.004024
 1932 Fit       0.002396
 1933 Fit       0.000424
 1934 Fit       0.003588
 1935 Fit      -0.000879
 1936 Fit       0.002211
 1937 Fit      -0.005113
 1938 Fit      -0.006849
 1939 Fit      -0.004296
 1940 Fit       0.002918
 1941 Fit       0.005597
 1942 Fit      -0.003921
 1943 Fit      -0.008592
 1944 Fit      -0.009773
 1945 Fit      -0.009853
 1946 Fit      -0.009572
 1947 Fit      -0.007741
 1948 Fit      -0.002870
 1949 Fit      -0.002522
 1950 Fit      -0.008730
 1951 Fit      -0.010301
 1952 Fit      -0.009921
 1953 Fit      -0.009670
 1954 Fit      -0.010228
 1955 Fit      -0.010843
 1956 Fit      -0.010122
 1957 Fit      -0.006833
 1958 Fit      -0.000468
 1959 Fit      -0.007367
 1960 Fit      -0.008866
 1961 Fit      -0.007905
 1962 Fit      -0.006646
 1963 Fit      -0.006549
 1964 Fit      -0.007681
 1965 Fit      -0.009132
 1966 Fit      -0.009947
 1967 Fit      -0.009270
 1968 Fit      -0.006261
 1969 Fit      -0.000866
 1970 Fit      -0.004236
 1971 Fit      -0.005072
 1972 Fit      -0.003397
 1973 Fit      -0.001155
 1974 Fit      -0.000315
 1975 Fit      -0.001347
 1976 Fit      -0.003015
 1977 Fit      -0.004073
 1978 Fit      -0.004709
 1979 Fit      -0.005192
 1980 Fit      -0.004213
 1981 Fit      -0.000724
 1982 Fit       0.003653
 1983 Fit       0.000472
 1984 Fit       0.005812
 1985 Fit       0.002954
 1986 Fit       0.002427
 1987 Fit       0.004173
 1988 Fit       0.002632
 1989 Fit       0.007901
 1990 Fit       0.004909
 1991 Fit      -0.001386
 1992 Fit       0.009352
 1993 Fit       0.003169
 1994 Fit       0.013021
 1995 Fit       0.007883
 1996 Fit       0.007422
 1997 Fit       0.005000
 1998 Fit       0.006642
 1999 Fit       0.003579
 2000 Fit       0.004320
 2001 Fit       0.003932
 2002 Fit       0.002476
 2003 Fit       0.002729
 2004 Fit       0.005145
 2005 Fit      -0.000264
 2006 Fit       0.004780
 2007 Fit       0.003482
 2008 Fit       0.010180
 2009 Fit       0.008013
 2010 Fit       0.010380
 2011 Fit       0.005740
 2012 Fit       0.008053
 2013 Fit       0.005187
 2014 Fit      -0.000821
 2015 Fit       0.004730
 2016 Fit       0.003631
 2017 Fit      -0.002867
 2018 Fit      -0.000136
 2019 Fit      -0.006488
 2020 Fit      -0.005342
 2021 Fit      -0.002121
 2022 Fit       0.002292
 2023 Fit      -0.005455
 2024 Fit      -0.008770
 2025 Fit      -0.008974
 2026 Fit      -0.007109
 2027 Fit      -0.004426
 2028 Fit      -0.002233
 2029 Fit      -0.001682
 2030 Fit      -0.003147
 2031 Fit      -0.005401
 2032 Fit      -0.011593
 2033 Fit      -0.009789
 2034 Fit      -0.005248
 2035 Fit      -0.006173
 2036 Fit      -0.010648
 2037 Fit      -0.011240
 2038 Fit      -0.009879
 2039 Fit      -0.008368
 2040 Fit      -0.008038
 2041 Fit      -0.009219
 2042 Fit      -0.010965
 2043 Fit      -0.013603
 2044 Fit      -0.010576
 2045 Fit      -0.003901
 2046 Fit      -0.002055
 2047 Fit      -0.009327
 2048 Fit      -0.011676
 2049 Fit      -0.011756
 2050 Fit      -0.011686
 2051 Fit      -0.012513
 2052 Fit      -0.013711
 2053 Fit      -0.012563
 2054 Fit      -0.008052
 2055 Fit       0.005800
 2056 Fit      -0.004240
 2057 Fit      -0.009673
 2058 Fit      -0.011762
 2059 Fit      -0.012788
 2060 Fit      -0.013510
 2061 Fit      -0.009410
 2062 Fit      -0.002678
 2063 Fit       0.002934
 2064 Fit      -0.000616
 2065 Fit      -0.007541
 2066 Fit      -0.010547
 2067 Fit      -0.005327
 2068 Fit       0.009525
 2069 Fit       0.010066
 2070 Fit       0.007826
 2071 Fit       0.005573
 2072 Fit       0.001388
 2073 Fit       0.008168
 2074 Fit       0.008382
 2075 Fit       0.008662
 2076 Fit       0.008428
 2077 Fit       0.005919
 2078 Fit       0.006554
 2079 Fit       0.007184
 2080 Fit       0.007223
 2081 Fit       0.006633
 2082 Fit       0.002366
 2083 Fit       0.003414
 2084 Fit       0.004703
 2085 Fit       0.004787
 2086 Fit       0.003853
 2087 Fit       0.009939
 2088 Fit       0.010120
 2089 Fit       0.008254
 2090 Fit       0.008957
 2091 Fit       0.009942
 2092 Fit       0.011084
 2093 Fit       0.006315
 2094 Fit       0.007385
 2095 Fit       0.008820
 2096 Fit       0.010684
 2097 Fit       0.002968
 2098 Fit       0.004671
 2099 Fit       0.007007
 2100 Fit       0.006056
 2101 Fit       0.005389
 2102 Fit       0.004652
 2103 Fit       0.004338
 2104 Fit       0.004646
 2105 Fit       0.009643
 2106 Fit       0.008220
 2107 Fit       0.005065
 2108 Fit       0.004411
 2109 Fit       0.005139
 2110 Fit       0.006684
 2111 Fit       0.005766
 2112 Fit       0.005648
 2113 Fit       0.007460
 2114 Fit       0.006299
 2115 Fit       0.005900
 2116 Fit       0.005730
 2117 Fit       0.008434
 2118 Fit       0.006106
 2119 Fit       0.006419
 2120 Fit       0.007504
 2121 Fit       0.007142
 2122 Fit       0.004509
 2123 Fit       0.004575
 2124 Fit       0.004740
 2125 Fit       0.004820
 2126 Fit       0.004378
 2127 Fit       0.004272
 2128 Fit       0.004304
 2129 Fit       0.005010
 2130 Fit       0.004304
 2131 Fit       0.002891
 2132 Fit       0.002401
 2133 Fit       0.002321
 2134 Fit       0.003373
 2135 Fit      -0.001594
 2136 Fit      -0.003054
 2137 Fit       0.007065
 2138 Fit       0.008118
 2139 Fit       0.007418
 2140 Fit       0.006256
 2141 Fit       0.005804
 2142 Fit       0.006373
 2143 Fit       0.007565
 2144 Fit       0.008957
 2145 Fit       0.008666
 2146 Fit       0.007668
 2147 Fit       0.005168
 2148 Fit       0.006162
 2149 Fit       0.007542
 2150 Fit       0.008604
 2151 Fit       0.009996
 2152 Fit       0.010360
 2153 Fit       0.007067
 2154 Fit       0.008862
 2155 Fit       0.009779
 Job cpu time:       0 days  0 hours  4 minutes 27.5 seconds.
 Normal termination of Gaussian 16 at Sat Jul  8 20:40:52 2023.
