 Copyright (c) 1988-2019, Gaussian, Inc.  All Rights Reserved.
  
 This is part of the Gaussian(R) 16 program.  It is based on
 the Gaussian(R) 09 system (copyright 2009, Gaussian, Inc.),
 the Gaussian(R) 03 system (copyright 2003, Gaussian, Inc.),
 the Gaussian(R) 98 system (copyright 1998, Gaussian, Inc.),
 the Gaussian(R) 94 system (copyright 1995, Gaussian, Inc.),
 the Gaussian 92(TM) system (copyright 1992, Gaussian, Inc.),
 the Gaussian 90(TM) system (copyright 1990, Gaussian, Inc.),
 the Gaussian 88(TM) system (copyright 1988, Gaussian, Inc.),
 the Gaussian 86(TM) system (copyright 1986, Carnegie Mellon
 University), and the Gaussian 82(TM) system (copyright 1983,
 Carnegie Mellon University). Gaussian is a federally registered
 trademark of Gaussian, Inc.
 Cite this work as:
 Gaussian 16, Revision C.01,
 M. J. Frisch, G. W. Trucks, H. B. Schlegel, G. E. Scuseria, 
 M. A. Robb, J. R. Cheeseman, G. Scalmani, V. Barone, 
 G. A. Petersson, H. Nakatsuji, X. Li, M. Caricato, A. V. Marenich, 
 J. Bloino, B. G. Janesko, R. Gomperts, B. Mennucci, H. P. Hratchian, 
 J. V. Ortiz, A. F. Izmaylov, J. L. Sonnenberg, D. Williams-Young, 
 F. Ding, F. Lipparini, F. Egidi, J. Goings, B. Peng, A. Petrone, 
 T. Henderson, D. Ranasinghe, V. G. Zakrzewski, J. Gao, N. Rega, 
 G. Zheng, W. Liang, M. Hada, M. Ehara, K. Toyota, R. Fukuda, 
 J. Hasegawa, M. Ishida, T. Nakajima, Y. Honda, O. Kitao, H. Nakai, 
 T. Vreven, K. Throssell, J. A. Montgomery, Jr., J. E. Peralta, 
 F. Ogliaro, M. J. Bearpark, J. J. Heyd, E. N. Brothers, K. N. Kudin, 
 V. N. Staroverov, T. A. Keith, R. Kobayashi, J. Normand, 
 K. Raghavachari, A. P. Rendell, J. C. Burant, S. S. Iyengar, 
 J. Tomasi, M. Cossi, J. M. Millam, M. Klene, C. Adamo, R. Cammi, 
 J. W. Ochterski, R. L. Martin, K. Morokuma, O. Farkas, 
 J. B. Foresman, and D. J. Fox, Gaussian, Inc., Wallingford CT, 2019.
 
 ******************************************
 Gaussian 16:  EM64L-G16RevC.01  3-Jul-2019
                 8-Jul-2023 
 ******************************************
 ----------------------------------------------------------------------
 #P HF/6-31G(d) SCF(Conver=8,XQC,MaxConventionalCycles=64,MaxCycle=128)
  NoSymm Test Pop=mk IOp(6/33=2) GFInput GFPrint
 ----------------------------------------------------------------------
 1/38=1,172=1/1;
 2/12=2,15=1,17=6,18=5,40=1/2;
 3/5=1,6=6,7=1,11=9,24=110,25=1,30=1/1,2,3;
 4//1;
 5/5=2,6=8,7=128,8=3,13=1,38=5,85=64/2,8;
 6/7=2,8=2,9=2,10=2,15=8,20=1,28=1,33=2/1,2;
 99/5=1,9=1/99;
 -------------------------------------------------
 MEP step - Input generated by PyRED DVE-DMDS-OPLS
 -------------------------------------------------
 Symbolic Z-matrix:
 Charge =  0 Multiplicity = 1
 C                    -7.48942  -2.05672   3.03909 
 H                    -7.31768  -2.10261   1.96908 
 H                    -7.05067  -2.93901   3.4922 
 H                    -8.5626   -2.08468   3.20305 
 C                    -6.89953  -0.79748   3.65993 
 H                    -7.32584   0.09078   3.19621 
 H                    -7.14186  -0.76236   4.7145 
 O                    -5.50124  -0.74912   3.59004 
 C                    -4.95204  -0.3967    2.3573 
 H                    -5.36659   0.55051   2.01493 
 H                    -5.15744  -1.14178   1.59368 
 C                    -3.44827  -0.28976   2.55554 
 H                    -3.22866   0.4476    3.32201 
 H                    -3.07005  -1.24451   2.89537 
 O                    -2.78946   0.01472   1.35766 
 C                    -2.66098   1.37283   1.04856 
 H                    -2.19017   1.90722   1.86997 
 H                    -3.63637   1.82303   0.86954 
 C                    -1.81924   1.53356  -0.20247 
 H                    -1.91748   2.55532  -0.55061 
 H                    -2.19828   0.87362  -0.97928 
 O                    -0.45255   1.32631   0. 
 C                     0.        0.        0. 
 H                    -0.34795  -0.50398  -0.90176 
 H                    -0.38106  -0.54185   0.85434 
 C                     1.51844   0.        0. 
 H                     1.88904   0.59278  -0.82786 
 H                     1.8658   -1.01696  -0.14425 
 S                     2.31289   0.552     1.53889 
 C                     2.20236   2.36789   1.41408 
 H                     2.62286   2.66986   0.46287 
 H                     1.16891   2.6731    1.43789 
 C                     2.97461   2.99103   2.5734 
 H                     4.00633   2.66463   2.57822 
 H                     2.54222   2.67885   3.51637 
 S                     2.90048   4.80646   2.62679 
 C                     3.87979   5.31199   1.18059 
 H                     3.79713   6.39172   1.16752 
 H                     3.40818   4.94519   0.27691 
 C                     5.35325   4.90719   1.16303 
 H                     5.45133   3.82959   1.14634 
 H                     5.78872   5.2867    0.24436 
 S                     6.28384   5.60295   2.5639 
 C                     7.98716   5.44984   1.94697 
 H                     8.06154   5.94859   0.98683 
 H                     8.58262   6.02351   2.64753 
 C                     8.51885   4.02207   1.85831 
 H                     7.95905   3.4286    1.14361 
 H                     9.55665   4.03055   1.53691 
 H                     8.46382   3.52813   2.82147 
 
 ITRead=  0  0  0  0  0  0  0  0  0  0  0  0  0  0  0  0  0  0  0  0
 ITRead=  0  0  0  0  0  0  0  0  0  0  0  0  0  0  0  0  0  0  0  0
 ITRead=  0  0  0  0  0  0  0  0  0  0
 MicOpt= -1 -1 -1 -1 -1 -1 -1 -1 -1 -1 -1 -1 -1 -1 -1 -1 -1 -1 -1 -1
 MicOpt= -1 -1 -1 -1 -1 -1 -1 -1 -1 -1 -1 -1 -1 -1 -1 -1 -1 -1 -1 -1
 MicOpt= -1 -1 -1 -1 -1 -1 -1 -1 -1 -1
 NAtoms=     50 NQM=       50 NQMF=       0 NMMI=      0 NMMIF=      0
                NMic=       0 NMicF=      0.
                          Input orientation:                          
 ---------------------------------------------------------------------
 Center     Atomic      Atomic             Coordinates (Angstroms)
 Number     Number       Type             X           Y           Z
 ---------------------------------------------------------------------
      1          6           0       -7.489421   -2.056716    3.039089
      2          1           0       -7.317680   -2.102612    1.969076
      3          1           0       -7.050672   -2.939009    3.492200
      4          1           0       -8.562604   -2.084677    3.203051
      5          6           0       -6.899534   -0.797478    3.659927
      6          1           0       -7.325844    0.090778    3.196207
      7          1           0       -7.141863   -0.762364    4.714499
      8          8           0       -5.501239   -0.749122    3.590044
      9          6           0       -4.952043   -0.396699    2.357297
     10          1           0       -5.366592    0.550513    2.014934
     11          1           0       -5.157435   -1.141779    1.593682
     12          6           0       -3.448270   -0.289764    2.555544
     13          1           0       -3.228664    0.447603    3.322008
     14          1           0       -3.070052   -1.244509    2.895371
     15          8           0       -2.789461    0.014720    1.357659
     16          6           0       -2.660982    1.372831    1.048563
     17          1           0       -2.190166    1.907223    1.869967
     18          1           0       -3.636367    1.823028    0.869543
     19          6           0       -1.819235    1.533559   -0.202465
     20          1           0       -1.917480    2.555318   -0.550609
     21          1           0       -2.198282    0.873620   -0.979276
     22          8           0       -0.452553    1.326311    0.000000
     23          6           0        0.000000    0.000000    0.000000
     24          1           0       -0.347951   -0.503980   -0.901759
     25          1           0       -0.381055   -0.541845    0.854343
     26          6           0        1.518443    0.000000    0.000000
     27          1           0        1.889035    0.592781   -0.827855
     28          1           0        1.865795   -1.016956   -0.144245
     29         16           0        2.312891    0.552003    1.538886
     30          6           0        2.202359    2.367891    1.414076
     31          1           0        2.622855    2.669857    0.462865
     32          1           0        1.168907    2.673103    1.437890
     33          6           0        2.974610    2.991031    2.573404
     34          1           0        4.006329    2.664633    2.578222
     35          1           0        2.542217    2.678854    3.516366
     36         16           0        2.900477    4.806458    2.626791
     37          6           0        3.879790    5.311990    1.180587
     38          1           0        3.797130    6.391718    1.167521
     39          1           0        3.408183    4.945194    0.276910
     40          6           0        5.353253    4.907193    1.163032
     41          1           0        5.451331    3.829590    1.146343
     42          1           0        5.788723    5.286698    0.244361
     43         16           0        6.283841    5.602946    2.563898
     44          6           0        7.987157    5.449836    1.946965
     45          1           0        8.061538    5.948592    0.986829
     46          1           0        8.582617    6.023505    2.647529
     47          6           0        8.518849    4.022069    1.858310
     48          1           0        7.959054    3.428596    1.143611
     49          1           0        9.556648    4.030548    1.536905
     50          1           0        8.463820    3.528134    2.821472
 ---------------------------------------------------------------------
 Stoichiometry    C14H30O3S3
 Framework group  C1[X(C14H30O3S3)]
 Standard basis: 6-31G(d) (6D, 7F)
   372 basis functions,   752 primitive gaussians,   372 cartesian basis functions
    93 alpha electrons       93 beta electrons
 Requested convergence on RMS density matrix=1.00D-08 within  64 cycles.
 Requested convergence on MAX density matrix=1.00D-06.
 Requested convergence on             energy=1.00D-06.
 SCF Done:  E(RHF) =  -1964.69116702     A.U. after   13 cycles
            NFock= 13  Conv=0.56D-08     -V/T= 2.0006
 Mulliken charges:
     1  C   -0.504573
     2  H    0.163210
     3  H    0.176228
     4  H    0.160220
     5  C    0.016256
     6  H    0.138924
     7  H    0.173591
     8  O   -0.633488
     9  C    0.008023
    10  H    0.136255
    11  H    0.152377
    12  C    0.001389
    13  H    0.159850
    14  H    0.185999
    15  O   -0.642290
    16  C    0.001459
    17  H    0.162127
    18  H    0.136852
    19  C    0.001068
    20  H    0.172733
    21  H    0.155310
    22  O   -0.635409
    23  C    0.032140
    24  H    0.141586
    25  H    0.189304
    26  C   -0.498550
    27  H    0.195908
    28  H    0.197751
    29  S    0.106722
    30  C   -0.449953
    31  H    0.179690
    32  H    0.233273
    33  C   -0.505254
    34  H    0.211928
    35  H    0.216044
    36  S    0.137870
    37  C   -0.487983
    38  H    0.215832
    39  H    0.198972
    40  C   -0.463333
    41  H    0.195059
    42  H    0.189432
    43  S    0.140306
    44  C   -0.480523
    45  H    0.184559
    46  H    0.198619
    47  C   -0.476451
    48  H    0.163581
    49  H    0.165944
    50  H    0.181412
 Sum of Mulliken charges =  -0.00000
 Dipole moment (field-independent basis, Debye):
    X=             -2.0605    Y=             -0.7350    Z=             -4.1111  Tot=              4.6569
 Quadrupole moment (field-independent basis, Debye-Ang):
   XX=           -117.2745   YY=           -158.7060   ZZ=           -163.1076
   XY=             -0.6596   XZ=            -15.3233   YZ=            -15.2137
 Traceless Quadrupole moment (field-independent basis, Debye-Ang):
   XX=             29.0882   YY=            -12.3433   ZZ=            -16.7449
   XY=             -0.6596   XZ=            -15.3233   YZ=            -15.2137
 Octapole moment (field-independent basis, Debye-Ang**2):
  XXX=           -402.9666  YYY=          -1019.6722  ZZZ=           -845.6512  XYY=           -158.5353
  XXY=           -235.4304  XXZ=           -257.2556  XZZ=           -188.9004  YZZ=           -367.9363
  YYZ=           -366.4738  XYZ=            -61.3932
 Hexadecapole moment (field-independent basis, Debye-Ang**3):
 XXXX=         -17281.1591 YYYY=         -10189.7690 ZZZZ=          -4329.9705 XXXY=          -4319.0890
 XXXZ=           -694.2894 YYYX=          -5491.0145 YYYZ=          -2286.2757 ZZZX=           -451.1009
 ZZZY=          -1850.3823 XXYY=          -4688.7758 XXZZ=          -4112.4856 YYZZ=          -2658.9021
 XXYZ=           -752.9821 YYXZ=           -497.1908 ZZXY=          -2003.3998
 Merz-Kollman atomic radii used.
 Atom Element Radius
    1     6    1.50
    2     1    1.20
    3     1    1.20
    4     1    1.20
    5     6    1.50
    6     1    1.20
    7     1    1.20
    8     8    1.40
    9     6    1.50
   10     1    1.20
   11     1    1.20
   12     6    1.50
   13     1    1.20
   14     1    1.20
   15     8    1.40
   16     6    1.50
   17     1    1.20
   18     1    1.20
   19     6    1.50
   20     1    1.20
   21     1    1.20
   22     8    1.40
   23     6    1.50
   24     1    1.20
   25     1    1.20
   26     6    1.50
   27     1    1.20
   28     1    1.20
   29    16    1.75
   30     6    1.50
   31     1    1.20
   32     1    1.20
   33     6    1.50
   34     1    1.20
   35     1    1.20
   36    16    1.75
   37     6    1.50
   38     1    1.20
   39     1    1.20
   40     6    1.50
   41     1    1.20
   42     1    1.20
   43    16    1.75
   44     6    1.50
   45     1    1.20
   46     1    1.20
   47     6    1.50
   48     1    1.20
   49     1    1.20
   50     1    1.20
 Generate VDW surfaces: Layer= 4 Dens= 1 Start= 1.400 Inc= 0.200
            Electrostatic Properties Using The SCF Density.


       Atomic Center    1 is at  -7.489421 -2.056716  3.039089
       Atomic Center    2 is at  -7.317680 -2.102612  1.969076
       Atomic Center    3 is at  -7.050672 -2.939009  3.492200
       Atomic Center    4 is at  -8.562604 -2.084677  3.203051
       Atomic Center    5 is at  -6.899534 -0.797478  3.659927
       Atomic Center    6 is at  -7.325844  0.090778  3.196207
       Atomic Center    7 is at  -7.141863 -0.762364  4.714499
       Atomic Center    8 is at  -5.501239 -0.749122  3.590044
       Atomic Center    9 is at  -4.952043 -0.396699  2.357297
       Atomic Center   10 is at  -5.366592  0.550513  2.014934
       Atomic Center   11 is at  -5.157435 -1.141779  1.593682
       Atomic Center   12 is at  -3.448270 -0.289764  2.555544
       Atomic Center   13 is at  -3.228664  0.447603  3.322008
       Atomic Center   14 is at  -3.070052 -1.244509  2.895371
       Atomic Center   15 is at  -2.789461  0.014720  1.357659
       Atomic Center   16 is at  -2.660982  1.372831  1.048563
       Atomic Center   17 is at  -2.190166  1.907223  1.869967
       Atomic Center   18 is at  -3.636367  1.823028  0.869543
       Atomic Center   19 is at  -1.819235  1.533559 -0.202465
       Atomic Center   20 is at  -1.917480  2.555318 -0.550609
       Atomic Center   21 is at  -2.198282  0.873620 -0.979276
       Atomic Center   22 is at  -0.452553  1.326311  0.000000
       Atomic Center   23 is at   0.000000  0.000000  0.000000
       Atomic Center   24 is at  -0.347951 -0.503980 -0.901759
       Atomic Center   25 is at  -0.381055 -0.541845  0.854343
       Atomic Center   26 is at   1.518443  0.000000  0.000000
       Atomic Center   27 is at   1.889035  0.592781 -0.827855
       Atomic Center   28 is at   1.865795 -1.016956 -0.144245
       Atomic Center   29 is at   2.312891  0.552003  1.538886
       Atomic Center   30 is at   2.202359  2.367891  1.414076
       Atomic Center   31 is at   2.622855  2.669857  0.462865
       Atomic Center   32 is at   1.168907  2.673103  1.437890
       Atomic Center   33 is at   2.974610  2.991031  2.573404
       Atomic Center   34 is at   4.006329  2.664633  2.578222
       Atomic Center   35 is at   2.542217  2.678854  3.516366
       Atomic Center   36 is at   2.900477  4.806458  2.626791
       Atomic Center   37 is at   3.879790  5.311990  1.180587
       Atomic Center   38 is at   3.797130  6.391718  1.167521
       Atomic Center   39 is at   3.408183  4.945194  0.276910
       Atomic Center   40 is at   5.353253  4.907193  1.163032
       Atomic Center   41 is at   5.451331  3.829590  1.146343
       Atomic Center   42 is at   5.788723  5.286698  0.244361
       Atomic Center   43 is at   6.283841  5.602946  2.563898
       Atomic Center   44 is at   7.987157  5.449836  1.946965
       Atomic Center   45 is at   8.061538  5.948592  0.986829
       Atomic Center   46 is at   8.582617  6.023505  2.647529
       Atomic Center   47 is at   8.518849  4.022069  1.858310
       Atomic Center   48 is at   7.959054  3.428596  1.143611
       Atomic Center   49 is at   9.556648  4.030548  1.536905
       Atomic Center   50 is at   8.463820  3.528134  2.821472
      ESP Fit Center   51 is at  -8.680386 -0.682270  1.989089
      ESP Fit Center   52 is at  -8.680386 -3.431162  1.989089
      ESP Fit Center   53 is at  -7.748242 -3.856858  1.989089
      ESP Fit Center   54 is at  -6.733925 -3.711021  1.989089
      ESP Fit Center   55 is at  -7.040229 -0.529111  1.449927
      ESP Fit Center   56 is at  -8.116567 -0.718898  1.449927
      ESP Fit Center   57 is at  -8.819097 -1.556141  1.449927
      ESP Fit Center   58 is at  -8.819097 -2.649083  1.449927
      ESP Fit Center   59 is at  -8.116567 -3.486326  1.449927
      ESP Fit Center   60 is at  -7.040229 -3.676113  1.449927
      ESP Fit Center   61 is at  -6.093713 -3.129642  1.449927
      ESP Fit Center   62 is at  -6.330201 -2.102612  0.609927
      ESP Fit Center   63 is at  -7.012532 -1.163463  0.609927
      ESP Fit Center   64 is at  -8.116567 -1.522186  0.609927
      ESP Fit Center   65 is at  -8.116567 -2.683038  0.609927
      ESP Fit Center   66 is at  -7.012532 -3.041761  0.609927
      ESP Fit Center   67 is at  -7.317680 -2.102612  0.289076
      ESP Fit Center   68 is at  -7.050672 -2.939009  5.172200
      ESP Fit Center   69 is at  -6.063193 -2.939009  4.851349
      ESP Fit Center   70 is at  -7.849559 -3.519435  4.851349
      ESP Fit Center   71 is at  -6.745524 -3.878158  4.851349
      ESP Fit Center   72 is at  -5.452897 -2.939009  4.011349
      ESP Fit Center   73 is at  -7.849559 -4.322723  4.011349
      ESP Fit Center   74 is at  -6.773221 -4.512510  4.011349
      ESP Fit Center   75 is at  -5.826705 -3.966039  4.011349
      ESP Fit Center   76 is at  -5.452897 -2.939009  2.973051
      ESP Fit Center   77 is at  -7.849559 -4.322723  2.973051
      ESP Fit Center   78 is at  -6.773221 -4.512510  2.973051
      ESP Fit Center   79 is at  -5.826705 -3.966039  2.973051
      ESP Fit Center   80 is at  -6.745524 -3.878158  2.133051
      ESP Fit Center   81 is at  -8.562604 -2.084677  4.883051
      ESP Fit Center   82 is at  -9.361491 -1.504251  4.562200
      ESP Fit Center   83 is at  -9.361491 -2.665103  4.562200
      ESP Fit Center   84 is at  -9.361491 -0.700963  3.722200
      ESP Fit Center   85 is at -10.064021 -1.538206  3.722200
      ESP Fit Center   86 is at -10.064021 -2.631148  3.722200
      ESP Fit Center   87 is at  -9.361491 -3.468391  3.722200
      ESP Fit Center   88 is at  -9.361491 -0.700963  2.683902
      ESP Fit Center   89 is at -10.064021 -1.538206  2.683902
      ESP Fit Center   90 is at -10.064021 -2.631148  2.683902
      ESP Fit Center   91 is at  -9.361491 -3.468391  2.683902
      ESP Fit Center   92 is at  -9.361491 -1.504251  1.843902
      ESP Fit Center   93 is at  -9.361491 -2.665103  1.843902
      ESP Fit Center   94 is at  -6.144038  0.856827  4.709927
      ESP Fit Center   95 is at  -7.158355  1.002664  4.709927
      ESP Fit Center   96 is at  -8.938512 -0.294915  3.659927
      ESP Fit Center   97 is at  -8.124731  0.671204  4.555356
      ESP Fit Center   98 is at  -7.048393  1.664279  3.715356
      ESP Fit Center   99 is at  -8.124731  1.474492  3.715356
      ESP Fit Center  100 is at  -8.827261  0.637249  3.715356
      ESP Fit Center  101 is at  -7.048393  1.664279  2.677058
      ESP Fit Center  102 is at  -8.124731  1.474492  2.677058
      ESP Fit Center  103 is at  -8.827261  0.637249  2.677058
      ESP Fit Center  104 is at  -8.827261 -0.455693  2.677058
      ESP Fit Center  105 is at  -7.020696  1.029927  1.837058
      ESP Fit Center  106 is at  -8.124731  0.671204  1.837058
      ESP Fit Center  107 is at  -7.325844  0.090778  1.516207
      ESP Fit Center  108 is at  -7.141863 -0.762364  6.394499
      ESP Fit Center  109 is at  -6.154384 -0.762364  6.073648
      ESP Fit Center  110 is at  -6.836715  0.176785  6.073648
      ESP Fit Center  111 is at  -7.940750 -0.181938  6.073648
      ESP Fit Center  112 is at  -7.940750 -1.342790  6.073648
      ESP Fit Center  113 is at  -6.836715 -1.701513  6.073648
      ESP Fit Center  114 is at  -5.917896  0.264666  5.233648
      ESP Fit Center  115 is at  -6.864412  0.811137  5.233648
      ESP Fit Center  116 is at  -7.940750  0.621350  5.233648
      ESP Fit Center  117 is at  -8.643280 -0.215893  5.233648
      ESP Fit Center  118 is at  -8.643280 -1.308835  5.233648
      ESP Fit Center  119 is at  -7.940750 -2.146078  5.233648
      ESP Fit Center  120 is at  -6.864412 -2.335865  5.233648
      ESP Fit Center  121 is at  -5.917896 -1.789394  5.233648
      ESP Fit Center  122 is at  -5.501239 -0.749122  5.550044
      ESP Fit Center  123 is at  -4.521239 -0.749122  5.287454
      ESP Fit Center  124 is at  -5.011239  0.099583  5.287454
      ESP Fit Center  125 is at  -5.011239 -1.597827  5.287454
      ESP Fit Center  126 is at  -4.976711  0.865211  4.570044
      ESP Fit Center  127 is at  -4.976711 -2.363455  4.570044
      ESP Fit Center  128 is at  -4.128006 -1.746834  4.570044
      ESP Fit Center  129 is at  -4.521239 -2.446532  3.590044
      ESP Fit Center  130 is at  -5.061444  1.489662  3.374083
      ESP Fit Center  131 is at  -5.089141  2.124014  2.534083
      ESP Fit Center  132 is at  -6.165479  1.934227  2.534083
      ESP Fit Center  133 is at  -6.165479  1.934227  1.495785
      ESP Fit Center  134 is at  -6.868009  1.096984  1.495785
      ESP Fit Center  135 is at  -6.868009  0.004042  1.495785
      ESP Fit Center  136 is at  -6.165479  1.130939  0.655785
      ESP Fit Center  137 is at  -6.165479 -0.029913  0.655785
      ESP Fit Center  138 is at  -5.366592  0.550513  0.334934
      ESP Fit Center  139 is at  -4.879984 -2.715280  2.112831
      ESP Fit Center  140 is at  -6.658852 -0.595308  1.074533
      ESP Fit Center  141 is at  -5.956322 -2.525493  1.074533
      ESP Fit Center  142 is at  -4.879984 -2.715280  1.074533
      ESP Fit Center  143 is at  -3.933468 -2.168809  1.074533
      ESP Fit Center  144 is at  -4.169956 -1.141779  0.234533
      ESP Fit Center  145 is at  -4.852287 -0.202630  0.234533
      ESP Fit Center  146 is at  -5.956322 -0.561353  0.234533
      ESP Fit Center  147 is at  -5.956322 -1.722205  0.234533
      ESP Fit Center  148 is at  -4.852287 -2.080928  0.234533
      ESP Fit Center  149 is at  -5.157435 -1.141779 -0.086318
      ESP Fit Center  150 is at  -1.629617 -0.289764  3.605544
      ESP Fit Center  151 is at  -4.192940  1.673770  2.555544
      ESP Fit Center  152 is at  -3.707091 -2.089906  1.505544
      ESP Fit Center  153 is at  -3.228664  0.447603  5.002008
      ESP Fit Center  154 is at  -2.241185  0.447603  4.681157
      ESP Fit Center  155 is at  -2.923516  1.386752  4.681157
      ESP Fit Center  156 is at  -4.027551  1.028029  4.681157
      ESP Fit Center  157 is at  -2.923516 -0.491546  4.681157
      ESP Fit Center  158 is at  -1.630889  0.447603  3.841157
      ESP Fit Center  159 is at  -2.004697  1.474633  3.841157
      ESP Fit Center  160 is at  -2.951213  2.021104  3.841157
      ESP Fit Center  161 is at  -4.027551  1.831317  3.841157
      ESP Fit Center  162 is at  -4.027551  1.831317  2.802859
      ESP Fit Center  163 is at  -3.070052 -1.244509  4.575371
      ESP Fit Center  164 is at  -2.082573 -1.244509  4.254520
      ESP Fit Center  165 is at  -3.868939 -1.824935  4.254520
      ESP Fit Center  166 is at  -2.764904 -2.183658  4.254520
      ESP Fit Center  167 is at  -1.472277 -1.244509  3.414520
      ESP Fit Center  168 is at  -3.868939 -2.628223  3.414520
      ESP Fit Center  169 is at  -2.792601 -2.818010  3.414520
      ESP Fit Center  170 is at  -1.846085 -2.271539  3.414520
      ESP Fit Center  171 is at  -1.472277 -1.244509  2.376222
      ESP Fit Center  172 is at  -3.868939 -2.628223  2.376222
      ESP Fit Center  173 is at  -2.792601 -2.818010  2.376222
      ESP Fit Center  174 is at  -1.846085 -2.271539  2.376222
      ESP Fit Center  175 is at  -2.764904 -2.183658  1.536222
      ESP Fit Center  176 is at  -1.092051  0.014720  2.337659
      ESP Fit Center  177 is at  -1.416228 -0.982992  2.337659
      ESP Fit Center  178 is at  -2.789461 -1.945280  1.357659
      ESP Fit Center  179 is at  -1.809461 -1.682690  1.357659
      ESP Fit Center  180 is at  -3.313989 -1.599613  0.377659
      ESP Fit Center  181 is at  -2.264933 -1.599613  0.377659
      ESP Fit Center  182 is at  -3.769461  0.014720 -0.339751
      ESP Fit Center  183 is at  -3.279461 -0.833985 -0.339751
      ESP Fit Center  184 is at  -2.299461 -0.833985 -0.339751
      ESP Fit Center  185 is at  -2.407855  3.457520  1.048563
      ESP Fit Center  186 is at  -2.190166  1.907223  3.549967
      ESP Fit Center  187 is at  -1.202687  1.907223  3.229116
      ESP Fit Center  188 is at  -1.885018  2.846372  3.229116
      ESP Fit Center  189 is at  -2.989053  2.487649  3.229116
      ESP Fit Center  190 is at  -0.592391  1.907223  2.389116
      ESP Fit Center  191 is at  -0.966199  2.934253  2.389116
      ESP Fit Center  192 is at  -1.912715  3.480724  2.389116
      ESP Fit Center  193 is at  -2.989053  3.290937  2.389116
      ESP Fit Center  194 is at  -0.966199  0.880193  2.389116
      ESP Fit Center  195 is at  -0.966199  2.934253  1.350818
      ESP Fit Center  196 is at  -1.912715  3.480724  1.350818
      ESP Fit Center  197 is at  -4.435254  2.403454  2.228692
      ESP Fit Center  198 is at  -3.358916  3.396529  1.388692
      ESP Fit Center  199 is at  -4.435254  3.206742  1.388692
      ESP Fit Center  200 is at  -5.137784  2.369499  1.388692
      ESP Fit Center  201 is at  -3.358916  3.396529  0.350394
      ESP Fit Center  202 is at  -4.435254  3.206742  0.350394
      ESP Fit Center  203 is at  -5.137784  2.369499  0.350394
      ESP Fit Center  204 is at  -5.137784  1.276557  0.350394
      ESP Fit Center  205 is at  -4.435254  0.439314  0.350394
      ESP Fit Center  206 is at  -4.435254  2.403454 -0.489606
      ESP Fit Center  207 is at  -4.435254  1.242602 -0.489606
      ESP Fit Center  208 is at  -1.063739  3.187864  0.847535
      ESP Fit Center  209 is at  -3.564220  2.045933 -1.252465
      ESP Fit Center  210 is at  -0.769235  1.533559 -2.021118
      ESP Fit Center  211 is at  -1.612332  3.494467  0.808540
      ESP Fit Center  212 is at  -0.693513  3.582348 -0.031460
      ESP Fit Center  213 is at  -1.640029  4.128819 -0.031460
      ESP Fit Center  214 is at  -2.716367  3.939032 -0.031460
      ESP Fit Center  215 is at  -0.693513  3.582348 -1.069758
      ESP Fit Center  216 is at  -1.640029  4.128819 -1.069758
      ESP Fit Center  217 is at  -2.716367  3.939032 -1.069758
      ESP Fit Center  218 is at  -3.418897  3.101789 -1.069758
      ESP Fit Center  219 is at  -0.930001  2.555318 -1.909758
      ESP Fit Center  220 is at  -1.612332  3.494467 -1.909758
      ESP Fit Center  221 is at  -2.716367  3.135744 -1.909758
      ESP Fit Center  222 is at  -1.917480  2.555318 -2.230609
      ESP Fit Center  223 is at  -3.699699  0.327149 -0.460127
      ESP Fit Center  224 is at  -3.699699  1.420091 -1.498425
      ESP Fit Center  225 is at  -3.699699  0.327149 -1.498425
      ESP Fit Center  226 is at  -2.997169 -0.510094 -1.498425
      ESP Fit Center  227 is at  -1.920831 -0.699881 -1.498425
      ESP Fit Center  228 is at  -1.210803  0.873620 -2.338425
      ESP Fit Center  229 is at  -1.893134  1.812769 -2.338425
      ESP Fit Center  230 is at  -2.997169  1.454046 -2.338425
      ESP Fit Center  231 is at  -2.997169  0.293194 -2.338425
      ESP Fit Center  232 is at  -1.893134 -0.065529 -2.338425
      ESP Fit Center  233 is at  -2.198282  0.873620 -2.659276
      ESP Fit Center  234 is at  -0.452553  1.326311  1.960000
      ESP Fit Center  235 is at  -0.452553  3.286311  0.000000
      ESP Fit Center  236 is at   0.920680  2.324023 -0.980000
      ESP Fit Center  237 is at   0.071975  2.940644 -0.980000
      ESP Fit Center  238 is at   0.527447  1.326311 -1.697410
      ESP Fit Center  239 is at   0.037447  2.175016 -1.697410
      ESP Fit Center  240 is at  -0.452553  1.326311 -1.960000
      ESP Fit Center  241 is at  -1.571873 -1.392558  0.000000
      ESP Fit Center  242 is at  -0.744670 -1.963534  0.000000
      ESP Fit Center  243 is at   0.253127 -2.084689  0.000000
      ESP Fit Center  244 is at   0.525000  0.909327 -1.818653
      ESP Fit Center  245 is at  -1.849368 -1.050451 -0.382610
      ESP Fit Center  246 is at  -1.146838 -1.887694 -0.382610
      ESP Fit Center  247 is at  -0.070500 -2.077481 -0.382610
      ESP Fit Center  248 is at  -1.849368 -1.050451 -1.420908
      ESP Fit Center  249 is at  -1.146838 -1.887694 -1.420908
      ESP Fit Center  250 is at  -0.070500 -2.077481 -1.420908
      ESP Fit Center  251 is at   0.876016 -1.531010 -1.420908
      ESP Fit Center  252 is at   0.639528 -0.503980 -2.260908
      ESP Fit Center  253 is at  -0.042803  0.435169 -2.260908
      ESP Fit Center  254 is at  -1.146838  0.076446 -2.260908
      ESP Fit Center  255 is at  -1.146838 -1.084406 -2.260908
      ESP Fit Center  256 is at  -0.042803 -1.443129 -2.260908
      ESP Fit Center  257 is at  -0.347951 -0.503980 -2.581759
      ESP Fit Center  258 is at  -0.381055 -0.541845  2.534343
      ESP Fit Center  259 is at  -0.075907  0.397304  2.213492
      ESP Fit Center  260 is at  -1.179942 -1.122271  2.213492
      ESP Fit Center  261 is at  -0.075907 -1.480994  2.213492
      ESP Fit Center  262 is at  -1.179942 -1.925559  1.373492
      ESP Fit Center  263 is at  -0.103604 -2.115346  1.373492
      ESP Fit Center  264 is at   0.842912 -1.568875  1.373492
      ESP Fit Center  265 is at  -1.179942 -1.925559  0.335194
      ESP Fit Center  266 is at  -0.103604 -2.115346  0.335194
      ESP Fit Center  267 is at   2.043443 -0.909327 -1.818653
      ESP Fit Center  268 is at   3.486810  0.592781 -1.347004
      ESP Fit Center  269 is at   3.113002  1.619811 -1.347004
      ESP Fit Center  270 is at   2.166486  2.166282 -1.347004
      ESP Fit Center  271 is at   1.090148  1.976495 -1.347004
      ESP Fit Center  272 is at   3.113002 -0.434249 -1.347004
      ESP Fit Center  273 is at   2.876514  0.592781 -2.187004
      ESP Fit Center  274 is at   2.194183  1.531930 -2.187004
      ESP Fit Center  275 is at   1.090148  1.173207 -2.187004
      ESP Fit Center  276 is at   1.090148  0.012355 -2.187004
      ESP Fit Center  277 is at   2.194183 -0.346368 -2.187004
      ESP Fit Center  278 is at   1.889035  0.592781 -2.507855
      ESP Fit Center  279 is at   2.170943 -1.956105  1.214904
      ESP Fit Center  280 is at   1.066908 -2.400670  0.374904
      ESP Fit Center  281 is at   2.143246 -2.590457  0.374904
      ESP Fit Center  282 is at   3.089762 -2.043986  0.374904
      ESP Fit Center  283 is at   3.463570 -1.016956 -0.663394
      ESP Fit Center  284 is at   1.066908 -2.400670 -0.663394
      ESP Fit Center  285 is at   2.143246 -2.590457 -0.663394
      ESP Fit Center  286 is at   3.089762 -2.043986 -0.663394
      ESP Fit Center  287 is at   2.853274 -1.016956 -1.503394
      ESP Fit Center  288 is at   1.066908 -1.597382 -1.503394
      ESP Fit Center  289 is at   2.170943 -1.956105 -1.503394
      ESP Fit Center  290 is at   1.865795 -1.016956 -1.824245
      ESP Fit Center  291 is at   2.312891  0.552003  3.988886
      ESP Fit Center  292 is at   3.375906  0.552003  3.746260
      ESP Fit Center  293 is at   1.249876  0.552003  3.746260
      ESP Fit Center  294 is at   1.781383 -0.368595  3.746260
      ESP Fit Center  295 is at   2.844399 -0.368595  3.746260
      ESP Fit Center  296 is at   4.228378  0.552003  3.066436
      ESP Fit Center  297 is at   0.474995  1.091658  3.066436
      ESP Fit Center  298 is at   0.474995  0.012348  3.066436
      ESP Fit Center  299 is at   1.058514 -0.895626  3.066436
      ESP Fit Center  300 is at   2.040289 -1.343987  3.066436
      ESP Fit Center  301 is at   3.108613 -1.190385  3.066436
      ESP Fit Center  302 is at   3.924301 -0.483588  3.066436
      ESP Fit Center  303 is at   4.701464  0.552003  2.084062
      ESP Fit Center  304 is at   0.823640 -1.315459  2.084062
      ESP Fit Center  305 is at   1.781383 -1.776684  2.084062
      ESP Fit Center  306 is at   2.844399 -1.776684  2.084062
      ESP Fit Center  307 is at   3.802142 -1.315459  2.084062
      ESP Fit Center  308 is at   4.464921 -0.484360  2.084062
      ESP Fit Center  309 is at   4.701464  0.552003  0.993710
      ESP Fit Center  310 is at   4.464921  1.588366  0.993710
      ESP Fit Center  311 is at   2.844399 -1.776684  0.993710
      ESP Fit Center  312 is at   3.802142 -1.315459  0.993710
      ESP Fit Center  313 is at   4.464921 -0.484360  0.993710
      ESP Fit Center  314 is at   4.228378  0.552003  0.011336
      ESP Fit Center  315 is at   3.924301  1.587594  0.011336
      ESP Fit Center  316 is at   3.924301 -0.483588  0.011336
      ESP Fit Center  317 is at   4.220630  2.669857 -0.056284
      ESP Fit Center  318 is at   1.823968  4.053571 -0.056284
      ESP Fit Center  319 is at   3.846822  1.642827 -0.056284
      ESP Fit Center  320 is at   3.610334  2.669857 -0.896284
      ESP Fit Center  321 is at   2.928003  3.609006 -0.896284
      ESP Fit Center  322 is at   1.823968  3.250283 -0.896284
      ESP Fit Center  323 is at   2.622855  2.669857 -1.217135
      ESP Fit Center  324 is at   0.370020  3.253529  2.797039
      ESP Fit Center  325 is at   0.370020  2.092677  2.797039
      ESP Fit Center  326 is at   0.370020  4.056817  1.957039
      ESP Fit Center  327 is at  -0.332510  3.219574  1.957039
      ESP Fit Center  328 is at  -0.332510  2.126632  1.957039
      ESP Fit Center  329 is at   0.370020  4.056817  0.918741
      ESP Fit Center  330 is at  -0.332510  3.219574  0.918741
      ESP Fit Center  331 is at   0.370020  3.253529  0.078741
      ESP Fit Center  332 is at   4.024610  2.991031  4.392057
      ESP Fit Center  333 is at   3.730106  1.336726  3.623404
      ESP Fit Center  334 is at   4.993808  2.664633  3.937371
      ESP Fit Center  335 is at   4.311477  1.725484  3.937371
      ESP Fit Center  336 is at   5.604104  2.664633  3.097371
      ESP Fit Center  337 is at   4.283780  1.091132  3.097371
      ESP Fit Center  338 is at   5.230296  1.637603  3.097371
      ESP Fit Center  339 is at   5.230296  1.637603  2.059073
      ESP Fit Center  340 is at   2.542217  2.678854  5.196366
      ESP Fit Center  341 is at   3.529696  2.678854  4.875515
      ESP Fit Center  342 is at   2.847365  3.618003  4.875515
      ESP Fit Center  343 is at   1.743330  3.259280  4.875515
      ESP Fit Center  344 is at   1.743330  2.098428  4.875515
      ESP Fit Center  345 is at   2.847365  1.739705  4.875515
      ESP Fit Center  346 is at   1.040800  3.225325  4.035515
      ESP Fit Center  347 is at   1.040800  2.132383  4.035515
      ESP Fit Center  348 is at   1.743330  1.295140  4.035515
      ESP Fit Center  349 is at   2.819668  1.105353  4.035515
      ESP Fit Center  350 is at   3.766184  1.651824  4.035515
      ESP Fit Center  351 is at   2.900477  4.806458  5.076791
      ESP Fit Center  352 is at   3.963492  4.806458  4.834165
      ESP Fit Center  353 is at   3.431985  5.727056  4.834165
      ESP Fit Center  354 is at   2.368969  5.727056  4.834165
      ESP Fit Center  355 is at   1.837462  4.806458  4.834165
      ESP Fit Center  356 is at   2.368969  3.885860  4.834165
      ESP Fit Center  357 is at   3.431985  3.885860  4.834165
      ESP Fit Center  358 is at   3.696199  6.548846  4.154341
      ESP Fit Center  359 is at   2.627875  6.702448  4.154341
      ESP Fit Center  360 is at   1.646100  6.254087  4.154341
      ESP Fit Center  361 is at   1.062581  5.346113  4.154341
      ESP Fit Center  362 is at   1.062581  4.266803  4.154341
      ESP Fit Center  363 is at   4.511887  3.770867  4.154341
      ESP Fit Center  364 is at   3.431985  7.135145  3.171967
      ESP Fit Center  365 is at   2.368969  7.135145  3.171967
      ESP Fit Center  366 is at   1.411226  6.673920  3.171967
      ESP Fit Center  367 is at   0.748447  5.842821  3.171967
      ESP Fit Center  368 is at   0.511904  4.806458  3.171967
      ESP Fit Center  369 is at   0.748447  3.770095  3.171967
      ESP Fit Center  370 is at   2.368969  7.135145  2.081615
      ESP Fit Center  371 is at   1.411226  6.673920  2.081615
      ESP Fit Center  372 is at   0.748447  5.842821  2.081615
      ESP Fit Center  373 is at   0.511904  4.806458  2.081615
      ESP Fit Center  374 is at   1.646100  6.254087  1.099241
      ESP Fit Center  375 is at   1.062581  5.346113  1.099241
      ESP Fit Center  376 is at   4.404790  6.221317 -0.638066
      ESP Fit Center  377 is at   4.102278  7.330867  2.526670
      ESP Fit Center  378 is at   4.074581  7.965219  1.686670
      ESP Fit Center  379 is at   2.998243  7.775432  1.686670
      ESP Fit Center  380 is at   5.021097  7.418748  0.648372
      ESP Fit Center  381 is at   4.074581  7.965219  0.648372
      ESP Fit Center  382 is at   2.998243  7.775432  0.648372
      ESP Fit Center  383 is at   2.295713  6.938189  0.648372
      ESP Fit Center  384 is at   4.102278  7.330867 -0.191628
      ESP Fit Center  385 is at   2.998243  6.972144 -0.191628
      ESP Fit Center  386 is at   2.609296  6.328908 -0.242239
      ESP Fit Center  387 is at   1.906766  5.491665 -0.242239
      ESP Fit Center  388 is at   1.906766  4.398723 -0.242239
      ESP Fit Center  389 is at   4.395662  4.945194 -1.082239
      ESP Fit Center  390 is at   3.713331  5.884343 -1.082239
      ESP Fit Center  391 is at   2.609296  5.525620 -1.082239
      ESP Fit Center  392 is at   2.609296  4.364768 -1.082239
      ESP Fit Center  393 is at   3.713331  4.006045 -1.082239
      ESP Fit Center  394 is at   3.408183  4.945194 -1.403090
      ESP Fit Center  395 is at   4.828253  3.997866 -0.655621
      ESP Fit Center  396 is at   5.756479  2.890441  2.505492
      ESP Fit Center  397 is at   5.728782  2.256089  1.665492
      ESP Fit Center  398 is at   4.652444  2.445876  0.627194
      ESP Fit Center  399 is at   5.728782  2.256089  0.627194
      ESP Fit Center  400 is at   4.652444  3.249164 -0.212806
      ESP Fit Center  401 is at   5.756479  2.890441 -0.212806
      ESP Fit Center  402 is at   7.012690  6.313728 -0.274788
      ESP Fit Center  403 is at   6.066174  6.860199 -0.274788
      ESP Fit Center  404 is at   4.989836  6.670412 -0.274788
      ESP Fit Center  405 is at   7.012690  4.259668 -0.274788
      ESP Fit Center  406 is at   6.776202  5.286698 -1.114788
      ESP Fit Center  407 is at   6.093871  6.225847 -1.114788
      ESP Fit Center  408 is at   4.989836  5.867124 -1.114788
      ESP Fit Center  409 is at   4.989836  4.706272 -1.114788
      ESP Fit Center  410 is at   6.093871  4.347549 -1.114788
      ESP Fit Center  411 is at   5.788723  5.286698 -1.435639
      ESP Fit Center  412 is at   6.283841  5.602946  5.013898
      ESP Fit Center  413 is at   7.346856  5.602946  4.771272
      ESP Fit Center  414 is at   6.815349  6.523544  4.771272
      ESP Fit Center  415 is at   5.752333  6.523544  4.771272
      ESP Fit Center  416 is at   5.220826  5.602946  4.771272
      ESP Fit Center  417 is at   5.752333  4.682348  4.771272
      ESP Fit Center  418 is at   6.815349  4.682348  4.771272
      ESP Fit Center  419 is at   7.895251  6.638537  4.091448
      ESP Fit Center  420 is at   7.079563  7.345334  4.091448
      ESP Fit Center  421 is at   6.011239  7.498936  4.091448
      ESP Fit Center  422 is at   5.029464  7.050575  4.091448
      ESP Fit Center  423 is at   4.445945  6.142601  4.091448
      ESP Fit Center  424 is at   5.029464  4.155317  4.091448
      ESP Fit Center  425 is at   6.011239  3.706956  4.091448
      ESP Fit Center  426 is at   7.079563  3.860558  4.091448
      ESP Fit Center  427 is at   7.895251  4.567355  4.091448
      ESP Fit Center  428 is at   7.773092  7.470408  3.109074
      ESP Fit Center  429 is at   6.815349  7.931633  3.109074
      ESP Fit Center  430 is at   5.752333  7.931633  3.109074
      ESP Fit Center  431 is at   4.794590  7.470408  3.109074
      ESP Fit Center  432 is at   5.752333  3.274259  3.109074
      ESP Fit Center  433 is at   6.815349  3.274259  3.109074
      ESP Fit Center  434 is at   6.815349  7.931633  2.018722
      ESP Fit Center  435 is at   5.752333  7.931633  2.018722
      ESP Fit Center  436 is at   4.794590  7.470408  2.018722
      ESP Fit Center  437 is at   7.079563  7.345334  1.036348
      ESP Fit Center  438 is at   6.011239  7.498936  1.036348
      ESP Fit Center  439 is at   8.240284  7.534525  1.946965
      ESP Fit Center  440 is at   8.338989  7.522093  1.505978
      ESP Fit Center  441 is at   9.659313  5.948592  0.467680
      ESP Fit Center  442 is at   9.285505  6.975622  0.467680
      ESP Fit Center  443 is at   8.338989  7.522093  0.467680
      ESP Fit Center  444 is at   7.262651  7.332306  0.467680
      ESP Fit Center  445 is at   9.049017  5.948592 -0.372320
      ESP Fit Center  446 is at   8.366686  6.887741 -0.372320
      ESP Fit Center  447 is at   7.262651  6.529018 -0.372320
      ESP Fit Center  448 is at   8.366686  5.009443 -0.372320
      ESP Fit Center  449 is at   8.061538  5.948592 -0.693171
      ESP Fit Center  450 is at   8.582617  6.023505  4.327529
      ESP Fit Center  451 is at   9.570096  6.023505  4.006678
      ESP Fit Center  452 is at   8.887765  6.962654  4.006678
      ESP Fit Center  453 is at   8.887765  5.084356  4.006678
      ESP Fit Center  454 is at  10.180392  6.023505  3.166678
      ESP Fit Center  455 is at   9.806584  7.050535  3.166678
      ESP Fit Center  456 is at   8.860068  7.597006  3.166678
      ESP Fit Center  457 is at  10.180392  6.023505  2.128380
      ESP Fit Center  458 is at   9.806584  7.050535  2.128380
      ESP Fit Center  459 is at   8.860068  7.597006  2.128380
      ESP Fit Center  460 is at  10.048798  5.005307  2.908310
      ESP Fit Center  461 is at   8.771976  1.937380  1.858310
      ESP Fit Center  462 is at   9.711785  2.293803  1.858310
      ESP Fit Center  463 is at   9.274345  2.367764  0.808310
      ESP Fit Center  464 is at   9.043849  4.931396  0.039657
      ESP Fit Center  465 is at   7.160167  2.044882  1.662760
      ESP Fit Center  466 is at   8.236505  1.855095  1.662760
      ESP Fit Center  467 is at   7.160167  2.044882  0.624462
      ESP Fit Center  468 is at   8.236505  1.855095  0.624462
      ESP Fit Center  469 is at   9.183021  2.401566  0.624462
      ESP Fit Center  470 is at   8.946533  3.428596 -0.215538
      ESP Fit Center  471 is at   8.264202  4.367745 -0.215538
      ESP Fit Center  472 is at   7.160167  4.009022 -0.215538
      ESP Fit Center  473 is at   7.160167  2.848170 -0.215538
      ESP Fit Center  474 is at   8.264202  2.489447 -0.215538
      ESP Fit Center  475 is at   7.959054  3.428596 -0.536389
      ESP Fit Center  476 is at  10.544127  4.030548  2.896054
      ESP Fit Center  477 is at  11.154423  4.030548  2.056054
      ESP Fit Center  478 is at  10.780615  5.057578  2.056054
      ESP Fit Center  479 is at  10.780615  3.003518  2.056054
      ESP Fit Center  480 is at  11.154423  4.030548  1.017756
      ESP Fit Center  481 is at  10.780615  5.057578  1.017756
      ESP Fit Center  482 is at   9.834099  2.457047  1.017756
      ESP Fit Center  483 is at  10.780615  3.003518  1.017756
      ESP Fit Center  484 is at  10.544127  4.030548  0.177756
      ESP Fit Center  485 is at   9.861796  4.969697  0.177756
      ESP Fit Center  486 is at   9.861796  3.091399  0.177756
      ESP Fit Center  487 is at   9.556648  4.030548 -0.143095
      ESP Fit Center  488 is at   8.463820  3.528134  4.501472
      ESP Fit Center  489 is at   9.451299  3.528134  4.180621
      ESP Fit Center  490 is at   8.768968  4.467283  4.180621
      ESP Fit Center  491 is at   7.664933  4.108560  4.180621
      ESP Fit Center  492 is at   7.664933  2.947708  4.180621
      ESP Fit Center  493 is at   8.768968  2.588985  4.180621
      ESP Fit Center  494 is at  10.061595  3.528134  3.340621
      ESP Fit Center  495 is at   6.962403  2.981663  3.340621
      ESP Fit Center  496 is at   7.664933  2.144420  3.340621
      ESP Fit Center  497 is at   8.741271  1.954633  3.340621
      ESP Fit Center  498 is at   9.687787  2.501104  3.340621
      ESP Fit Center  499 is at   7.664933  2.144420  2.302323
      ESP Fit Center  500 is at   8.741271  1.954633  2.302323
      ESP Fit Center  501 is at  -8.530742 -2.056716  5.201414
      ESP Fit Center  502 is at  -8.010081 -2.958526  5.201414
      ESP Fit Center  503 is at  -8.718199 -3.474801  4.535465
      ESP Fit Center  504 is at  -8.948279 -3.886066  2.505039
      ESP Fit Center  505 is at  -8.010081 -4.337879  2.505039
      ESP Fit Center  506 is at  -5.381310 -3.071929  2.505039
      ESP Fit Center  507 is at  -8.718199 -0.638631  1.542713
      ESP Fit Center  508 is at  -8.718199 -3.474801  1.542713
      ESP Fit Center  509 is at  -7.831504 -0.521225  1.009076
      ESP Fit Center  510 is at  -8.662888 -1.125261  1.009076
      ESP Fit Center  511 is at  -8.980449 -2.102612  1.009076
      ESP Fit Center  512 is at  -8.662888 -3.079963  1.009076
      ESP Fit Center  513 is at  -7.831504 -3.683999  1.009076
      ESP Fit Center  514 is at  -6.803856 -3.683999  1.009076
      ESP Fit Center  515 is at  -5.972472 -3.079963  1.009076
      ESP Fit Center  516 is at  -6.357680 -2.102612  0.306307
      ESP Fit Center  517 is at  -6.837680 -1.271228  0.306307
      ESP Fit Center  518 is at  -7.797680 -1.271228  0.306307
      ESP Fit Center  519 is at  -8.277680 -2.102612  0.306307
      ESP Fit Center  520 is at  -7.797680 -2.933996  0.306307
      ESP Fit Center  521 is at  -6.837680 -2.933996  0.306307
      ESP Fit Center  522 is at  -7.317680 -2.102612  0.049076
      ESP Fit Center  523 is at  -7.050672 -2.939009  5.412200
      ESP Fit Center  524 is at  -6.090672 -2.939009  5.154969
      ESP Fit Center  525 is at  -7.530672 -3.770393  5.154969
      ESP Fit Center  526 is at  -6.570672 -3.770393  5.154969
      ESP Fit Center  527 is at  -5.387903 -2.939009  4.452200
      ESP Fit Center  528 is at  -8.395880 -3.916360  4.452200
      ESP Fit Center  529 is at  -7.564496 -4.520396  4.452200
      ESP Fit Center  530 is at  -6.536848 -4.520396  4.452200
      ESP Fit Center  531 is at  -5.705464 -3.916360  4.452200
      ESP Fit Center  532 is at  -8.010672 -4.601778  3.492200
      ESP Fit Center  533 is at  -7.050672 -4.859009  3.492200
      ESP Fit Center  534 is at  -6.090672 -4.601778  3.492200
      ESP Fit Center  535 is at  -5.387903 -3.899009  3.492200
      ESP Fit Center  536 is at  -7.564496 -4.520396  2.532200
      ESP Fit Center  537 is at  -6.536848 -4.520396  2.532200
      ESP Fit Center  538 is at  -5.705464 -3.916360  2.532200
      ESP Fit Center  539 is at  -9.042604 -1.253293  4.865820
      ESP Fit Center  540 is at  -9.522604 -2.084677  4.865820
      ESP Fit Center  541 is at  -9.042604 -2.916061  4.865820
      ESP Fit Center  542 is at  -9.907812 -1.107326  4.163051
      ESP Fit Center  543 is at -10.225373 -2.084677  4.163051
      ESP Fit Center  544 is at  -9.907812 -3.062028  4.163051
      ESP Fit Center  545 is at  -9.076428 -3.666064  4.163051
      ESP Fit Center  546 is at  -9.522604 -0.421908  3.203051
      ESP Fit Center  547 is at -10.225373 -1.124677  3.203051
      ESP Fit Center  548 is at -10.482604 -2.084677  3.203051
      ESP Fit Center  549 is at -10.225373 -3.044677  3.203051
      ESP Fit Center  550 is at  -9.522604 -3.747446  3.203051
      ESP Fit Center  551 is at  -9.907812 -1.107326  2.243051
      ESP Fit Center  552 is at -10.225373 -2.084677  2.243051
      ESP Fit Center  553 is at  -9.907812 -3.062028  2.243051
      ESP Fit Center  554 is at  -9.522604 -2.084677  1.540282
      ESP Fit Center  555 is at  -6.120051  0.909351  5.156303
      ESP Fit Center  556 is at  -6.120051 -2.504307  5.156303
      ESP Fit Center  557 is at  -6.378874  1.483685  4.193977
      ESP Fit Center  558 is at  -9.007645  0.217735  4.193977
      ESP Fit Center  559 is at  -6.812020  1.672165  4.156207
      ESP Fit Center  560 is at  -7.839668  1.672165  4.156207
      ESP Fit Center  561 is at  -8.671052  1.068129  4.156207
      ESP Fit Center  562 is at  -6.365844  1.753547  3.196207
      ESP Fit Center  563 is at  -7.325844  2.010778  3.196207
      ESP Fit Center  564 is at  -8.285844  1.753547  3.196207
      ESP Fit Center  565 is at  -8.988613  1.050778  3.196207
      ESP Fit Center  566 is at  -9.245844  0.090778  3.196207
      ESP Fit Center  567 is at  -7.839668  1.672165  2.236207
      ESP Fit Center  568 is at  -8.671052  1.068129  2.236207
      ESP Fit Center  569 is at  -8.988613  0.090778  2.236207
      ESP Fit Center  570 is at  -7.805844  0.922162  1.533438
      ESP Fit Center  571 is at  -8.285844  0.090778  1.533438
      ESP Fit Center  572 is at  -7.325844  0.090778  1.276207
      ESP Fit Center  573 is at  -7.141863 -0.762364  6.634499
      ESP Fit Center  574 is at  -6.181863 -0.762364  6.377268
      ESP Fit Center  575 is at  -6.661863  0.069020  6.377268
      ESP Fit Center  576 is at  -7.621863  0.069020  6.377268
      ESP Fit Center  577 is at  -8.101863 -0.762364  6.377268
      ESP Fit Center  578 is at  -7.621863 -1.593748  6.377268
      ESP Fit Center  579 is at  -6.661863 -1.593748  6.377268
      ESP Fit Center  580 is at  -5.796655  0.214987  5.674499
      ESP Fit Center  581 is at  -6.628039  0.819023  5.674499
      ESP Fit Center  582 is at  -7.655687  0.819023  5.674499
      ESP Fit Center  583 is at  -8.487071  0.214987  5.674499
      ESP Fit Center  584 is at  -8.804632 -0.762364  5.674499
      ESP Fit Center  585 is at  -8.487071 -1.739715  5.674499
      ESP Fit Center  586 is at  -7.655687 -2.343751  5.674499
      ESP Fit Center  587 is at  -6.628039 -2.343751  5.674499
      ESP Fit Center  588 is at  -5.796655 -1.739715  5.674499
      ESP Fit Center  589 is at  -9.061863 -0.762364  4.714499
      ESP Fit Center  590 is at  -5.501239 -0.749122  5.830044
      ESP Fit Center  591 is at  -4.529339 -0.749122  5.608214
      ESP Fit Center  592 is at  -5.015289  0.092568  5.608214
      ESP Fit Center  593 is at  -5.015289 -1.590812  5.608214
      ESP Fit Center  594 is at  -3.749936 -0.749122  4.986661
      ESP Fit Center  595 is at  -4.960057  0.916466  4.986661
      ESP Fit Center  596 is at  -4.960057 -2.414710  4.986661
      ESP Fit Center  597 is at  -4.084405 -1.778512  4.986661
      ESP Fit Center  598 is at  -5.238006  1.418794  4.088491
      ESP Fit Center  599 is at  -4.260677 -2.546386  4.088491
      ESP Fit Center  600 is at  -5.219082  1.460598  3.853673
      ESP Fit Center  601 is at  -4.431383 -2.677862  2.891347
      ESP Fit Center  602 is at  -4.852768  2.131900  2.974934
      ESP Fit Center  603 is at  -5.880416  2.131900  2.974934
      ESP Fit Center  604 is at  -5.366592  2.470513  2.014934
      ESP Fit Center  605 is at  -6.326592  2.213282  2.014934
      ESP Fit Center  606 is at  -5.880416  2.131900  1.054934
      ESP Fit Center  607 is at  -6.711800  1.527864  1.054934
      ESP Fit Center  608 is at  -7.029361  0.550513  1.054934
      ESP Fit Center  609 is at  -5.846592  1.381897  0.352165
      ESP Fit Center  610 is at  -6.326592  0.550513  0.352165
      ESP Fit Center  611 is at  -5.366592  0.550513  0.094934
      ESP Fit Center  612 is at  -5.157435 -3.061779  1.593682
      ESP Fit Center  613 is at  -4.197435 -2.804548  1.593682
      ESP Fit Center  614 is at  -5.671259 -2.723166  0.633682
      ESP Fit Center  615 is at  -4.643611 -2.723166  0.633682
      ESP Fit Center  616 is at  -3.812227 -2.119130  0.633682
      ESP Fit Center  617 is at  -4.197435 -1.141779 -0.069087
      ESP Fit Center  618 is at  -4.677435 -0.310395 -0.069087
      ESP Fit Center  619 is at  -5.637435 -0.310395 -0.069087
      ESP Fit Center  620 is at  -6.117435 -1.141779 -0.069087
      ESP Fit Center  621 is at  -5.637435 -1.973163 -0.069087
      ESP Fit Center  622 is at  -4.677435 -1.973163 -0.069087
      ESP Fit Center  623 is at  -5.157435 -1.141779 -0.326318
      ESP Fit Center  624 is at  -1.571874 -0.289764  4.051920
      ESP Fit Center  625 is at  -1.108443 -0.289764  3.089594
      ESP Fit Center  626 is at  -3.228664  0.447603  5.242008
      ESP Fit Center  627 is at  -2.268664  0.447603  4.984777
      ESP Fit Center  628 is at  -2.748664  1.278987  4.984777
      ESP Fit Center  629 is at  -3.708664  1.278987  4.984777
      ESP Fit Center  630 is at  -4.188664  0.447603  4.984777
      ESP Fit Center  631 is at  -3.708664 -0.383781  4.984777
      ESP Fit Center  632 is at  -2.748664 -0.383781  4.984777
      ESP Fit Center  633 is at  -1.565895  0.447603  4.282008
      ESP Fit Center  634 is at  -1.883456  1.424954  4.282008
      ESP Fit Center  635 is at  -2.714840  2.028990  4.282008
      ESP Fit Center  636 is at  -3.742488  2.028990  4.282008
      ESP Fit Center  637 is at  -4.573872  1.424954  4.282008
      ESP Fit Center  638 is at  -4.188664  2.110372  3.322008
      ESP Fit Center  639 is at  -3.070052 -1.244509  4.815371
      ESP Fit Center  640 is at  -2.110052 -1.244509  4.558140
      ESP Fit Center  641 is at  -3.550052 -2.075893  4.558140
      ESP Fit Center  642 is at  -2.590052 -2.075893  4.558140
      ESP Fit Center  643 is at  -1.407283 -1.244509  3.855371
      ESP Fit Center  644 is at  -3.583876 -2.825896  3.855371
      ESP Fit Center  645 is at  -2.556228 -2.825896  3.855371
      ESP Fit Center  646 is at  -1.724844 -2.221860  3.855371
      ESP Fit Center  647 is at  -1.150052 -1.244509  2.895371
      ESP Fit Center  648 is at  -4.030052 -2.907278  2.895371
      ESP Fit Center  649 is at  -3.070052 -3.164509  2.895371
      ESP Fit Center  650 is at  -2.110052 -2.907278  2.895371
      ESP Fit Center  651 is at  -1.407283 -2.204509  2.895371
      ESP Fit Center  652 is at  -3.583876 -2.825896  1.935371
      ESP Fit Center  653 is at  -2.556228 -2.825896  1.935371
      ESP Fit Center  654 is at  -1.724844 -2.221860  1.935371
      ESP Fit Center  655 is at  -1.038158  0.014720  2.754276
      ESP Fit Center  656 is at  -3.563861 -2.027204  0.859212
      ESP Fit Center  657 is at  -2.526228 -2.153196  0.859212
      ESP Fit Center  658 is at  -4.540764  0.014720 -0.038958
      ESP Fit Center  659 is at  -3.330643 -1.650868 -0.038958
      ESP Fit Center  660 is at  -2.248279 -1.650868 -0.038958
      ESP Fit Center  661 is at  -3.275411 -0.826970 -0.660511
      ESP Fit Center  662 is at  -3.889760  2.790916  2.544939
      ESP Fit Center  663 is at  -3.181642  3.653994  1.582613
      ESP Fit Center  664 is at  -1.230166  1.907223  3.532736
      ESP Fit Center  665 is at  -1.710166  2.738607  3.532736
      ESP Fit Center  666 is at  -2.670166  2.738607  3.532736
      ESP Fit Center  667 is at  -0.527397  1.907223  2.829967
      ESP Fit Center  668 is at  -0.844958  2.884574  2.829967
      ESP Fit Center  669 is at  -1.676342  3.488610  2.829967
      ESP Fit Center  670 is at  -2.703990  3.488610  2.829967
      ESP Fit Center  671 is at  -3.535374  2.884574  2.829967
      ESP Fit Center  672 is at  -0.844958  0.929872  2.829967
      ESP Fit Center  673 is at  -1.230166  3.569992  1.869967
      ESP Fit Center  674 is at  -2.190166  3.827223  1.869967
      ESP Fit Center  675 is at  -4.116367  2.654412  2.532312
      ESP Fit Center  676 is at  -4.150191  3.404415  1.829543
      ESP Fit Center  677 is at  -4.981575  2.800379  1.829543
      ESP Fit Center  678 is at  -3.636367  3.743028  0.869543
      ESP Fit Center  679 is at  -4.596367  3.485797  0.869543
      ESP Fit Center  680 is at  -5.299136  2.783028  0.869543
      ESP Fit Center  681 is at  -4.150191  3.404415 -0.090457
      ESP Fit Center  682 is at  -4.981575  2.800379 -0.090457
      ESP Fit Center  683 is at  -5.299136  1.823028 -0.090457
      ESP Fit Center  684 is at  -4.981575  0.845677 -0.090457
      ESP Fit Center  685 is at  -4.116367  2.654412 -0.793226
      ESP Fit Center  686 is at  -4.596367  1.823028 -0.793226
      ESP Fit Center  687 is at  -3.619623  2.062201 -1.698841
      ESP Fit Center  688 is at  -0.777914  1.533559 -2.364790
      ESP Fit Center  689 is at  -1.298575  2.435369 -2.364790
      ESP Fit Center  690 is at  -0.572272  3.532669  0.409391
      ESP Fit Center  691 is at  -1.403656  4.136705  0.409391
      ESP Fit Center  692 is at  -2.431304  4.136705  0.409391
      ESP Fit Center  693 is at  -0.254711  3.515318 -0.550609
      ESP Fit Center  694 is at  -0.957480  4.218087 -0.550609
      ESP Fit Center  695 is at  -1.917480  4.475318 -0.550609
      ESP Fit Center  696 is at  -2.877480  4.218087 -0.550609
      ESP Fit Center  697 is at  -3.580249  3.515318 -0.550609
      ESP Fit Center  698 is at  -0.572272  3.532669 -1.510609
      ESP Fit Center  699 is at  -1.403656  4.136705 -1.510609
      ESP Fit Center  700 is at  -2.431304  4.136705 -1.510609
      ESP Fit Center  701 is at  -3.262688  3.532669 -1.510609
      ESP Fit Center  702 is at  -3.580249  2.555318 -1.510609
      ESP Fit Center  703 is at  -0.957480  2.555318 -2.213378
      ESP Fit Center  704 is at  -1.437480  3.386702 -2.213378
      ESP Fit Center  705 is at  -2.397480  3.386702 -2.213378
      ESP Fit Center  706 is at  -2.877480  2.555318 -2.213378
      ESP Fit Center  707 is at  -1.917480  2.555318 -2.470609
      ESP Fit Center  708 is at  -4.118282  0.873620 -0.979276
      ESP Fit Center  709 is at  -3.861051 -0.086380 -0.979276
      ESP Fit Center  710 is at  -3.158282 -0.789149 -0.979276
      ESP Fit Center  711 is at  -2.198282 -1.046380 -0.979276
      ESP Fit Center  712 is at  -3.543490  1.850971 -1.939276
      ESP Fit Center  713 is at  -3.861051  0.873620 -1.939276
      ESP Fit Center  714 is at  -3.543490 -0.103731 -1.939276
      ESP Fit Center  715 is at  -2.712106 -0.707767 -1.939276
      ESP Fit Center  716 is at  -1.238282  0.873620 -2.642045
      ESP Fit Center  717 is at  -1.718282  1.705004 -2.642045
      ESP Fit Center  718 is at  -2.678282  1.705004 -2.642045
      ESP Fit Center  719 is at  -3.158282  0.873620 -2.642045
      ESP Fit Center  720 is at  -2.678282  0.042236 -2.642045
      ESP Fit Center  721 is at  -1.718282  0.042236 -2.642045
      ESP Fit Center  722 is at  -2.198282  0.873620 -2.899276
      ESP Fit Center  723 is at   0.788009  3.123575 -0.498447
      ESP Fit Center  724 is at  -0.189320  3.494227 -0.498447
      ESP Fit Center  725 is at   0.964281  2.355701 -1.396617
      ESP Fit Center  726 is at   0.088629  2.991899 -1.396617
      ESP Fit Center  727 is at   0.519347  1.326311 -2.018170
      ESP Fit Center  728 is at   0.033397  2.168001 -2.018170
      ESP Fit Center  729 is at  -0.452553  1.326311 -2.240000
      ESP Fit Center  730 is at   0.520660 -2.281163  0.534050
      ESP Fit Center  731 is at   0.520660  0.901810 -2.162325
      ESP Fit Center  732 is at  -2.010720 -1.463980 -0.901759
      ESP Fit Center  733 is at  -1.307951 -2.166749 -0.901759
      ESP Fit Center  734 is at  -0.347951 -2.423980 -0.901759
      ESP Fit Center  735 is at  -1.693159 -1.481331 -1.861759
      ESP Fit Center  736 is at  -0.861775 -2.085367 -1.861759
      ESP Fit Center  737 is at   0.165873 -2.085367 -1.861759
      ESP Fit Center  738 is at   0.997257 -1.481331 -1.861759
      ESP Fit Center  739 is at   0.612049 -0.503980 -2.564528
      ESP Fit Center  740 is at   0.132049  0.327404 -2.564528
      ESP Fit Center  741 is at  -0.827951  0.327404 -2.564528
      ESP Fit Center  742 is at  -1.307951 -0.503980 -2.564528
      ESP Fit Center  743 is at  -0.827951 -1.335364 -2.564528
      ESP Fit Center  744 is at   0.132049 -1.335364 -2.564528
      ESP Fit Center  745 is at  -0.347951 -0.503980 -2.821759
      ESP Fit Center  746 is at  -0.381055 -0.541845  2.774343
      ESP Fit Center  747 is at  -0.861055  0.289539  2.517112
      ESP Fit Center  748 is at  -0.861055 -1.373229  2.517112
      ESP Fit Center  749 is at   0.098945 -1.373229  2.517112
      ESP Fit Center  750 is at  -0.894879 -2.123232  1.814343
      ESP Fit Center  751 is at   0.132769 -2.123232  1.814343
      ESP Fit Center  752 is at  -1.341055 -2.204614  0.854343
      ESP Fit Center  753 is at  -0.381055 -2.461845  0.854343
      ESP Fit Center  754 is at   0.578945 -2.204614  0.854343
      ESP Fit Center  755 is at   2.039103 -0.901810 -2.162325
      ESP Fit Center  756 is at   3.809035  0.592781 -0.827855
      ESP Fit Center  757 is at   3.551804  1.552781 -0.827855
      ESP Fit Center  758 is at   3.551804  0.592781 -1.787855
      ESP Fit Center  759 is at   3.234243  1.570132 -1.787855
      ESP Fit Center  760 is at   2.402859  2.174168 -1.787855
      ESP Fit Center  761 is at   1.375211  2.174168 -1.787855
      ESP Fit Center  762 is at   3.234243 -0.384570 -1.787855
      ESP Fit Center  763 is at   2.849035  0.592781 -2.490624
      ESP Fit Center  764 is at   2.369035  1.424165 -2.490624
      ESP Fit Center  765 is at   1.409035  1.424165 -2.490624
      ESP Fit Center  766 is at   0.929035  0.592781 -2.490624
      ESP Fit Center  767 is at   1.409035 -0.238603 -2.490624
      ESP Fit Center  768 is at   2.369035 -0.238603 -2.490624
      ESP Fit Center  769 is at   1.889035  0.592781 -2.747855
      ESP Fit Center  770 is at   1.351971 -2.598343  0.815755
      ESP Fit Center  771 is at   2.379619 -2.598343  0.815755
      ESP Fit Center  772 is at   0.905795 -2.679725 -0.144245
      ESP Fit Center  773 is at   1.865795 -2.936956 -0.144245
      ESP Fit Center  774 is at   2.825795 -2.679725 -0.144245
      ESP Fit Center  775 is at   3.528564 -1.976956 -0.144245
      ESP Fit Center  776 is at   3.528564 -1.016956 -1.104245
      ESP Fit Center  777 is at   1.351971 -2.598343 -1.104245
      ESP Fit Center  778 is at   2.379619 -2.598343 -1.104245
      ESP Fit Center  779 is at   3.211003 -1.994307 -1.104245
      ESP Fit Center  780 is at   2.825795 -1.016956 -1.807014
      ESP Fit Center  781 is at   1.385795 -1.848340 -1.807014
      ESP Fit Center  782 is at   2.345795 -1.848340 -1.807014
      ESP Fit Center  783 is at   2.312891  0.552003  4.338886
      ESP Fit Center  784 is at   3.384405  0.552003  4.125749
      ESP Fit Center  785 is at   1.241377  0.552003  4.125749
      ESP Fit Center  786 is at   1.777134 -0.375955  4.125749
      ESP Fit Center  787 is at   2.848648 -0.375955  4.125749
      ESP Fit Center  788 is at   4.292790  0.552003  3.518785
      ESP Fit Center  789 is at   0.598248  1.541952  3.518785
      ESP Fit Center  790 is at   0.332992  0.552003  3.518785
      ESP Fit Center  791 is at   0.598248 -0.437946  3.518785
      ESP Fit Center  792 is at   1.322942 -1.162640  3.518785
      ESP Fit Center  793 is at   2.312891 -1.427896  3.518785
      ESP Fit Center  794 is at   3.302840 -1.162640  3.518785
      ESP Fit Center  795 is at   4.027534 -0.437946  3.518785
      ESP Fit Center  796 is at   4.899754  0.552003  2.610400
      ESP Fit Center  797 is at  -0.217443  1.089842  2.610400
      ESP Fit Center  798 is at   1.019460 -1.688286  2.610400
      ESP Fit Center  799 is at   2.042490 -2.020689  2.610400
      ESP Fit Center  800 is at   3.112276 -1.908250  2.610400
      ESP Fit Center  801 is at   4.043840 -1.370411  2.610400
      ESP Fit Center  802 is at   4.676108 -0.500169  2.610400
      ESP Fit Center  803 is at   5.112891  0.552003  1.538886
      ESP Fit Center  804 is at   1.546635 -2.141109  1.538886
      ESP Fit Center  805 is at   2.571242 -2.236053  1.538886
      ESP Fit Center  806 is at   3.560958 -1.954454  1.538886
      ESP Fit Center  807 is at   4.382116 -1.334345  1.538886
      ESP Fit Center  808 is at   4.923813 -0.459474  1.538886
      ESP Fit Center  809 is at   4.899754  0.552003  0.467372
      ESP Fit Center  810 is at   4.676108  1.604175  0.467372
      ESP Fit Center  811 is at   4.043840 -1.370411  0.467372
      ESP Fit Center  812 is at   4.676108 -0.500169  0.467372
      ESP Fit Center  813 is at   4.292790  0.552003 -0.441013
      ESP Fit Center  814 is at   4.027534  1.541952 -0.441013
      ESP Fit Center  815 is at   4.027534 -0.437946 -0.441013
      ESP Fit Center  816 is at   4.285624  2.669857 -0.497135
      ESP Fit Center  817 is at   1.277647  3.647208 -0.497135
      ESP Fit Center  818 is at   3.968063  1.692506 -0.497135
      ESP Fit Center  819 is at   3.582855  2.669857 -1.199904
      ESP Fit Center  820 is at   3.102855  3.501241 -1.199904
      ESP Fit Center  821 is at   2.142855  3.501241 -1.199904
      ESP Fit Center  822 is at   1.662855  2.669857 -1.199904
      ESP Fit Center  823 is at   2.622855  2.669857 -1.457135
      ESP Fit Center  824 is at   0.208907  2.673103  3.100659
      ESP Fit Center  825 is at  -0.176301  3.650454  2.397890
      ESP Fit Center  826 is at  -0.493862  2.673103  2.397890
      ESP Fit Center  827 is at  -0.176301  1.695752  2.397890
      ESP Fit Center  828 is at   0.208907  4.335872  1.437890
      ESP Fit Center  829 is at  -0.493862  3.633103  1.437890
      ESP Fit Center  830 is at   0.655083  4.254490  0.477890
      ESP Fit Center  831 is at  -0.176301  3.650454  0.477890
      ESP Fit Center  832 is at   0.688907  3.504487 -0.224879
      ESP Fit Center  833 is at   4.015931  2.991031  4.735729
      ESP Fit Center  834 is at   3.754093  1.284202  4.069780
      ESP Fit Center  835 is at   4.966329  2.664633  4.240991
      ESP Fit Center  836 is at   4.486329  1.833249  4.240991
      ESP Fit Center  837 is at   5.669098  2.664633  3.538222
      ESP Fit Center  838 is at   4.520153  1.083246  3.538222
      ESP Fit Center  839 is at   5.351537  1.687282  3.538222
      ESP Fit Center  840 is at   4.966329  1.001864  2.578222
      ESP Fit Center  841 is at   5.669098  1.704633  2.578222
      ESP Fit Center  842 is at   5.351537  1.687282  1.618222
      ESP Fit Center  843 is at   2.542217  2.678854  5.436366
      ESP Fit Center  844 is at   3.502217  2.678854  5.179135
      ESP Fit Center  845 is at   3.022217  3.510238  5.179135
      ESP Fit Center  846 is at   2.062217  3.510238  5.179135
      ESP Fit Center  847 is at   1.582217  2.678854  5.179135
      ESP Fit Center  848 is at   2.062217  1.847470  5.179135
      ESP Fit Center  849 is at   3.022217  1.847470  5.179135
      ESP Fit Center  850 is at   0.879448  2.678854  4.476366
      ESP Fit Center  851 is at   1.197009  1.701503  4.476366
      ESP Fit Center  852 is at   2.028393  1.097467  4.476366
      ESP Fit Center  853 is at   3.056041  1.097467  4.476366
      ESP Fit Center  854 is at   3.887425  1.701503  4.476366
      ESP Fit Center  855 is at   0.622217  2.678854  3.516366
      ESP Fit Center  856 is at   2.900477  4.806458  5.426791
      ESP Fit Center  857 is at   3.971991  4.806458  5.213654
      ESP Fit Center  858 is at   3.436234  5.734416  5.213654
      ESP Fit Center  859 is at   2.364720  5.734416  5.213654
      ESP Fit Center  860 is at   1.828963  4.806458  5.213654
      ESP Fit Center  861 is at   2.364720  3.878500  5.213654
      ESP Fit Center  862 is at   3.436234  3.878500  5.213654
      ESP Fit Center  863 is at   3.890426  6.521101  4.606690
      ESP Fit Center  864 is at   2.900477  6.786357  4.606690
      ESP Fit Center  865 is at   1.910528  6.521101  4.606690
      ESP Fit Center  866 is at   1.185834  5.796407  4.606690
      ESP Fit Center  867 is at   0.920578  4.806458  4.606690
      ESP Fit Center  868 is at   1.185834  3.816509  4.606690
      ESP Fit Center  869 is at   4.615120  3.816509  4.606690
      ESP Fit Center  870 is at   3.699862  7.266711  3.698305
      ESP Fit Center  871 is at   2.630076  7.379150  3.698305
      ESP Fit Center  872 is at   1.607046  7.046747  3.698305
      ESP Fit Center  873 is at   0.807661  6.326978  3.698305
      ESP Fit Center  874 is at   0.370143  5.344297  3.698305
      ESP Fit Center  875 is at   0.370143  4.268619  3.698305
      ESP Fit Center  876 is at   3.158828  7.594514  2.626791
      ESP Fit Center  877 is at   2.134221  7.499570  2.626791
      ESP Fit Center  878 is at   1.213100  7.040906  2.626791
      ESP Fit Center  879 is at   0.519869  6.280468  2.626791
      ESP Fit Center  880 is at   0.148152  5.320957  2.626791
      ESP Fit Center  881 is at   0.148152  4.291959  2.626791
      ESP Fit Center  882 is at   1.607046  7.046747  1.555277
      ESP Fit Center  883 is at   0.807661  6.326978  1.555277
      ESP Fit Center  884 is at   0.370143  5.344297  1.555277
      ESP Fit Center  885 is at   1.185834  5.796407  0.646892
      ESP Fit Center  886 is at   0.920578  4.806458  0.646892
      ESP Fit Center  887 is at   4.400450  6.213800 -0.981738
      ESP Fit Center  888 is at   4.310954  7.973105  2.127521
      ESP Fit Center  889 is at   3.283306  7.973105  2.127521
      ESP Fit Center  890 is at   4.757130  8.054487  1.167521
      ESP Fit Center  891 is at   3.797130  8.311718  1.167521
      ESP Fit Center  892 is at   2.837130  8.054487  1.167521
      ESP Fit Center  893 is at   2.134361  7.351718  1.167521
      ESP Fit Center  894 is at   5.142338  7.369069  0.207521
      ESP Fit Center  895 is at   4.310954  7.973105  0.207521
      ESP Fit Center  896 is at   3.283306  7.973105  0.207521
      ESP Fit Center  897 is at   2.451922  7.369069  0.207521
      ESP Fit Center  898 is at   4.277130  7.223102 -0.495248
      ESP Fit Center  899 is at   3.317130  7.223102 -0.495248
      ESP Fit Center  900 is at   2.894359  6.526581 -0.683090
      ESP Fit Center  901 is at   2.062975  5.922545 -0.683090
      ESP Fit Center  902 is at   1.745414  4.945194 -0.683090
      ESP Fit Center  903 is at   4.368183  4.945194 -1.385859
      ESP Fit Center  904 is at   3.888183  5.776578 -1.385859
      ESP Fit Center  905 is at   2.928183  5.776578 -1.385859
      ESP Fit Center  906 is at   2.448183  4.945194 -1.385859
      ESP Fit Center  907 is at   2.928183  4.113810 -1.385859
      ESP Fit Center  908 is at   3.888183  4.113810 -1.385859
      ESP Fit Center  909 is at   3.408183  4.945194 -1.643090
      ESP Fit Center  910 is at   4.832593  4.005383 -0.999293
      ESP Fit Center  911 is at   5.965155  2.248203  2.106343
      ESP Fit Center  912 is at   5.451331  1.909590  1.146343
      ESP Fit Center  913 is at   6.411331  2.166821  1.146343
      ESP Fit Center  914 is at   4.937507  2.248203  0.186343
      ESP Fit Center  915 is at   5.965155  2.248203  0.186343
      ESP Fit Center  916 is at   4.971331  2.998206 -0.516426
      ESP Fit Center  917 is at   5.931331  2.998206 -0.516426
      ESP Fit Center  918 is at   5.788723  7.206698  0.244361
      ESP Fit Center  919 is at   7.451492  5.286698 -0.715639
      ESP Fit Center  920 is at   7.133931  6.264049 -0.715639
      ESP Fit Center  921 is at   6.302547  6.868085 -0.715639
      ESP Fit Center  922 is at   5.274899  6.868085 -0.715639
      ESP Fit Center  923 is at   6.302547  3.705311 -0.715639
      ESP Fit Center  924 is at   7.133931  4.309347 -0.715639
      ESP Fit Center  925 is at   6.748723  5.286698 -1.418408
      ESP Fit Center  926 is at   6.268723  6.118082 -1.418408
      ESP Fit Center  927 is at   5.308723  6.118082 -1.418408
      ESP Fit Center  928 is at   4.828723  5.286698 -1.418408
      ESP Fit Center  929 is at   5.308723  4.455314 -1.418408
      ESP Fit Center  930 is at   6.268723  4.455314 -1.418408
      ESP Fit Center  931 is at   5.788723  5.286698 -1.675639
      ESP Fit Center  932 is at   6.283841  5.602946  5.363898
      ESP Fit Center  933 is at   7.355355  5.602946  5.150761
      ESP Fit Center  934 is at   6.819598  6.530904  5.150761
      ESP Fit Center  935 is at   5.748084  6.530904  5.150761
      ESP Fit Center  936 is at   5.212327  5.602946  5.150761
      ESP Fit Center  937 is at   5.748084  4.674988  5.150761
      ESP Fit Center  938 is at   6.819598  4.674988  5.150761
      ESP Fit Center  939 is at   8.263740  5.602946  4.543797
      ESP Fit Center  940 is at   7.998484  6.592895  4.543797
      ESP Fit Center  941 is at   7.273790  7.317589  4.543797
      ESP Fit Center  942 is at   6.283841  7.582845  4.543797
      ESP Fit Center  943 is at   5.293892  7.317589  4.543797
      ESP Fit Center  944 is at   4.569198  6.592895  4.543797
      ESP Fit Center  945 is at   5.293892  3.888303  4.543797
      ESP Fit Center  946 is at   6.283841  3.623047  4.543797
      ESP Fit Center  947 is at   7.273790  3.888303  4.543797
      ESP Fit Center  948 is at   7.998484  4.612997  4.543797
      ESP Fit Center  949 is at   7.083226  8.063199  3.635412
      ESP Fit Center  950 is at   6.013440  8.175638  3.635412
      ESP Fit Center  951 is at   4.990410  7.843235  3.635412
      ESP Fit Center  952 is at   4.191025  7.123466  3.635412
      ESP Fit Center  953 is at   6.013440  3.030254  3.635412
      ESP Fit Center  954 is at   7.531908  8.109403  2.563898
      ESP Fit Center  955 is at   6.542192  8.391002  2.563898
      ESP Fit Center  956 is at   5.517585  8.296058  2.563898
      ESP Fit Center  957 is at   4.596464  7.837394  2.563898
      ESP Fit Center  958 is at   6.542192  2.814890  2.563898
      ESP Fit Center  959 is at   7.083226  8.063199  1.492384
      ESP Fit Center  960 is at   6.013440  8.175638  1.492384
      ESP Fit Center  961 is at   6.283841  7.582845  0.583999
      ESP Fit Center  962 is at  10.095268  6.465049  1.412915
      ESP Fit Center  963 is at   9.446015  7.279186  1.412915
      ESP Fit Center  964 is at   9.724307  6.908592  0.986829
      ESP Fit Center  965 is at   9.021538  7.611361  0.986829
      ESP Fit Center  966 is at   8.061538  7.868592  0.986829
      ESP Fit Center  967 is at   9.724307  5.948592  0.026829
      ESP Fit Center  968 is at   9.406746  6.925943  0.026829
      ESP Fit Center  969 is at   8.575362  7.529979  0.026829
      ESP Fit Center  970 is at   7.547714  7.529979  0.026829
      ESP Fit Center  971 is at   9.021538  5.948592 -0.675940
      ESP Fit Center  972 is at   8.541538  6.779976 -0.675940
      ESP Fit Center  973 is at   7.581538  6.779976 -0.675940
      ESP Fit Center  974 is at   7.581538  5.117208 -0.675940
      ESP Fit Center  975 is at   8.541538  5.117208 -0.675940
      ESP Fit Center  976 is at   8.061538  5.948592 -0.933171
      ESP Fit Center  977 is at   8.582617  6.023505  4.567529
      ESP Fit Center  978 is at   9.542617  6.023505  4.310298
      ESP Fit Center  979 is at   9.062617  6.854889  4.310298
      ESP Fit Center  980 is at   8.102617  6.854889  4.310298
      ESP Fit Center  981 is at   9.062617  5.192121  4.310298
      ESP Fit Center  982 is at  10.245386  6.023505  3.607529
      ESP Fit Center  983 is at   9.927825  7.000856  3.607529
      ESP Fit Center  984 is at   9.096441  7.604892  3.607529
      ESP Fit Center  985 is at   8.068793  7.604892  3.607529
      ESP Fit Center  986 is at   9.927825  5.046154  3.607529
      ESP Fit Center  987 is at  10.502617  6.023505  2.647529
      ESP Fit Center  988 is at  10.245386  6.983505  2.647529
      ESP Fit Center  989 is at   9.542617  7.686274  2.647529
      ESP Fit Center  990 is at   8.582617  7.943505  2.647529
      ESP Fit Center  991 is at   9.927825  7.000856  1.687529
      ESP Fit Center  992 is at   9.096441  7.604892  1.687529
      ESP Fit Center  993 is at  10.395245  4.022069  3.354686
      ESP Fit Center  994 is at  10.097373  5.036525  3.354686
      ESP Fit Center  995 is at   7.059991  2.192719  2.392360
      ESP Fit Center  996 is at   9.039509  1.740906  2.392360
      ESP Fit Center  997 is at   9.977707  2.192719  2.392360
      ESP Fit Center  998 is at   9.039509  1.740906  1.324260
      ESP Fit Center  999 is at   6.613846  2.451245  2.103611
      ESP Fit Center 1000 is at   7.445230  1.847209  2.103611
      ESP Fit Center 1001 is at   6.999054  1.765827  1.143611
      ESP Fit Center 1002 is at   7.959054  1.508596  1.143611
      ESP Fit Center 1003 is at   8.919054  1.765827  1.143611
      ESP Fit Center 1004 is at   6.613846  2.451245  0.183611
      ESP Fit Center 1005 is at   7.445230  1.847209  0.183611
      ESP Fit Center 1006 is at   8.472878  1.847209  0.183611
      ESP Fit Center 1007 is at   9.304262  2.451245  0.183611
      ESP Fit Center 1008 is at   8.919054  3.428596 -0.519158
      ESP Fit Center 1009 is at   7.479054  4.259980 -0.519158
      ESP Fit Center 1010 is at   6.999054  3.428596 -0.519158
      ESP Fit Center 1011 is at   7.479054  2.597212 -0.519158
      ESP Fit Center 1012 is at   8.439054  2.597212 -0.519158
      ESP Fit Center 1013 is at   7.959054  3.428596 -0.776389
      ESP Fit Center 1014 is at  10.516648  4.030548  3.199674
      ESP Fit Center 1015 is at  11.219417  4.030548  2.496905
      ESP Fit Center 1016 is at  10.901856  5.007899  2.496905
      ESP Fit Center 1017 is at  10.901856  3.053197  2.496905
      ESP Fit Center 1018 is at  11.476648  4.030548  1.536905
      ESP Fit Center 1019 is at  11.219417  4.990548  1.536905
      ESP Fit Center 1020 is at  10.516648  5.693317  1.536905
      ESP Fit Center 1021 is at  10.516648  2.367779  1.536905
      ESP Fit Center 1022 is at  11.219417  3.070548  1.536905
      ESP Fit Center 1023 is at  11.219417  4.030548  0.576905
      ESP Fit Center 1024 is at  10.901856  5.007899  0.576905
      ESP Fit Center 1025 is at  10.070472  5.611935  0.576905
      ESP Fit Center 1026 is at  10.070472  2.449161  0.576905
      ESP Fit Center 1027 is at  10.901856  3.053197  0.576905
      ESP Fit Center 1028 is at  10.516648  4.030548 -0.125864
      ESP Fit Center 1029 is at  10.036648  4.861932 -0.125864
      ESP Fit Center 1030 is at  10.036648  3.199164 -0.125864
      ESP Fit Center 1031 is at   9.556648  4.030548 -0.383095
      ESP Fit Center 1032 is at   8.463820  3.528134  4.741472
      ESP Fit Center 1033 is at   9.423820  3.528134  4.484241
      ESP Fit Center 1034 is at   8.943820  4.359518  4.484241
      ESP Fit Center 1035 is at   7.983820  4.359518  4.484241
      ESP Fit Center 1036 is at   7.503820  3.528134  4.484241
      ESP Fit Center 1037 is at   7.983820  2.696750  4.484241
      ESP Fit Center 1038 is at   8.943820  2.696750  4.484241
      ESP Fit Center 1039 is at  10.126589  3.528134  3.781472
      ESP Fit Center 1040 is at   7.118612  2.550783  3.781472
      ESP Fit Center 1041 is at   7.949996  1.946747  3.781472
      ESP Fit Center 1042 is at   8.977644  1.946747  3.781472
      ESP Fit Center 1043 is at   9.809028  2.550783  3.781472
      ESP Fit Center 1044 is at   6.801051  2.568134  2.821472
      ESP Fit Center 1045 is at   7.503820  1.865365  2.821472
      ESP Fit Center 1046 is at   8.463820  1.608134  2.821472
      ESP Fit Center 1047 is at   9.423820  1.865365  2.821472
      ESP Fit Center 1048 is at  -8.006044 -2.951533  5.533564
[...]
 1365 Fit      -0.002484
 1366 Fit       0.000871
 1367 Fit      -0.005561
 1368 Fit      -0.009416
 1369 Fit      -0.003457
 1370 Fit      -0.004762
 1371 Fit      -0.006128
 1372 Fit      -0.003729
 1373 Fit      -0.004401
 1374 Fit      -0.009816
 1375 Fit      -0.009867
 1376 Fit      -0.006568
 1377 Fit      -0.022166
 1378 Fit      -0.029340
 1379 Fit      -0.029465
 1380 Fit      -0.023722
 1381 Fit      -0.016888
 1382 Fit      -0.011889
 1383 Fit      -0.018469
 1384 Fit      -0.032470
 1385 Fit      -0.026632
 1386 Fit      -0.023174
 1387 Fit      -0.019889
 1388 Fit      -0.014511
 1389 Fit      -0.007301
 1390 Fit      -0.027056
 1391 Fit      -0.028094
 1392 Fit      -0.022097
 1393 Fit      -0.020789
 1394 Fit      -0.020914
 1395 Fit      -0.019410
 1396 Fit      -0.014715
 1397 Fit      -0.007718
 1398 Fit      -0.015492
 1399 Fit      -0.014291
 1400 Fit      -0.017096
 1401 Fit      -0.019934
 1402 Fit      -0.019923
 1403 Fit      -0.015701
 1404 Fit      -0.008460
 1405 Fit      -0.005747
 1406 Fit      -0.012235
 1407 Fit      -0.017539
 1408 Fit      -0.019201
 1409 Fit      -0.015789
 1410 Fit      -0.011568
 1411 Fit      -0.015427
 1412 Fit      -0.014203
 1413 Fit      -0.007005
 1414 Fit      -0.008537
 1415 Fit      -0.002545
 1416 Fit       0.010403
 1417 Fit       0.005762
 1418 Fit       0.012643
 1419 Fit      -0.006295
 1420 Fit      -0.007376
 1421 Fit      -0.001040
 1422 Fit       0.000721
 1423 Fit      -0.001178
 1424 Fit       0.005033
 1425 Fit       0.003911
 1426 Fit       0.004507
 1427 Fit       0.003531
 1428 Fit       0.000964
 1429 Fit       0.008654
 1430 Fit       0.006724
 1431 Fit       0.004786
 1432 Fit       0.003406
 1433 Fit       0.003910
 1434 Fit       0.015046
 1435 Fit       0.011890
 1436 Fit       0.009048
 1437 Fit       0.009117
 1438 Fit       0.012703
 1439 Fit       0.014778
 1440 Fit       0.012197
 1441 Fit       0.015037
 1442 Fit       0.001177
 1443 Fit       0.002273
 1444 Fit       0.005773
 1445 Fit       0.008763
 1446 Fit       0.012938
 1447 Fit       0.011363
 1448 Fit       0.010817
 1449 Fit       0.009853
 1450 Fit       0.013725
 1451 Fit       0.013665
 1452 Fit       0.012957
 1453 Fit       0.012812
 1454 Fit       0.014626
 1455 Fit       0.013970
 1456 Fit       0.013011
 1457 Fit       0.013424
 1458 Fit      -0.024911
 1459 Fit      -0.016596
 1460 Fit      -0.019067
 1461 Fit      -0.026212
 1462 Fit      -0.031690
 1463 Fit      -0.029621
 1464 Fit      -0.022793
 1465 Fit      -0.006253
 1466 Fit      -0.007320
 1467 Fit      -0.014104
 1468 Fit      -0.021534
 1469 Fit      -0.026985
 1470 Fit      -0.033240
 1471 Fit      -0.030002
 1472 Fit      -0.025076
 1473 Fit      -0.018151
 1474 Fit      -0.010797
 1475 Fit      -0.014140
 1476 Fit      -0.021656
 1477 Fit      -0.025472
 1478 Fit      -0.027907
 1479 Fit      -0.018729
 1480 Fit      -0.009526
 1481 Fit      -0.018433
 1482 Fit      -0.022837
 1483 Fit      -0.022193
 1484 Fit      -0.008062
 1485 Fit      -0.015888
 1486 Fit      -0.018665
 1487 Fit      -0.014077
 1488 Fit      -0.005742
 1489 Fit      -0.010604
 1490 Fit      -0.007291
 1491 Fit       0.000713
 1492 Fit       0.006732
 1493 Fit       0.003807
 1494 Fit       0.000445
 1495 Fit       0.008490
 1496 Fit       0.007352
 1497 Fit       0.006271
 1498 Fit       0.005068
 1499 Fit       0.005945
 1500 Fit       0.009843
 1501 Fit       0.009520
 1502 Fit       0.011093
 1503 Fit       0.010891
 1504 Fit       0.012240
 1505 Fit      -0.002223
 1506 Fit       0.002990
 1507 Fit       0.001294
 1508 Fit       0.000564
 1509 Fit       0.005523
 1510 Fit       0.004935
 1511 Fit       0.002312
 1512 Fit      -0.003590
 1513 Fit       0.006841
 1514 Fit       0.005816
 1515 Fit       0.003789
 1516 Fit      -0.000365
 1517 Fit       0.005629
 1518 Fit       0.001356
 1519 Fit      -0.000121
 1520 Fit      -0.000797
 1521 Fit      -0.000201
 1522 Fit       0.001475
 1523 Fit       0.006354
 1524 Fit      -0.000953
 1525 Fit       0.001831
 1526 Fit       0.001032
 1527 Fit       0.008099
 1528 Fit       0.004946
 1529 Fit       0.003584
 1530 Fit       0.006018
 1531 Fit       0.012683
 1532 Fit       0.008872
 1533 Fit       0.006212
 1534 Fit       0.009346
 1535 Fit       0.003978
 1536 Fit       0.005535
 1537 Fit       0.002208
 1538 Fit       0.005783
 1539 Fit       0.006684
 1540 Fit       0.007597
 1541 Fit       0.002335
 1542 Fit       0.004323
 1543 Fit       0.006548
 1544 Fit       0.007384
 1545 Fit       0.008317
 1546 Fit       0.003096
 1547 Fit       0.005040
 1548 Fit       0.006403
 1549 Fit       0.007861
 1550 Fit       0.004638
 1551 Fit      -0.004935
 1552 Fit      -0.000527
 1553 Fit      -0.001760
 1554 Fit      -0.015452
 1555 Fit      -0.005608
 1556 Fit      -0.001381
 1557 Fit       0.000668
 1558 Fit      -0.006857
 1559 Fit      -0.002557
 1560 Fit      -0.000546
 1561 Fit       0.000174
 1562 Fit      -0.004727
 1563 Fit      -0.002984
 1564 Fit      -0.001354
 1565 Fit      -0.000410
 1566 Fit       0.003392
 1567 Fit       0.003327
 1568 Fit       0.002662
 1569 Fit       0.002935
 1570 Fit       0.002892
 1571 Fit       0.002070
 1572 Fit       0.008412
 1573 Fit       0.004058
 1574 Fit       0.002860
 1575 Fit       0.002301
 1576 Fit       0.001987
 1577 Fit       0.001673
 1578 Fit       0.008886
 1579 Fit       0.006746
 1580 Fit       0.005349
 1581 Fit       0.011295
 1582 Fit       0.008982
 1583 Fit       0.006953
 1584 Fit       0.005605
 1585 Fit       0.004766
 1586 Fit       0.004405
 1587 Fit       0.004547
 1588 Fit       0.010171
 1589 Fit       0.009121
 1590 Fit       0.007366
 1591 Fit       0.006499
 1592 Fit       0.006852
 1593 Fit       0.008315
 1594 Fit       0.001018
 1595 Fit      -0.005228
 1596 Fit       0.001940
 1597 Fit      -0.000291
 1598 Fit       0.002486
 1599 Fit       0.002054
 1600 Fit       0.000545
 1601 Fit      -0.003655
 1602 Fit       0.002412
 1603 Fit       0.002362
 1604 Fit       0.001766
 1605 Fit      -0.000202
 1606 Fit      -0.004846
 1607 Fit       0.002141
 1608 Fit       0.001751
 1609 Fit       0.000343
 1610 Fit      -0.002622
 1611 Fit       0.001399
 1612 Fit       0.006917
 1613 Fit       0.009650
 1614 Fit       0.007982
 1615 Fit       0.006507
 1616 Fit       0.004667
 1617 Fit       0.009929
 1618 Fit       0.008544
 1619 Fit       0.007509
 1620 Fit       0.006194
 1621 Fit       0.004482
 1622 Fit       0.009508
 1623 Fit       0.008181
 1624 Fit       0.007225
 1625 Fit       0.005993
 1626 Fit       0.004375
 1627 Fit       0.008287
 1628 Fit       0.007024
 1629 Fit       0.005870
 1630 Fit       0.004377
 1631 Fit      -0.005283
 1632 Fit      -0.004140
 1633 Fit       0.001584
 1634 Fit       0.004938
 1635 Fit       0.007259
 1636 Fit       0.008900
 1637 Fit       0.010183
 1638 Fit       0.003986
 1639 Fit       0.006331
 1640 Fit       0.005294
 1641 Fit       0.006674
 1642 Fit       0.007683
 1643 Fit       0.008767
 1644 Fit       0.009818
 1645 Fit       0.009139
 1646 Fit       0.009184
 1647 Fit       0.009545
 1648 Fit       0.010356
 1649 Fit       0.011435
 1650 Fit       0.010413
 1651 Fit       0.010152
 1652 Fit       0.011728
 1653 Fit       0.010869
 1654 Fit       0.001275
 1655 Fit      -0.004377
 1656 Fit      -0.001298
 1657 Fit       0.002906
 1658 Fit       0.004535
 1659 Fit       0.003075
 1660 Fit      -0.001145
 1661 Fit      -0.011113
 1662 Fit      -0.003432
 1663 Fit       0.001822
 1664 Fit       0.004862
 1665 Fit       0.006449
 1666 Fit       0.006597
 1667 Fit       0.005099
 1668 Fit       0.002264
 1669 Fit      -0.003019
 1670 Fit      -0.011083
 1671 Fit       0.007985
 1672 Fit       0.009027
 1673 Fit      -0.017143
 1674 Fit      -0.014495
 1675 Fit      -0.015240
 1676 Fit      -0.015677
 1677 Fit      -0.012401
 1678 Fit      -0.009730
 1679 Fit      -0.010816
 1680 Fit      -0.016155
 1681 Fit      -0.017082
 1682 Fit      -0.004062
 1683 Fit      -0.012629
 1684 Fit      -0.008528
 1685 Fit       0.002122
 1686 Fit      -0.005127
 1687 Fit       0.010898
 1688 Fit       0.009847
 1689 Fit       0.004996
 1690 Fit       0.009717
 1691 Fit       0.010148
 1692 Fit       0.012973
 1693 Fit       0.011864
 1694 Fit       0.012622
 1695 Fit       0.011859
 1696 Fit       0.013050
 1697 Fit       0.010924
 1698 Fit      -0.000864
 1699 Fit       0.001667
 1700 Fit      -0.001507
 1701 Fit       0.011043
 1702 Fit       0.004977
 1703 Fit       0.000940
 1704 Fit       0.007985
 1705 Fit       0.008255
 1706 Fit       0.006226
 1707 Fit       0.001473
 1708 Fit       0.004401
 1709 Fit      -0.010659
 1710 Fit      -0.006229
 1711 Fit      -0.010156
 1712 Fit      -0.007888
 1713 Fit      -0.004841
 1714 Fit      -0.002833
 1715 Fit      -0.005436
 1716 Fit      -0.008331
 1717 Fit      -0.005440
 1718 Fit      -0.002148
 1719 Fit       0.000525
 1720 Fit       0.000733
 1721 Fit      -0.003356
 1722 Fit       0.005287
 1723 Fit       0.003502
 1724 Fit      -0.006536
 1725 Fit      -0.007028
 1726 Fit      -0.007019
 1727 Fit      -0.006880
 1728 Fit      -0.003925
 1729 Fit      -0.004791
 1730 Fit      -0.010152
 1731 Fit      -0.003746
 1732 Fit      -0.001974
 1733 Fit      -0.002645
 1734 Fit      -0.005461
 1735 Fit      -0.001123
 1736 Fit      -0.001359
 1737 Fit      -0.002707
 1738 Fit      -0.001922
 1739 Fit      -0.004705
 1740 Fit      -0.007834
 1741 Fit      -0.008634
 1742 Fit       0.004979
 1743 Fit      -0.005829
 1744 Fit      -0.007990
 1745 Fit       0.007594
 1746 Fit       0.008496
 1747 Fit       0.006395
 1748 Fit       0.009272
 1749 Fit       0.012179
 1750 Fit      -0.002122
 1751 Fit       0.000672
 1752 Fit       0.003950
 1753 Fit      -0.002903
 1754 Fit      -0.000576
 1755 Fit       0.003131
 1756 Fit       0.006085
 1757 Fit       0.000737
 1758 Fit       0.005328
 1759 Fit       0.010351
 1760 Fit       0.010327
 1761 Fit       0.011360
 1762 Fit       0.012209
 1763 Fit       0.012335
 1764 Fit       0.013313
 1765 Fit       0.013249
 1766 Fit       0.013011
 1767 Fit       0.012083
 1768 Fit       0.013122
 1769 Fit      -0.001529
 1770 Fit       0.012671
 1771 Fit      -0.002620
 1772 Fit       0.010573
 1773 Fit       0.003082
 1774 Fit       0.004195
 1775 Fit       0.007439
 1776 Fit      -0.000437
 1777 Fit       0.006848
 1778 Fit      -0.003792
 1779 Fit       0.002646
 1780 Fit       0.007548
 1781 Fit       0.011647
 1782 Fit      -0.000319
 1783 Fit       0.004488
 1784 Fit       0.008009
 1785 Fit       0.010834
 1786 Fit       0.013440
 1787 Fit      -0.000842
 1788 Fit       0.004312
 1789 Fit       0.007616
 1790 Fit       0.009929
 1791 Fit       0.011573
 1792 Fit       0.004991
 1793 Fit       0.008016
 1794 Fit       0.010344
 1795 Fit       0.005677
 1796 Fit       0.001408
 1797 Fit       0.000621
 1798 Fit       0.010191
 1799 Fit       0.008430
 1800 Fit       0.006529
 1801 Fit       0.006462
 1802 Fit       0.005903
 1803 Fit       0.008197
 1804 Fit       0.008559
 1805 Fit       0.007859
 1806 Fit       0.007832
 1807 Fit       0.007506
 1808 Fit      -0.006773
 1809 Fit      -0.005489
 1810 Fit      -0.002800
 1811 Fit       0.004562
 1812 Fit       0.003118
 1813 Fit       0.007448
 1814 Fit       0.003929
 1815 Fit       0.000493
 1816 Fit       0.002218
 1817 Fit       0.004978
 1818 Fit       0.008016
 1819 Fit       0.005880
 1820 Fit       0.006956
 1821 Fit       0.008584
 1822 Fit       0.007855
 1823 Fit       0.005707
 1824 Fit       0.006520
 1825 Fit       0.007846
 1826 Fit       0.007449
 1827 Fit       0.008030
 1828 Fit       0.007323
 1829 Fit      -0.004851
 1830 Fit      -0.002598
 1831 Fit       0.000317
 1832 Fit       0.001192
 1833 Fit       0.001970
 1834 Fit       0.009390
 1835 Fit       0.005494
 1836 Fit       0.007364
 1837 Fit       0.007123
 1838 Fit       0.005907
 1839 Fit       0.008366
 1840 Fit       0.008499
 1841 Fit       0.003265
 1842 Fit       0.005055
 1843 Fit       0.007132
 1844 Fit       0.007302
 1845 Fit       0.004866
 1846 Fit       0.005899
 1847 Fit       0.007763
 1848 Fit       0.006962
 1849 Fit       0.006955
 1850 Fit       0.000927
 1851 Fit       0.005164
 1852 Fit       0.003797
 1853 Fit       0.000982
 1854 Fit       0.007420
 1855 Fit       0.006180
 1856 Fit       0.004121
 1857 Fit       0.000788
 1858 Fit       0.008281
 1859 Fit       0.006739
 1860 Fit       0.004700
 1861 Fit       0.009211
 1862 Fit       0.007251
 1863 Fit      -0.012342
 1864 Fit      -0.011892
 1865 Fit      -0.014049
 1866 Fit      -0.016732
 1867 Fit      -0.015575
 1868 Fit      -0.012157
 1869 Fit      -0.009230
 1870 Fit      -0.015103
 1871 Fit      -0.017581
 1872 Fit      -0.017499
 1873 Fit      -0.016798
 1874 Fit      -0.016317
 1875 Fit      -0.015166
 1876 Fit      -0.011905
 1877 Fit      -0.009268
 1878 Fit      -0.013869
 1879 Fit      -0.015970
 1880 Fit      -0.015211
 1881 Fit      -0.014243
 1882 Fit      -0.014024
 1883 Fit      -0.014860
 1884 Fit      -0.015843
 1885 Fit      -0.015293
 1886 Fit      -0.011242
 1887 Fit      -0.008154
 1888 Fit      -0.008525
 1889 Fit      -0.010379
 1890 Fit      -0.013164
 1891 Fit      -0.015358
 1892 Fit      -0.015204
 1893 Fit      -0.010135
 1894 Fit      -0.000466
 1895 Fit      -0.002694
 1896 Fit      -0.006606
 1897 Fit      -0.010919
 1898 Fit      -0.013960
 1899 Fit      -0.014157
 1900 Fit      -0.008159
 1901 Fit      -0.004830
 1902 Fit      -0.009995
 1903 Fit      -0.011598
 1904 Fit      -0.004751
 1905 Fit       0.002713
 1906 Fit      -0.003342
 1907 Fit      -0.006823
 1908 Fit       0.000554
 1909 Fit       0.006436
 1910 Fit      -0.004697
 1911 Fit       0.011807
 1912 Fit       0.001280
 1913 Fit       0.011388
 1914 Fit       0.012544
 1915 Fit       0.006780
 1916 Fit       0.009242
 1917 Fit      -0.004521
 1918 Fit      -0.008193
 1919 Fit      -0.017861
 1920 Fit      -0.010142
 1921 Fit      -0.014955
 1922 Fit      -0.010344
 1923 Fit      -0.008861
 1924 Fit      -0.009797
 1925 Fit      -0.005483
 1926 Fit      -0.000582
 1927 Fit      -0.006930
 1928 Fit      -0.010016
 1929 Fit      -0.005063
 1930 Fit      -0.005835
 1931 Fit      -0.007063
 1932 Fit      -0.005016
 1933 Fit      -0.005097
 1934 Fit      -0.008680
 1935 Fit      -0.009492
 1936 Fit      -0.008923
 1937 Fit      -0.004486
 1938 Fit      -0.019243
 1939 Fit      -0.024534
 1940 Fit      -0.024672
 1941 Fit      -0.020307
 1942 Fit      -0.015287
 1943 Fit      -0.012128
 1944 Fit      -0.016846
 1945 Fit      -0.027713
 1946 Fit      -0.023150
 1947 Fit      -0.020009
 1948 Fit      -0.017049
 1949 Fit      -0.013002
 1950 Fit      -0.008215
 1951 Fit      -0.013505
 1952 Fit      -0.023392
 1953 Fit      -0.025946
 1954 Fit      -0.020808
 1955 Fit      -0.018804
 1956 Fit      -0.017834
 1957 Fit      -0.015932
 1958 Fit      -0.012195
 1959 Fit      -0.007353
 1960 Fit      -0.019214
 1961 Fit      -0.015541
 1962 Fit      -0.015563
 1963 Fit      -0.016514
 1964 Fit      -0.016391
 1965 Fit      -0.014001
 1966 Fit      -0.009513
 1967 Fit      -0.005200
 1968 Fit      -0.009103
 1969 Fit      -0.009794
 1970 Fit      -0.012415
 1971 Fit      -0.014796
 1972 Fit      -0.015434
 1973 Fit      -0.013406
 1974 Fit      -0.008854
 1975 Fit      -0.006575
 1976 Fit      -0.011017
 1977 Fit      -0.013250
 1978 Fit      -0.012265
 1979 Fit      -0.007076
 1980 Fit      -0.009621
 1981 Fit      -0.009381
 1982 Fit      -0.003010
 1983 Fit      -0.004687
 1984 Fit       0.000947
 1985 Fit       0.009467
 1986 Fit       0.007163
 1987 Fit       0.005668
 1988 Fit       0.011331
 1989 Fit      -0.006775
 1990 Fit      -0.003268
 1991 Fit      -0.003735
 1992 Fit      -0.000224
 1993 Fit       0.001125
 1994 Fit       0.000439
 1995 Fit       0.004442
 1996 Fit       0.004168
 1997 Fit       0.003366
 1998 Fit       0.006371
 1999 Fit       0.005080
 2000 Fit       0.004084
 2001 Fit       0.004224
 2002 Fit       0.013176
 2003 Fit       0.010741
 2004 Fit       0.008344
 2005 Fit       0.008216
 2006 Fit       0.010929
 2007 Fit       0.012884
 2008 Fit       0.010775
 2009 Fit       0.011781
 2010 Fit       0.010965
 2011 Fit       0.013432
 2012 Fit      -0.000270
 2013 Fit       0.002235
 2014 Fit       0.005954
 2015 Fit       0.007976
 2016 Fit       0.010653
 2017 Fit       0.010019
 2018 Fit       0.009308
 2019 Fit       0.011589
 2020 Fit       0.012099
 2021 Fit       0.012004
 2022 Fit       0.011424
 2023 Fit       0.011411
 2024 Fit       0.012872
 2025 Fit       0.012581
 2026 Fit       0.011763
 2027 Fit       0.011925
 2028 Fit      -0.021212
 2029 Fit      -0.014999
 2030 Fit      -0.017011
 2031 Fit      -0.022537
 2032 Fit      -0.026632
 2033 Fit      -0.024565
 2034 Fit      -0.019201
 2035 Fit      -0.007519
 2036 Fit      -0.008431
 2037 Fit      -0.013125
 2038 Fit      -0.018596
 2039 Fit      -0.023257
 2040 Fit      -0.028577
 2041 Fit      -0.025177
 2042 Fit      -0.020902
 2043 Fit      -0.015672
 2044 Fit      -0.010504
 2045 Fit      -0.005411
 2046 Fit      -0.012431
 2047 Fit      -0.018089
 2048 Fit      -0.021762
 2049 Fit      -0.025308
 2050 Fit      -0.016831
 2051 Fit      -0.006982
 2052 Fit      -0.013925
 2053 Fit      -0.018346
 2054 Fit      -0.020025
 2055 Fit      -0.020476
 2056 Fit      -0.010212
 2057 Fit      -0.014936
 2058 Fit      -0.016604
 2059 Fit      -0.014807
 2060 Fit      -0.009218
 2061 Fit      -0.011758
 2062 Fit      -0.009281
 2063 Fit      -0.001475
 2064 Fit      -0.004769
 2065 Fit       0.003992
 2066 Fit       0.005976
 2067 Fit       0.004402
 2068 Fit       0.001986
 2069 Fit      -0.002454
 2070 Fit       0.006552
 2071 Fit       0.005887
 2072 Fit       0.004402
 2073 Fit       0.002434
 2074 Fit      -0.000433
 2075 Fit       0.007835
 2076 Fit       0.006968
 2077 Fit       0.006163
 2078 Fit       0.005656
 2079 Fit       0.007520
 2080 Fit       0.008975
 2081 Fit       0.008669
 2082 Fit       0.010226
 2083 Fit       0.010107
 2084 Fit       0.010999
 2085 Fit       0.001009
 2086 Fit      -0.000654
 2087 Fit      -0.001248
 2088 Fit       0.003655
 2089 Fit       0.003049
 2090 Fit       0.000606
 2091 Fit       0.005197
 2092 Fit       0.004530
 2093 Fit       0.002896
 2094 Fit      -0.000387
 2095 Fit       0.005083
 2096 Fit       0.003339
 2097 Fit       0.000296
 2098 Fit       0.000873
 2099 Fit       0.004112
 2100 Fit       0.000747
 2101 Fit      -0.002584
 2102 Fit      -0.002535
 2103 Fit      -0.001379
 2104 Fit      -0.000415
 2105 Fit       0.000728
 2106 Fit       0.000060
 2107 Fit       0.000559
 2108 Fit       0.002028
 2109 Fit       0.006320
 2110 Fit       0.009031
 2111 Fit       0.008423
 2112 Fit       0.000515
 2113 Fit      -0.001031
 2114 Fit       0.003969
 2115 Fit       0.001936
 2116 Fit       0.001659
 2117 Fit       0.007442
 2118 Fit       0.004838
 2119 Fit       0.003834
 2120 Fit       0.011519
 2121 Fit       0.008088
 2122 Fit       0.006033
 2123 Fit       0.008744
 2124 Fit       0.002820
 2125 Fit       0.004405
 2126 Fit       0.001380
 2127 Fit       0.004274
 2128 Fit       0.005213
 2129 Fit       0.006456
 2130 Fit       0.001590
 2131 Fit       0.003083
 2132 Fit       0.005271
 2133 Fit       0.006011
 2134 Fit       0.006690
 2135 Fit       0.002750
 2136 Fit       0.004176
 2137 Fit       0.005692
 2138 Fit       0.006532
 2139 Fit       0.007705
 2140 Fit       0.003232
 2141 Fit       0.004524
 2142 Fit       0.005802
 2143 Fit       0.007275
 2144 Fit       0.004629
 2145 Fit      -0.005804
 2146 Fit      -0.001588
 2147 Fit      -0.003150
 2148 Fit      -0.006495
 2149 Fit      -0.002549
 2150 Fit       0.000211
 2151 Fit      -0.007839
 2152 Fit      -0.003525
 2153 Fit      -0.001368
 2154 Fit      -0.000394
 2155 Fit      -0.005736
 2156 Fit      -0.003287
 2157 Fit      -0.001501
 2158 Fit      -0.000472
 Job cpu time:       0 days  0 hours  4 minutes 55.2 seconds.
 Normal termination of Gaussian 16 at Sat Jul  8 20:43:15 2023.
