 Copyright (c) 1988-2019, Gaussian, Inc.  All Rights Reserved.
  
 This is part of the Gaussian(R) 16 program.  It is based on
 the Gaussian(R) 09 system (copyright 2009, Gaussian, Inc.),
 the Gaussian(R) 03 system (copyright 2003, Gaussian, Inc.),
 the Gaussian(R) 98 system (copyright 1998, Gaussian, Inc.),
 the Gaussian(R) 94 system (copyright 1995, Gaussian, Inc.),
 the Gaussian 92(TM) system (copyright 1992, Gaussian, Inc.),
 the Gaussian 90(TM) system (copyright 1990, Gaussian, Inc.),
 the Gaussian 88(TM) system (copyright 1988, Gaussian, Inc.),
 the Gaussian 86(TM) system (copyright 1986, Carnegie Mellon
 University), and the Gaussian 82(TM) system (copyright 1983,
 Carnegie Mellon University). Gaussian is a federally registered
 trademark of Gaussian, Inc.
 Cite this work as:
 Gaussian 16, Revision C.01,
 M. J. Frisch, G. W. Trucks, H. B. Schlegel, G. E. Scuseria, 
 M. A. Robb, J. R. Cheeseman, G. Scalmani, V. Barone, 
 G. A. Petersson, H. Nakatsuji, X. Li, M. Caricato, A. V. Marenich, 
 J. Bloino, B. G. Janesko, R. Gomperts, B. Mennucci, H. P. Hratchian, 
 J. V. Ortiz, A. F. Izmaylov, J. L. Sonnenberg, D. Williams-Young, 
 F. Ding, F. Lipparini, F. Egidi, J. Goings, B. Peng, A. Petrone, 
 T. Henderson, D. Ranasinghe, V. G. Zakrzewski, J. Gao, N. Rega, 
 G. Zheng, W. Liang, M. Hada, M. Ehara, K. Toyota, R. Fukuda, 
 J. Hasegawa, M. Ishida, T. Nakajima, Y. Honda, O. Kitao, H. Nakai, 
 T. Vreven, K. Throssell, J. A. Montgomery, Jr., J. E. Peralta, 
 F. Ogliaro, M. J. Bearpark, J. J. Heyd, E. N. Brothers, K. N. Kudin, 
 V. N. Staroverov, T. A. Keith, R. Kobayashi, J. Normand, 
 K. Raghavachari, A. P. Rendell, J. C. Burant, S. S. Iyengar, 
 J. Tomasi, M. Cossi, J. M. Millam, M. Klene, C. Adamo, R. Cammi, 
 J. W. Ochterski, R. L. Martin, K. Morokuma, O. Farkas, 
 J. B. Foresman, and D. J. Fox, Gaussian, Inc., Wallingford CT, 2019.
 
 ******************************************
 Gaussian 16:  EM64L-G16RevC.01  3-Jul-2019
                 8-Jul-2023 
 ******************************************
 ----------------------------------------------------------------------
 #P HF/6-31G(d) SCF(Conver=8,XQC,MaxConventionalCycles=64,MaxCycle=128)
  NoSymm Test Pop=mk IOp(6/33=2) GFInput GFPrint
 ----------------------------------------------------------------------
 1/38=1,172=1/1;
 2/12=2,15=1,17=6,18=5,40=1/2;
 3/5=1,6=6,7=1,11=9,24=110,25=1,30=1/1,2,3;
 4//1;
 5/5=2,6=8,7=128,8=3,13=1,38=5,85=64/2,8;
 6/7=2,8=2,9=2,10=2,15=8,20=1,28=1,33=2/1,2;
 99/5=1,9=1/99;
 -------------------------------------------------
 MEP step - Input generated by PyRED DVE-DMDS-OPLS
 -------------------------------------------------
 Symbolic Z-matrix:
 Charge =  0 Multiplicity = 1
 C                    -6.31575  -3.24296  -0.47958 
 H                    -6.01519  -2.79738   0.4618 
 H                    -7.4003   -3.27411  -0.51778 
 H                    -5.93846  -4.25869  -0.51072 
 C                    -5.76531  -2.44028  -1.64204 
 H                    -6.07366  -2.8821   -2.58918 
 H                    -6.15953  -1.42644  -1.61438 
 O                    -4.36998  -2.43767  -1.5498 
 C                    -3.68378  -1.79336  -2.57835 
 H                    -4.14277  -2.01072  -3.54237 
 H                    -2.68146  -2.2016   -2.58476 
 C                    -3.59057  -0.28867  -2.40482 
 H                    -3.12485   0.13891  -3.29292 
 H                    -4.5802    0.15512  -2.31093 
 O                    -2.8266   -0.00735  -1.27265 
 C                    -2.69814   1.34953  -0.97748 
 H                    -3.6779    1.78219  -0.77192 
 H                    -2.26529   1.88815  -1.81883 
 C                    -1.81766   1.53033   0.24371 
 H                    -2.16779   0.87571   1.03781 
 H                    -1.91189   2.55525   0.58416 
 O                    -0.4563    1.32808   0. 
 C                     0.        0.        0. 
 H                    -0.38339  -0.54143  -0.85344 
 H                    -0.34905  -0.50247   0.90131 
 C                     1.51815   0.        0. 
 H                     1.86314  -1.01627   0.15594 
 H                     1.89323   0.59271   0.82438 
 S                     2.33027   0.49661  -1.54765 
 C                     2.02125   2.28467  -1.68452 
 H                     2.55561   2.57224  -2.58197 
 H                     0.9674    2.45063  -1.85052 
 C                     2.46375   3.15856  -0.51395 
 H                     1.88556   2.91584   0.36598 
 H                     2.24876   4.18992  -0.77319 
 S                     4.24776   3.02322  -0.16886 
 C                     4.51397   4.52133   0.82355 
 H                     4.08539   5.37358   0.30927 
 H                     5.58695   4.66507   0.84476 
 C                     3.97719   4.42367   2.24965 
 H                     2.9104    4.24499   2.24052 
 H                     4.45491   3.59986   2.7648 
 S                     4.33217   5.97456   3.13749 
 C                     3.82622   5.54845   4.83151 
 H                     4.33542   4.63823   5.12719 
 H                     4.22416   6.34725   5.44603 
 C                     2.32075   5.42349   5.04666 
 H                     1.89712   4.61478   4.4615 
 H                     2.11114   5.21711   6.09253 
 H                     1.81278   6.34053   4.7714 
 
 ITRead=  0  0  0  0  0  0  0  0  0  0  0  0  0  0  0  0  0  0  0  0
 ITRead=  0  0  0  0  0  0  0  0  0  0  0  0  0  0  0  0  0  0  0  0
 ITRead=  0  0  0  0  0  0  0  0  0  0
 MicOpt= -1 -1 -1 -1 -1 -1 -1 -1 -1 -1 -1 -1 -1 -1 -1 -1 -1 -1 -1 -1
 MicOpt= -1 -1 -1 -1 -1 -1 -1 -1 -1 -1 -1 -1 -1 -1 -1 -1 -1 -1 -1 -1
 MicOpt= -1 -1 -1 -1 -1 -1 -1 -1 -1 -1
 NAtoms=     50 NQM=       50 NQMF=       0 NMMI=      0 NMMIF=      0
                NMic=       0 NMicF=      0.
                          Input orientation:                          
 ---------------------------------------------------------------------
 Center     Atomic      Atomic             Coordinates (Angstroms)
 Number     Number       Type             X           Y           Z
 ---------------------------------------------------------------------
      1          6           0       -6.315749   -3.242963   -0.479577
      2          1           0       -6.015189   -2.797376    0.461800
      3          1           0       -7.400301   -3.274112   -0.517776
      4          1           0       -5.938464   -4.258687   -0.510716
      5          6           0       -5.765305   -2.440284   -1.642042
      6          1           0       -6.073656   -2.882097   -2.589179
      7          1           0       -6.159528   -1.426437   -1.614380
      8          8           0       -4.369978   -2.437667   -1.549803
      9          6           0       -3.683784   -1.793362   -2.578345
     10          1           0       -4.142769   -2.010723   -3.542371
     11          1           0       -2.681461   -2.201595   -2.584762
     12          6           0       -3.590572   -0.288673   -2.404821
     13          1           0       -3.124848    0.138912   -3.292919
     14          1           0       -4.580200    0.155124   -2.310931
     15          8           0       -2.826602   -0.007349   -1.272653
     16          6           0       -2.698137    1.349526   -0.977482
     17          1           0       -3.677902    1.782189   -0.771920
     18          1           0       -2.265289    1.888149   -1.818829
     19          6           0       -1.817664    1.530327    0.243714
     20          1           0       -2.167795    0.875711    1.037807
     21          1           0       -1.911888    2.555252    0.584159
     22          8           0       -0.456304    1.328079    0.000000
     23          6           0        0.000000    0.000000    0.000000
     24          1           0       -0.383389   -0.541431   -0.853440
     25          1           0       -0.349045   -0.502472    0.901310
     26          6           0        1.518148    0.000000    0.000000
     27          1           0        1.863143   -1.016274    0.155939
     28          1           0        1.893225    0.592711    0.824379
     29         16           0        2.330273    0.496607   -1.547645
     30          6           0        2.021246    2.284674   -1.684519
     31          1           0        2.555610    2.572243   -2.581970
     32          1           0        0.967398    2.450632   -1.850518
     33          6           0        2.463754    3.158563   -0.513954
     34          1           0        1.885562    2.915836    0.365983
     35          1           0        2.248757    4.189919   -0.773193
     36         16           0        4.247759    3.023220   -0.168855
     37          6           0        4.513965    4.521327    0.823545
     38          1           0        4.085394    5.373578    0.309272
     39          1           0        5.586946    4.665065    0.844761
     40          6           0        3.977188    4.423667    2.249653
     41          1           0        2.910401    4.244993    2.240520
     42          1           0        4.454905    3.599859    2.764795
     43         16           0        4.332169    5.974561    3.137493
     44          6           0        3.826215    5.548454    4.831514
     45          1           0        4.335425    4.638229    5.127193
     46          1           0        4.224157    6.347250    5.446032
     47          6           0        2.320746    5.423489    5.046659
     48          1           0        1.897116    4.614782    4.461505
     49          1           0        2.111139    5.217113    6.092533
     50          1           0        1.812778    6.340534    4.771400
 ---------------------------------------------------------------------
 Stoichiometry    C14H30O3S3
 Framework group  C1[X(C14H30O3S3)]
 Standard basis: 6-31G(d) (6D, 7F)
   372 basis functions,   752 primitive gaussians,   372 cartesian basis functions
    93 alpha electrons       93 beta electrons
 Requested convergence on RMS density matrix=1.00D-08 within  64 cycles.
 Requested convergence on MAX density matrix=1.00D-06.
 Requested convergence on             energy=1.00D-06.
 SCF Done:  E(RHF) =  -1964.69279473     A.U. after   13 cycles
            NFock= 13  Conv=0.60D-08     -V/T= 2.0006
 Mulliken charges:
     1  C   -0.487441
     2  H    0.175500
     3  H    0.155111
     4  H    0.175263
     5  C    0.018395
     6  H    0.137026
     7  H    0.135024
     8  O   -0.613761
     9  C    0.002804
    10  H    0.140286
    11  H    0.187160
    12  C    0.003743
    13  H    0.143237
    14  H    0.141568
    15  O   -0.619625
    16  C    0.009780
    17  H    0.138028
    18  H    0.150731
    19  C   -0.001552
    20  H    0.161923
    21  H    0.169403
    22  O   -0.640229
    23  C    0.028577
    24  H    0.187581
    25  H    0.146795
    26  C   -0.501101
    27  H    0.200571
    28  H    0.205129
    29  S    0.116977
    30  C   -0.472968
    31  H    0.204257
    32  H    0.218404
    33  C   -0.468537
    34  H    0.207144
    35  H    0.188940
    36  S    0.144833
    37  C   -0.503525
    38  H    0.201607
    39  H    0.216273
    40  C   -0.454626
    41  H    0.192175
    42  H    0.200713
    43  S    0.109994
    44  C   -0.475216
    45  H    0.190217
    46  H    0.199067
    47  C   -0.475539
    48  H    0.164429
    49  H    0.166932
    50  H    0.178523
 Sum of Mulliken charges =  -0.00000
 Dipole moment (field-independent basis, Debye):
    X=             -5.4843    Y=              0.6491    Z=              0.7283  Tot=              5.5704
 Quadrupole moment (field-independent basis, Debye-Ang):
   XX=           -153.0112   YY=           -155.4381   ZZ=           -134.5026
   XY=            -11.7394   XZ=             14.1828   YZ=              1.8578
 Traceless Quadrupole moment (field-independent basis, Debye-Ang):
   XX=             -5.3605   YY=             -7.7875   ZZ=             13.1480
   XY=            -11.7394   XZ=             14.1828   YZ=              1.8578
 Octapole moment (field-independent basis, Debye-Ang**2):
  XXX=           -424.9282  YYY=           -847.0171  ZZZ=            -40.4072  XYY=           -140.1556
  XXY=           -323.6537  XXZ=            -54.4699  XZZ=            -83.8215  YZZ=           -217.0197
  YYZ=            -39.8591  XYZ=            -11.9245
 Hexadecapole moment (field-independent basis, Debye-Ang**3):
 XXXX=         -11641.2581 YYYY=         -10529.8172 ZZZZ=          -4062.6703 XXXY=          -4404.0474
 XXXZ=          -1781.6983 YYYX=          -4698.0350 YYYZ=          -2385.4484 ZZZX=          -1698.7216
 ZZZY=          -1911.3699 XXYY=          -3932.3748 XXZZ=          -2558.6772 YYZZ=          -2145.3538
 XXYZ=           -768.9659 YYXZ=           -749.8832 ZZXY=          -1237.6016
 Merz-Kollman atomic radii used.
 Atom Element Radius
    1     6    1.50
    2     1    1.20
    3     1    1.20
    4     1    1.20
    5     6    1.50
    6     1    1.20
    7     1    1.20
    8     8    1.40
    9     6    1.50
   10     1    1.20
   11     1    1.20
   12     6    1.50
   13     1    1.20
   14     1    1.20
   15     8    1.40
   16     6    1.50
   17     1    1.20
   18     1    1.20
   19     6    1.50
   20     1    1.20
   21     1    1.20
   22     8    1.40
   23     6    1.50
   24     1    1.20
   25     1    1.20
   26     6    1.50
   27     1    1.20
   28     1    1.20
   29    16    1.75
   30     6    1.50
   31     1    1.20
   32     1    1.20
   33     6    1.50
   34     1    1.20
   35     1    1.20
   36    16    1.75
   37     6    1.50
   38     1    1.20
   39     1    1.20
   40     6    1.50
   41     1    1.20
   42     1    1.20
   43    16    1.75
   44     6    1.50
   45     1    1.20
   46     1    1.20
   47     6    1.50
   48     1    1.20
   49     1    1.20
   50     1    1.20
 Generate VDW surfaces: Layer= 4 Dens= 1 Start= 1.400 Inc= 0.200
            Electrostatic Properties Using The SCF Density.


       Atomic Center    1 is at  -6.315749 -3.242963 -0.479577
       Atomic Center    2 is at  -6.015189 -2.797376  0.461800
       Atomic Center    3 is at  -7.400301 -3.274112 -0.517776
       Atomic Center    4 is at  -5.938464 -4.258687 -0.510716
       Atomic Center    5 is at  -5.765305 -2.440284 -1.642042
       Atomic Center    6 is at  -6.073656 -2.882097 -2.589179
       Atomic Center    7 is at  -6.159528 -1.426437 -1.614380
       Atomic Center    8 is at  -4.369978 -2.437667 -1.549803
       Atomic Center    9 is at  -3.683784 -1.793362 -2.578345
       Atomic Center   10 is at  -4.142769 -2.010723 -3.542371
       Atomic Center   11 is at  -2.681461 -2.201595 -2.584762
       Atomic Center   12 is at  -3.590572 -0.288673 -2.404821
       Atomic Center   13 is at  -3.124848  0.138912 -3.292919
       Atomic Center   14 is at  -4.580200  0.155124 -2.310931
       Atomic Center   15 is at  -2.826602 -0.007349 -1.272653
       Atomic Center   16 is at  -2.698137  1.349526 -0.977482
       Atomic Center   17 is at  -3.677902  1.782189 -0.771920
       Atomic Center   18 is at  -2.265289  1.888149 -1.818829
       Atomic Center   19 is at  -1.817664  1.530327  0.243714
       Atomic Center   20 is at  -2.167795  0.875711  1.037807
       Atomic Center   21 is at  -1.911888  2.555252  0.584159
       Atomic Center   22 is at  -0.456304  1.328079  0.000000
       Atomic Center   23 is at   0.000000  0.000000  0.000000
       Atomic Center   24 is at  -0.383389 -0.541431 -0.853440
       Atomic Center   25 is at  -0.349045 -0.502472  0.901310
       Atomic Center   26 is at   1.518148  0.000000  0.000000
       Atomic Center   27 is at   1.863143 -1.016274  0.155939
       Atomic Center   28 is at   1.893225  0.592711  0.824379
       Atomic Center   29 is at   2.330273  0.496607 -1.547645
       Atomic Center   30 is at   2.021246  2.284674 -1.684519
       Atomic Center   31 is at   2.555610  2.572243 -2.581970
       Atomic Center   32 is at   0.967398  2.450632 -1.850518
       Atomic Center   33 is at   2.463754  3.158563 -0.513954
       Atomic Center   34 is at   1.885562  2.915836  0.365983
       Atomic Center   35 is at   2.248757  4.189919 -0.773193
       Atomic Center   36 is at   4.247759  3.023220 -0.168855
       Atomic Center   37 is at   4.513965  4.521327  0.823545
       Atomic Center   38 is at   4.085394  5.373578  0.309272
       Atomic Center   39 is at   5.586946  4.665065  0.844761
       Atomic Center   40 is at   3.977188  4.423667  2.249653
       Atomic Center   41 is at   2.910401  4.244993  2.240520
       Atomic Center   42 is at   4.454905  3.599859  2.764795
       Atomic Center   43 is at   4.332169  5.974561  3.137493
       Atomic Center   44 is at   3.826215  5.548454  4.831514
       Atomic Center   45 is at   4.335425  4.638229  5.127193
       Atomic Center   46 is at   4.224157  6.347250  5.446032
       Atomic Center   47 is at   2.320746  5.423489  5.046659
       Atomic Center   48 is at   1.897116  4.614782  4.461505
       Atomic Center   49 is at   2.111139  5.217113  6.092533
       Atomic Center   50 is at   1.812778  6.340534  4.771400
      ESP Fit Center   51 is at  -6.840749 -4.152290  1.339076
      ESP Fit Center   52 is at  -7.506714 -1.868517  0.570423
      ESP Fit Center   53 is at  -7.506714 -4.617409  0.570423
      ESP Fit Center   54 is at  -7.506714 -4.617409 -1.529577
      ESP Fit Center   55 is at  -6.015189 -2.797376  2.141800
      ESP Fit Center   56 is at  -5.027710 -2.797376  1.820949
      ESP Fit Center   57 is at  -5.710041 -1.858227  1.820949
      ESP Fit Center   58 is at  -6.814076 -2.216950  1.820949
      ESP Fit Center   59 is at  -6.814076 -3.377802  1.820949
      ESP Fit Center   60 is at  -5.710041 -3.736525  1.820949
      ESP Fit Center   61 is at  -4.417414 -2.797376  0.980949
      ESP Fit Center   62 is at  -4.791222 -1.770346  0.980949
      ESP Fit Center   63 is at  -5.737738 -1.223875  0.980949
      ESP Fit Center   64 is at  -6.814076 -1.413662  0.980949
      ESP Fit Center   65 is at  -7.516606 -2.250905  0.980949
      ESP Fit Center   66 is at  -4.791222 -3.824406  0.980949
      ESP Fit Center   67 is at  -8.199188 -2.693686  0.841373
      ESP Fit Center   68 is at  -8.199188 -3.854538  0.841373
      ESP Fit Center   69 is at  -8.199188 -1.890398  0.001373
      ESP Fit Center   70 is at  -8.901718 -2.727641  0.001373
      ESP Fit Center   71 is at  -8.901718 -3.820583  0.001373
      ESP Fit Center   72 is at  -8.199188 -4.657826  0.001373
      ESP Fit Center   73 is at  -8.199188 -1.890398 -1.036925
      ESP Fit Center   74 is at  -8.901718 -2.727641 -1.036925
      ESP Fit Center   75 is at  -8.901718 -3.820583 -1.036925
      ESP Fit Center   76 is at  -8.199188 -4.657826 -1.036925
      ESP Fit Center   77 is at  -8.199188 -2.693686 -1.876925
      ESP Fit Center   78 is at  -8.199188 -3.854538 -1.876925
      ESP Fit Center   79 is at  -4.950985 -4.258687  0.848433
      ESP Fit Center   80 is at  -6.737351 -4.839113  0.848433
      ESP Fit Center   81 is at  -5.633316 -5.197836  0.848433
      ESP Fit Center   82 is at  -4.340689 -4.258687  0.008433
      ESP Fit Center   83 is at  -6.737351 -5.642401  0.008433
      ESP Fit Center   84 is at  -5.661013 -5.832188  0.008433
      ESP Fit Center   85 is at  -4.714497 -5.285717  0.008433
      ESP Fit Center   86 is at  -6.737351 -5.642401 -1.029865
      ESP Fit Center   87 is at  -5.661013 -5.832188 -1.029865
      ESP Fit Center   88 is at  -4.714497 -5.285717 -1.029865
      ESP Fit Center   89 is at  -6.737351 -4.839113 -1.869865
      ESP Fit Center   90 is at  -5.633316 -5.197836 -1.869865
      ESP Fit Center   91 is at  -7.804283 -1.937721 -1.642042
      ESP Fit Center   92 is at  -7.510290 -1.927910 -2.692042
      ESP Fit Center   93 is at  -7.575073 -2.335626 -3.108328
      ESP Fit Center   94 is at  -7.575073 -3.428568 -3.108328
      ESP Fit Center   95 is at  -6.872543 -4.265811 -3.108328
      ESP Fit Center   96 is at  -5.796205 -4.455598 -3.108328
      ESP Fit Center   97 is at  -4.849689 -3.909127 -3.108328
      ESP Fit Center   98 is at  -6.872543 -2.301671 -3.948328
      ESP Fit Center   99 is at  -6.872543 -3.462523 -3.948328
      ESP Fit Center  100 is at  -5.768508 -3.821246 -3.948328
      ESP Fit Center  101 is at  -6.073656 -2.882097 -4.269179
      ESP Fit Center  102 is at  -5.854380 -0.487288 -0.255231
      ESP Fit Center  103 is at  -6.958415 -0.846011 -0.255231
      ESP Fit Center  104 is at  -5.882077  0.147064 -1.095231
      ESP Fit Center  105 is at  -6.958415 -0.042723 -1.095231
      ESP Fit Center  106 is at  -7.660945 -0.879966 -1.095231
      ESP Fit Center  107 is at  -6.958415 -0.042723 -2.133529
      ESP Fit Center  108 is at  -7.660945 -0.879966 -2.133529
      ESP Fit Center  109 is at  -6.958415 -0.846011 -2.973529
      ESP Fit Center  110 is at  -4.369978 -2.437667  0.410197
      ESP Fit Center  111 is at  -3.389978 -2.437667  0.147607
      ESP Fit Center  112 is at  -3.879978 -1.588962  0.147607
      ESP Fit Center  113 is at  -4.859978 -1.588962  0.147607
      ESP Fit Center  114 is at  -3.879978 -3.286372  0.147607
      ESP Fit Center  115 is at  -2.672568 -2.437667 -0.569803
      ESP Fit Center  116 is at  -4.894506 -0.823334 -0.569803
      ESP Fit Center  117 is at  -3.845450 -4.052000 -0.569803
      ESP Fit Center  118 is at  -2.996745 -3.435379 -0.569803
      ESP Fit Center  119 is at  -4.369978 -4.397667 -1.549803
      ESP Fit Center  120 is at  -3.389978 -4.135077 -1.549803
      ESP Fit Center  121 is at  -3.845450 -4.052000 -2.529803
      ESP Fit Center  122 is at  -3.430657 -3.878051 -2.578345
      ESP Fit Center  123 is at  -2.633784 -1.793362 -4.396998
      ESP Fit Center  124 is at  -4.941656 -0.627009 -4.061520
      ESP Fit Center  125 is at  -5.644186 -1.464252 -4.061520
      ESP Fit Center  126 is at  -4.941656 -3.394437 -4.061520
      ESP Fit Center  127 is at  -3.865318 -3.584224 -4.061520
      ESP Fit Center  128 is at  -3.155290 -2.010723 -4.901520
      ESP Fit Center  129 is at  -3.837621 -1.071574 -4.901520
      ESP Fit Center  130 is at  -4.941656 -1.430297 -4.901520
      ESP Fit Center  131 is at  -4.941656 -2.591149 -4.901520
      ESP Fit Center  132 is at  -3.837621 -2.949872 -4.901520
      ESP Fit Center  133 is at  -4.142769 -2.010723 -5.222371
      ESP Fit Center  134 is at  -1.693982 -2.201595 -1.225613
      ESP Fit Center  135 is at  -2.376313 -3.140744 -1.225613
      ESP Fit Center  136 is at  -1.083686 -2.201595 -2.065613
      ESP Fit Center  137 is at  -1.457494 -1.174565 -2.065613
      ESP Fit Center  138 is at  -2.404010 -3.775096 -2.065613
      ESP Fit Center  139 is at  -1.457494 -3.228625 -2.065613
      ESP Fit Center  140 is at  -1.083686 -2.201595 -3.103911
      ESP Fit Center  141 is at  -1.457494 -1.174565 -3.103911
      ESP Fit Center  142 is at  -2.404010 -3.775096 -3.103911
      ESP Fit Center  143 is at  -1.457494 -3.228625 -3.103911
      ESP Fit Center  144 is at  -1.693982 -2.201595 -3.943911
      ESP Fit Center  145 is at  -2.376313 -3.140744 -3.943911
      ESP Fit Center  146 is at  -4.640572 -0.288673 -4.223474
      ESP Fit Center  147 is at  -1.527073  0.138912 -2.773770
      ESP Fit Center  148 is at  -1.527073  0.138912 -3.812068
      ESP Fit Center  149 is at  -1.900881  1.165942 -3.812068
      ESP Fit Center  150 is at  -2.847397  1.712413 -3.812068
      ESP Fit Center  151 is at  -3.923735  1.522626 -3.812068
      ESP Fit Center  152 is at  -1.900881 -0.888118 -3.812068
      ESP Fit Center  153 is at  -2.137369  0.138912 -4.652068
      ESP Fit Center  154 is at  -2.819700  1.078061 -4.652068
      ESP Fit Center  155 is at  -3.923735  0.719338 -4.652068
      ESP Fit Center  156 is at  -3.923735 -0.441514 -4.652068
      ESP Fit Center  157 is at  -2.819700 -0.800237 -4.652068
      ESP Fit Center  158 is at  -3.124848  0.138912 -4.972919
      ESP Fit Center  159 is at  -5.379087  0.735550 -0.951782
      ESP Fit Center  160 is at  -5.379087  1.538838 -1.791782
      ESP Fit Center  161 is at  -6.081617  0.701595 -1.791782
      ESP Fit Center  162 is at  -4.302749  1.728625 -2.830080
      ESP Fit Center  163 is at  -5.379087  1.538838 -2.830080
      ESP Fit Center  164 is at  -6.081617  0.701595 -2.830080
      ESP Fit Center  165 is at  -5.379087  0.735550 -3.670080
      ESP Fit Center  166 is at  -5.379087 -0.425302 -3.670080
      ESP Fit Center  167 is at  -3.806602 -0.007349  0.424757
      ESP Fit Center  168 is at  -3.316602 -0.856054  0.424757
      ESP Fit Center  169 is at  -2.336602 -0.856054  0.424757
      ESP Fit Center  170 is at  -4.524012 -0.007349 -0.292653
      ESP Fit Center  171 is at  -2.302074 -1.621682 -0.292653
      ESP Fit Center  172 is at  -1.453369 -1.005061 -2.252653
      ESP Fit Center  173 is at  -2.445010  3.434215 -0.977482
      ESP Fit Center  174 is at  -4.476789  2.362615  0.587229
      ESP Fit Center  175 is at  -4.476789  1.201763  0.587229
      ESP Fit Center  176 is at  -3.400451  3.355690 -0.252771
      ESP Fit Center  177 is at  -4.476789  3.165903 -0.252771
      ESP Fit Center  178 is at  -5.179319  2.328660 -0.252771
      ESP Fit Center  179 is at  -5.179319  1.235718 -0.252771
      ESP Fit Center  180 is at  -4.476789  0.398475 -0.252771
      ESP Fit Center  181 is at  -3.400451  3.355690 -1.291069
      ESP Fit Center  182 is at  -4.476789  3.165903 -1.291069
      ESP Fit Center  183 is at  -5.179319  2.328660 -1.291069
      ESP Fit Center  184 is at  -4.476789  2.362615 -2.131069
      ESP Fit Center  185 is at  -1.041322  2.915179 -1.299680
      ESP Fit Center  186 is at  -1.987838  3.461650 -1.299680
      ESP Fit Center  187 is at  -0.667514  1.888149 -2.337978
      ESP Fit Center  188 is at  -1.041322  2.915179 -2.337978
      ESP Fit Center  189 is at  -1.987838  3.461650 -2.337978
      ESP Fit Center  190 is at  -3.064176  3.271863 -2.337978
      ESP Fit Center  191 is at  -1.041322  0.861119 -2.337978
      ESP Fit Center  192 is at  -1.277810  1.888149 -3.177978
      ESP Fit Center  193 is at  -1.960141  2.827298 -3.177978
      ESP Fit Center  194 is at  -3.064176  2.468575 -3.177978
      ESP Fit Center  195 is at  -2.265289  1.888149 -3.498829
      ESP Fit Center  196 is at  -0.767664  1.530327  2.062367
      ESP Fit Center  197 is at  -3.562649  2.042701  1.293714
      ESP Fit Center  198 is at  -1.062168  3.184632 -0.806286
      ESP Fit Center  199 is at  -2.167795  0.875711  2.717807
      ESP Fit Center  200 is at  -1.180316  0.875711  2.396956
      ESP Fit Center  201 is at  -1.862647  1.814860  2.396956
      ESP Fit Center  202 is at  -2.966682  1.456137  2.396956
      ESP Fit Center  203 is at  -2.966682  0.295285  2.396956
      ESP Fit Center  204 is at  -1.862647 -0.063438  2.396956
      ESP Fit Center  205 is at  -3.669212  1.422182  1.556956
      ESP Fit Center  206 is at  -3.669212  0.329240  1.556956
      ESP Fit Center  207 is at  -2.966682 -0.508003  1.556956
      ESP Fit Center  208 is at  -1.890344 -0.697790  1.556956
      ESP Fit Center  209 is at  -1.911888  2.555252  2.264159
      ESP Fit Center  210 is at  -0.924409  2.555252  1.943308
      ESP Fit Center  211 is at  -1.606740  3.494401  1.943308
      ESP Fit Center  212 is at  -2.710775  3.135678  1.943308
      ESP Fit Center  213 is at  -0.687921  3.582282  1.103308
      ESP Fit Center  214 is at  -1.634437  4.128753  1.103308
      ESP Fit Center  215 is at  -2.710775  3.938966  1.103308
      ESP Fit Center  216 is at  -3.413305  3.101723  1.103308
      ESP Fit Center  217 is at  -0.687921  3.582282  0.065010
      ESP Fit Center  218 is at  -1.634437  4.128753  0.065010
      ESP Fit Center  219 is at  -2.710775  3.938966  0.065010
      ESP Fit Center  220 is at  -1.606740  3.494401 -0.774990
      ESP Fit Center  221 is at  -0.456304  1.328079  1.960000
      ESP Fit Center  222 is at   0.523696  1.328079  1.697410
      ESP Fit Center  223 is at   0.033696  2.176784  1.697410
      ESP Fit Center  224 is at   0.068224  2.942412  0.980000
      ESP Fit Center  225 is at  -0.456304  3.288079  0.000000
      ESP Fit Center  226 is at  -0.456304  1.328079 -1.960000
      ESP Fit Center  227 is at   0.525000  0.909327  1.818653
      ESP Fit Center  228 is at  -1.571873 -1.392558  0.000000
      ESP Fit Center  229 is at  -0.744670 -1.963534  0.000000
      ESP Fit Center  230 is at   0.253127 -2.084689  0.000000
      ESP Fit Center  231 is at  -1.182276 -1.925145 -0.334291
      ESP Fit Center  232 is at  -0.105938 -2.114932 -0.334291
      ESP Fit Center  233 is at  -1.182276 -1.925145 -1.372589
      ESP Fit Center  234 is at  -0.105938 -2.114932 -1.372589
      ESP Fit Center  235 is at   0.840578 -1.568461 -1.372589
      ESP Fit Center  236 is at  -0.078241  0.397718 -2.212589
      ESP Fit Center  237 is at  -1.182276 -1.121857 -2.212589
      ESP Fit Center  238 is at  -0.078241 -1.480580 -2.212589
      ESP Fit Center  239 is at  -0.383389 -0.541431 -2.533440
      ESP Fit Center  240 is at  -0.349045 -0.502472  2.581310
      ESP Fit Center  241 is at   0.638434 -0.502472  2.260459
      ESP Fit Center  242 is at  -0.043897  0.436677  2.260459
      ESP Fit Center  243 is at  -1.147932  0.077954  2.260459
      ESP Fit Center  244 is at  -1.147932 -1.082898  2.260459
      ESP Fit Center  245 is at  -0.043897 -1.441621  2.260459
      ESP Fit Center  246 is at  -1.850462 -1.048943  1.420459
      ESP Fit Center  247 is at  -1.147932 -1.886186  1.420459
      ESP Fit Center  248 is at  -0.071594 -2.075973  1.420459
      ESP Fit Center  249 is at   0.874922 -1.529502  1.420459
      ESP Fit Center  250 is at  -1.850462 -1.048943  0.382161
      ESP Fit Center  251 is at  -1.147932 -1.886186  0.382161
      ESP Fit Center  252 is at  -0.071594 -2.075973  0.382161
      ESP Fit Center  253 is at   1.863143 -1.016274  1.835939
      ESP Fit Center  254 is at   2.850622 -1.016274  1.515088
      ESP Fit Center  255 is at   1.064256 -1.596700  1.515088
      ESP Fit Center  256 is at   2.168291 -1.955423  1.515088
      ESP Fit Center  257 is at   3.460918 -1.016274  0.675088
      ESP Fit Center  258 is at   1.064256 -2.399988  0.675088
      ESP Fit Center  259 is at   2.140594 -2.589775  0.675088
      ESP Fit Center  260 is at   3.087110 -2.043304  0.675088
      ESP Fit Center  261 is at   1.064256 -2.399988 -0.363210
      ESP Fit Center  262 is at   2.140594 -2.589775 -0.363210
      ESP Fit Center  263 is at   3.087110 -2.043304 -0.363210
      ESP Fit Center  264 is at   2.168291 -1.955423 -1.203210
      ESP Fit Center  265 is at   1.893225  0.592711  2.504379
      ESP Fit Center  266 is at   2.880704  0.592711  2.183528
      ESP Fit Center  267 is at   2.198373  1.531860  2.183528
      ESP Fit Center  268 is at   1.094338  1.173137  2.183528
      ESP Fit Center  269 is at   1.094338  0.012285  2.183528
      ESP Fit Center  270 is at   2.198373 -0.346438  2.183528
      ESP Fit Center  271 is at   3.491000  0.592711  1.343528
      ESP Fit Center  272 is at   3.117192 -0.434319  1.343528
      ESP Fit Center  273 is at   4.245760  0.496607 -0.020095
      ESP Fit Center  274 is at   3.941683 -0.538984 -0.020095
      ESP Fit Center  275 is at   4.718846  0.496607 -1.002469
      ESP Fit Center  276 is at   2.861781 -1.832080 -1.002469
      ESP Fit Center  277 is at   3.819524 -1.370855 -1.002469
      ESP Fit Center  278 is at   4.482303 -0.539756 -1.002469
      ESP Fit Center  279 is at   4.718846  0.496607 -2.092821
      ESP Fit Center  280 is at   0.841022 -1.370855 -2.092821
      ESP Fit Center  281 is at   1.798765 -1.832080 -2.092821
      ESP Fit Center  282 is at   2.861781 -1.832080 -2.092821
      ESP Fit Center  283 is at   3.819524 -1.370855 -2.092821
      ESP Fit Center  284 is at   4.482303 -0.539756 -2.092821
      ESP Fit Center  285 is at   4.245760  0.496607 -3.075195
      ESP Fit Center  286 is at   3.941683  1.532198 -3.075195
      ESP Fit Center  287 is at   0.492377  1.036262 -3.075195
      ESP Fit Center  288 is at   0.492377 -0.043048 -3.075195
      ESP Fit Center  289 is at   1.075896 -0.951022 -3.075195
      ESP Fit Center  290 is at   2.057671 -1.399383 -3.075195
      ESP Fit Center  291 is at   3.125995 -1.245781 -3.075195
      ESP Fit Center  292 is at   3.941683 -0.538984 -3.075195
      ESP Fit Center  293 is at   3.393288  0.496607 -3.755019
      ESP Fit Center  294 is at   1.798765  1.417205 -3.755019
      ESP Fit Center  295 is at   1.267258  0.496607 -3.755019
      ESP Fit Center  296 is at   1.798765 -0.423991 -3.755019
      ESP Fit Center  297 is at   2.861781 -0.423991 -3.755019
      ESP Fit Center  298 is at   2.330273  0.496607 -3.997645
      ESP Fit Center  299 is at   1.762425  4.084816 -2.734519
      ESP Fit Center  300 is at   4.153385  2.572243 -3.101119
      ESP Fit Center  301 is at   3.779577  3.599273 -3.101119
      ESP Fit Center  302 is at   2.833061  4.145744 -3.101119
      ESP Fit Center  303 is at   1.756723  3.955957 -3.101119
      ESP Fit Center  304 is at   3.543089  2.572243 -3.941119
      ESP Fit Center  305 is at   2.860758  3.511392 -3.941119
      ESP Fit Center  306 is at   1.756723  3.152669 -3.941119
      ESP Fit Center  307 is at   1.756723  1.991817 -3.941119
      ESP Fit Center  308 is at   2.860758  1.633094 -3.941119
      ESP Fit Center  309 is at   2.555610  2.572243 -4.261970
      ESP Fit Center  310 is at   0.168511  3.834346 -1.331369
      ESP Fit Center  311 is at  -0.534019  2.997103 -1.331369
      ESP Fit Center  312 is at   0.168511  3.834346 -2.369667
      ESP Fit Center  313 is at  -0.534019  2.997103 -2.369667
      ESP Fit Center  314 is at  -0.534019  1.904161 -2.369667
      ESP Fit Center  315 is at   0.168511  3.031058 -3.209667
      ESP Fit Center  316 is at   0.168511  1.870206 -3.209667
      ESP Fit Center  317 is at   0.967398  2.450632 -3.530518
      ESP Fit Center  318 is at   0.424776  3.661126 -0.513954
      ESP Fit Center  319 is at   1.885562  2.915836  2.045983
      ESP Fit Center  320 is at   1.086675  3.496262  1.725132
      ESP Fit Center  321 is at   1.086675  2.335410  1.725132
      ESP Fit Center  322 is at   1.086675  4.299550  0.885132
      ESP Fit Center  323 is at   0.384145  3.462307  0.885132
      ESP Fit Center  324 is at   0.384145  3.462307 -0.153166
      ESP Fit Center  325 is at   1.449870  4.770345  0.585956
      ESP Fit Center  326 is at   2.526208  5.763420 -0.254044
      ESP Fit Center  327 is at   1.449870  5.573633 -0.254044
      ESP Fit Center  328 is at   0.747340  4.736390 -0.254044
      ESP Fit Center  329 is at   3.472724  5.216949 -1.292342
      ESP Fit Center  330 is at   2.526208  5.763420 -1.292342
      ESP Fit Center  331 is at   1.449870  5.573633 -1.292342
      ESP Fit Center  332 is at   0.747340  4.736390 -1.292342
      ESP Fit Center  333 is at   2.553905  5.129068 -2.132342
      ESP Fit Center  334 is at   1.449870  4.770345 -2.132342
      ESP Fit Center  335 is at   3.716251  2.102622  2.038519
      ESP Fit Center  336 is at   4.779267  2.102622  2.038519
      ESP Fit Center  337 is at   6.163246  3.023220  1.358695
      ESP Fit Center  338 is at   3.975157  1.127230  1.358695
      ESP Fit Center  339 is at   5.043481  1.280832  1.358695
      ESP Fit Center  340 is at   5.859169  1.987629  1.358695
      ESP Fit Center  341 is at   6.636332  3.023220  0.376321
      ESP Fit Center  342 is at   4.779267  0.694533  0.376321
      ESP Fit Center  343 is at   5.737010  1.155758  0.376321
      ESP Fit Center  344 is at   6.399789  1.986857  0.376321
      ESP Fit Center  345 is at   6.636332  3.023220 -0.714031
      ESP Fit Center  346 is at   6.399789  4.059583 -0.714031
      ESP Fit Center  347 is at   4.779267  0.694533 -0.714031
      ESP Fit Center  348 is at   5.737010  1.155758 -0.714031
      ESP Fit Center  349 is at   6.399789  1.986857 -0.714031
      ESP Fit Center  350 is at   6.163246  3.023220 -1.696405
      ESP Fit Center  351 is at   5.859169  4.058811 -1.696405
      ESP Fit Center  352 is at   5.043481  4.765608 -1.696405
      ESP Fit Center  353 is at   3.975157  4.919210 -1.696405
      ESP Fit Center  354 is at   5.043481  1.280832 -1.696405
      ESP Fit Center  355 is at   5.859169  1.987629 -1.696405
      ESP Fit Center  356 is at   5.310774  3.023220 -2.376229
      ESP Fit Center  357 is at   4.779267  3.943818 -2.376229
      ESP Fit Center  358 is at   3.716251  3.943818 -2.376229
      ESP Fit Center  359 is at   4.779267  2.102622 -2.376229
      ESP Fit Center  360 is at   4.247759  3.023220 -2.618855
      ESP Fit Center  361 is at   4.362845  6.947079  0.828421
      ESP Fit Center  362 is at   3.286507  6.757292  0.828421
      ESP Fit Center  363 is at   2.583977  5.920049  0.828421
      ESP Fit Center  364 is at   5.309361  6.400608 -0.209877
      ESP Fit Center  365 is at   4.362845  6.947079 -0.209877
      ESP Fit Center  366 is at   3.286507  6.757292 -0.209877
      ESP Fit Center  367 is at   2.583977  5.920049 -0.209877
      ESP Fit Center  368 is at   5.072873  5.373578 -1.049877
      ESP Fit Center  369 is at   4.390542  6.312727 -1.049877
      ESP Fit Center  370 is at   3.286507  5.954004 -1.049877
      ESP Fit Center  371 is at   4.085394  5.373578 -1.370728
      ESP Fit Center  372 is at   6.574425  4.665065  2.203910
      ESP Fit Center  373 is at   7.184721  4.665065  1.363910
      ESP Fit Center  374 is at   6.810913  5.692095  1.363910
      ESP Fit Center  375 is at   6.810913  3.638035  1.363910
      ESP Fit Center  376 is at   7.184721  4.665065  0.325612
      ESP Fit Center  377 is at   6.810913  5.692095  0.325612
      ESP Fit Center  378 is at   5.864397  6.238566  0.325612
      ESP Fit Center  379 is at   6.810913  3.638035  0.325612
      ESP Fit Center  380 is at   6.574425  4.665065 -0.514388
      ESP Fit Center  381 is at   5.892094  5.604214 -0.514388
      ESP Fit Center  382 is at   3.232518  2.460133  2.249653
      ESP Fit Center  383 is at   1.408984  4.791464  2.759669
      ESP Fit Center  384 is at   1.408984  3.698522  2.759669
      ESP Fit Center  385 is at   2.111514  2.861279  2.759669
      ESP Fit Center  386 is at   2.111514  5.628707  1.721371
      ESP Fit Center  387 is at   1.408984  4.791464  1.721371
      ESP Fit Center  388 is at   2.111514  4.825419  0.881371
      ESP Fit Center  389 is at   5.442384  3.599859  4.123944
      ESP Fit Center  390 is at   3.656018  3.019433  4.123944
      ESP Fit Center  391 is at   4.760053  2.660710  4.123944
      ESP Fit Center  392 is at   6.052680  3.599859  3.283944
      ESP Fit Center  393 is at   3.656018  2.216145  3.283944
      ESP Fit Center  394 is at   4.732356  2.026358  3.283944
      ESP Fit Center  395 is at   5.678872  2.572829  3.283944
      ESP Fit Center  396 is at   6.052680  3.599859  2.245646
      ESP Fit Center  397 is at   3.656018  2.216145  2.245646
      ESP Fit Center  398 is at   4.732356  2.026358  2.245646
      ESP Fit Center  399 is at   5.678872  2.572829  2.245646
      ESP Fit Center  400 is at   6.247656  5.974561  4.665043
      ESP Fit Center  401 is at   5.943579  7.010152  4.665043
      ESP Fit Center  402 is at   5.127891  7.716949  4.665043
      ESP Fit Center  403 is at   4.059567  7.870551  4.665043
      ESP Fit Center  404 is at   5.943579  4.938970  4.665043
      ESP Fit Center  405 is at   6.720742  5.974561  3.682669
      ESP Fit Center  406 is at   6.484199  7.010924  3.682669
      ESP Fit Center  407 is at   5.821420  7.842023  3.682669
      ESP Fit Center  408 is at   4.863677  8.303248  3.682669
      ESP Fit Center  409 is at   3.800661  8.303248  3.682669
      ESP Fit Center  410 is at   2.842918  7.842023  3.682669
      ESP Fit Center  411 is at   5.821420  4.107099  3.682669
      ESP Fit Center  412 is at   6.484199  4.938198  3.682669
      ESP Fit Center  413 is at   6.720742  5.974561  2.592317
      ESP Fit Center  414 is at   6.484199  7.010924  2.592317
      ESP Fit Center  415 is at   5.821420  7.842023  2.592317
      ESP Fit Center  416 is at   4.863677  8.303248  2.592317
      ESP Fit Center  417 is at   3.800661  8.303248  2.592317
      ESP Fit Center  418 is at   2.842918  7.842023  2.592317
      ESP Fit Center  419 is at   2.180139  7.010924  2.592317
      ESP Fit Center  420 is at   1.943596  5.974561  2.592317
      ESP Fit Center  421 is at   6.484199  4.938198  2.592317
      ESP Fit Center  422 is at   5.943579  7.010152  1.609943
      ESP Fit Center  423 is at   5.127891  7.716949  1.609943
      ESP Fit Center  424 is at   4.059567  7.870551  1.609943
      ESP Fit Center  425 is at   3.077792  7.422190  1.609943
      ESP Fit Center  426 is at   2.494273  6.514216  1.609943
      ESP Fit Center  427 is at   4.863677  6.895159  0.930119
      ESP Fit Center  428 is at   3.826215  5.548454  6.931514
      ESP Fit Center  429 is at   5.644868  5.548454  5.881514
      ESP Fit Center  430 is at   3.081545  7.511988  4.831514
      ESP Fit Center  431 is at   4.335425  4.638229  6.807193
      ESP Fit Center  432 is at   5.322904  4.638229  6.486342
      ESP Fit Center  433 is at   3.536538  4.057803  6.486342
      ESP Fit Center  434 is at   4.640573  3.699080  6.486342
      ESP Fit Center  435 is at   5.933200  4.638229  5.646342
      ESP Fit Center  436 is at   3.536538  3.254515  5.646342
      ESP Fit Center  437 is at   4.612876  3.064728  5.646342
      ESP Fit Center  438 is at   5.559392  3.611199  5.646342
      ESP Fit Center  439 is at   5.933200  4.638229  4.608044
      ESP Fit Center  440 is at   3.536538  3.254515  4.608044
      ESP Fit Center  441 is at   4.612876  3.064728  4.608044
      ESP Fit Center  442 is at   5.559392  3.611199  4.608044
      ESP Fit Center  443 is at   4.224157  6.347250  7.126032
      ESP Fit Center  444 is at   5.211636  6.347250  6.805181
      ESP Fit Center  445 is at   4.529305  7.286399  6.805181
      ESP Fit Center  446 is at   3.425270  6.927676  6.805181
      ESP Fit Center  447 is at   5.821932  6.347250  5.965181
      ESP Fit Center  448 is at   5.448124  7.374280  5.965181
      ESP Fit Center  449 is at   4.501608  7.920751  5.965181
      ESP Fit Center  450 is at   3.425270  7.730964  5.965181
      ESP Fit Center  451 is at   5.448124  7.374280  4.926883
      ESP Fit Center  452 is at   4.501608  7.920751  4.926883
      ESP Fit Center  453 is at   3.425270  7.730964  4.926883
      ESP Fit Center  454 is at   0.575761  5.935863  6.096659
      ESP Fit Center  455 is at   3.076242  3.769184  6.096659
      ESP Fit Center  456 is at   0.281768  4.920926  5.046659
      ESP Fit Center  457 is at   0.395699  4.068311  4.980654
      ESP Fit Center  458 is at   1.098229  3.231068  4.980654
      ESP Fit Center  459 is at   2.174567  3.041281  4.980654
      ESP Fit Center  460 is at   0.395699  5.161253  3.942356
      ESP Fit Center  461 is at   0.395699  4.068311  3.942356
      ESP Fit Center  462 is at   1.098229  3.231068  3.942356
      ESP Fit Center  463 is at   2.174567  3.041281  3.942356
      ESP Fit Center  464 is at   1.098229  5.195208  3.102356
      ESP Fit Center  465 is at   1.098229  4.034356  3.102356
      ESP Fit Center  466 is at   2.111139  5.217113  7.772533
      ESP Fit Center  467 is at   3.098618  5.217113  7.451682
      ESP Fit Center  468 is at   2.416287  6.156262  7.451682
      ESP Fit Center  469 is at   1.312252  5.797539  7.451682
      ESP Fit Center  470 is at   1.312252  4.636687  7.451682
      ESP Fit Center  471 is at   2.416287  4.277964  7.451682
      ESP Fit Center  472 is at   1.312252  6.600827  6.611682
      ESP Fit Center  473 is at   0.609722  5.763584  6.611682
      ESP Fit Center  474 is at   0.609722  4.670642  6.611682
      ESP Fit Center  475 is at   1.312252  3.833399  6.611682
      ESP Fit Center  476 is at   2.388590  3.643612  6.611682
      ESP Fit Center  477 is at   3.335106  4.190083  6.611682
      ESP Fit Center  478 is at   2.117926  7.279683  6.130549
      ESP Fit Center  479 is at   1.013891  6.920960  6.130549
      ESP Fit Center  480 is at   2.090229  7.914035  5.290549
      ESP Fit Center  481 is at   1.013891  7.724248  5.290549
      ESP Fit Center  482 is at   0.311361  6.887005  5.290549
      ESP Fit Center  483 is at   2.090229  7.914035  4.252251
      ESP Fit Center  484 is at   1.013891  7.724248  4.252251
      ESP Fit Center  485 is at   0.311361  6.887005  4.252251
      ESP Fit Center  486 is at   0.311361  5.794063  4.252251
      ESP Fit Center  487 is at   2.117926  7.279683  3.412251
      ESP Fit Center  488 is at   1.013891  6.920960  3.412251
      ESP Fit Center  489 is at   1.013891  5.760108  3.412251
      ESP Fit Center  490 is at   1.812778  6.340534  3.091400
      ESP Fit Center  491 is at  -6.836409 -4.144773  1.682748
      ESP Fit Center  492 is at  -7.544527 -4.661048  1.016799
      ESP Fit Center  493 is at  -4.737225 -4.257419  1.016799
      ESP Fit Center  494 is at  -7.774607 -1.413613  0.054473
      ESP Fit Center  495 is at  -7.774607 -5.072313  0.054473
      ESP Fit Center  496 is at  -7.544527 -4.661048 -1.975953
      ESP Fit Center  497 is at  -6.015189 -2.797376  2.381800
      ESP Fit Center  498 is at  -5.055189 -2.797376  2.124569
      ESP Fit Center  499 is at  -5.535189 -1.965992  2.124569
      ESP Fit Center  500 is at  -6.495189 -1.965992  2.124569
      ESP Fit Center  501 is at  -6.975189 -2.797376  2.124569
      ESP Fit Center  502 is at  -6.495189 -3.628760  2.124569
      ESP Fit Center  503 is at  -5.535189 -3.628760  2.124569
      ESP Fit Center  504 is at  -4.352420 -2.797376  1.421800
      ESP Fit Center  505 is at  -4.669981 -1.820025  1.421800
      ESP Fit Center  506 is at  -5.501365 -1.215989  1.421800
      ESP Fit Center  507 is at  -6.529013 -1.215989  1.421800
      ESP Fit Center  508 is at  -7.360397 -1.820025  1.421800
      ESP Fit Center  509 is at  -4.669981 -3.774727  1.421800
      ESP Fit Center  510 is at  -5.055189 -1.134607  0.461800
      ESP Fit Center  511 is at  -6.015189 -0.877376  0.461800
      ESP Fit Center  512 is at  -6.975189 -1.134607  0.461800
      ESP Fit Center  513 is at  -8.360301 -3.274112  1.144993
      ESP Fit Center  514 is at  -7.880301 -4.105496  1.144993
      ESP Fit Center  515 is at  -7.914125 -1.692725  0.442224
      ESP Fit Center  516 is at  -8.745509 -2.296761  0.442224
      ESP Fit Center  517 is at  -9.063070 -3.274112  0.442224
      ESP Fit Center  518 is at  -8.745509 -4.251463  0.442224
      ESP Fit Center  519 is at  -7.914125 -4.855499  0.442224
      ESP Fit Center  520 is at  -8.360301 -1.611343 -0.517776
      ESP Fit Center  521 is at  -9.063070 -2.314112 -0.517776
      ESP Fit Center  522 is at  -9.320301 -3.274112 -0.517776
      ESP Fit Center  523 is at  -9.063070 -4.234112 -0.517776
      ESP Fit Center  524 is at  -8.360301 -4.936881 -0.517776
      ESP Fit Center  525 is at  -8.745509 -2.296761 -1.477776
      ESP Fit Center  526 is at  -9.063070 -3.274112 -1.477776
      ESP Fit Center  527 is at  -8.745509 -4.251463 -1.477776
      ESP Fit Center  528 is at  -7.914125 -4.855499 -1.477776
      ESP Fit Center  529 is at  -8.360301 -3.274112 -2.180545
      ESP Fit Center  530 is at  -7.880301 -4.105496 -2.180545
      ESP Fit Center  531 is at  -6.418464 -5.090071  1.152053
      ESP Fit Center  532 is at  -5.458464 -5.090071  1.152053
      ESP Fit Center  533 is at  -4.275695 -4.258687  0.449284
      ESP Fit Center  534 is at  -7.283672 -5.236038  0.449284
      ESP Fit Center  535 is at  -6.452288 -5.840074  0.449284
      ESP Fit Center  536 is at  -5.424640 -5.840074  0.449284
      ESP Fit Center  537 is at  -4.593256 -5.236038  0.449284
      ESP Fit Center  538 is at  -6.898464 -5.921456 -0.510716
      ESP Fit Center  539 is at  -5.938464 -6.178687 -0.510716
      ESP Fit Center  540 is at  -4.978464 -5.921456 -0.510716
      ESP Fit Center  541 is at  -4.275695 -5.218687 -0.510716
      ESP Fit Center  542 is at  -7.283672 -5.236038 -1.470716
      ESP Fit Center  543 is at  -6.452288 -5.840074 -1.470716
      ESP Fit Center  544 is at  -5.424640 -5.840074 -1.470716
      ESP Fit Center  545 is at  -4.593256 -5.236038 -1.470716
      ESP Fit Center  546 is at  -6.418464 -5.090071 -2.173485
      ESP Fit Center  547 is at  -5.458464 -5.090071 -2.173485
      ESP Fit Center  548 is at  -4.985822 -0.733455 -0.145666
      ESP Fit Center  549 is at  -8.105132 -2.440284 -2.176092
      ESP Fit Center  550 is at  -7.993656 -2.882097 -2.589179
      ESP Fit Center  551 is at  -7.736425 -3.842097 -2.589179
      ESP Fit Center  552 is at  -7.033656 -4.544866 -2.589179
      ESP Fit Center  553 is at  -6.073656 -4.802097 -2.589179
      ESP Fit Center  554 is at  -7.418864 -1.904746 -3.549179
      ESP Fit Center  555 is at  -7.736425 -2.882097 -3.549179
      ESP Fit Center  556 is at  -7.418864 -3.859448 -3.549179
      ESP Fit Center  557 is at  -6.587480 -4.463484 -3.549179
      ESP Fit Center  558 is at  -5.559832 -4.463484 -3.549179
      ESP Fit Center  559 is at  -4.728448 -3.859448 -3.549179
      ESP Fit Center  560 is at  -6.553656 -2.050713 -4.251948
      ESP Fit Center  561 is at  -7.033656 -2.882097 -4.251948
      ESP Fit Center  562 is at  -6.553656 -3.713481 -4.251948
      ESP Fit Center  563 is at  -5.593656 -3.713481 -4.251948
      ESP Fit Center  564 is at  -6.073656 -2.882097 -4.509179
      ESP Fit Center  565 is at  -5.679528 -0.595053  0.048389
      ESP Fit Center  566 is at  -6.639528 -0.595053  0.048389
      ESP Fit Center  567 is at  -5.645704  0.154950 -0.654380
      ESP Fit Center  568 is at  -6.673352  0.154950 -0.654380
      ESP Fit Center  569 is at  -7.504736 -0.449086 -0.654380
      ESP Fit Center  570 is at  -7.119528  0.236332 -1.614380
      ESP Fit Center  571 is at  -7.822297 -0.466437 -1.614380
      ESP Fit Center  572 is at  -8.079528 -1.426437 -1.614380
      ESP Fit Center  573 is at  -6.673352  0.154950 -2.574380
      ESP Fit Center  574 is at  -7.504736 -0.449086 -2.574380
      ESP Fit Center  575 is at  -7.822297 -1.426437 -2.574380
      ESP Fit Center  576 is at  -6.639528 -0.595053 -3.277149
      ESP Fit Center  577 is at  -3.398078 -2.437667  0.468367
      ESP Fit Center  578 is at  -3.884028 -1.595977  0.468367
      ESP Fit Center  579 is at  -3.884028 -3.279357  0.468367
      ESP Fit Center  580 is at  -2.618675 -2.437667 -0.153186
      ESP Fit Center  581 is at  -3.828796 -4.103255 -0.153186
      ESP Fit Center  582 is at  -2.953144 -3.467057 -0.153186
      ESP Fit Center  583 is at  -4.106745 -4.605583 -1.051356
      ESP Fit Center  584 is at  -3.129416 -4.234931 -1.051356
      ESP Fit Center  585 is at  -2.436285 -3.452547 -1.051356
      ESP Fit Center  586 is at  -4.106745 -4.605583 -2.048250
      ESP Fit Center  587 is at  -3.129416 -4.234931 -2.048250
      ESP Fit Center  588 is at  -4.204444 -4.074525 -3.112395
      ESP Fit Center  589 is at  -3.163124 -4.074525 -3.112395
      ESP Fit Center  590 is at  -2.904301 -3.500191 -4.074721
      ESP Fit Center  591 is at  -2.642463 -1.793362 -4.740670
      ESP Fit Center  592 is at  -5.487977 -1.033372 -4.502371
      ESP Fit Center  593 is at  -5.805538 -2.010723 -4.502371
      ESP Fit Center  594 is at  -5.487977 -2.988074 -4.502371
      ESP Fit Center  595 is at  -4.656593 -3.592110 -4.502371
      ESP Fit Center  596 is at  -3.628945 -3.592110 -4.502371
      ESP Fit Center  597 is at  -2.797561 -2.988074 -4.502371
      ESP Fit Center  598 is at  -3.182769 -2.010723 -5.205140
      ESP Fit Center  599 is at  -3.662769 -1.179339 -5.205140
      ESP Fit Center  600 is at  -4.622769 -1.179339 -5.205140
      ESP Fit Center  601 is at  -5.102769 -2.010723 -5.205140
      ESP Fit Center  602 is at  -4.622769 -2.842107 -5.205140
      ESP Fit Center  603 is at  -3.662769 -2.842107 -5.205140
      ESP Fit Center  604 is at  -4.142769 -2.010723 -5.462371
      ESP Fit Center  605 is at  -1.721461 -2.201595 -0.921993
      ESP Fit Center  606 is at  -2.201461 -3.032979 -0.921993
      ESP Fit Center  607 is at  -1.018692 -2.201595 -1.624762
      ESP Fit Center  608 is at  -2.167637 -3.782982 -1.624762
      ESP Fit Center  609 is at  -1.336253 -3.178946 -1.624762
      ESP Fit Center  610 is at  -0.761461 -2.201595 -2.584762
      ESP Fit Center  611 is at  -1.018692 -1.241595 -2.584762
      ESP Fit Center  612 is at  -2.681461 -4.121595 -2.584762
      ESP Fit Center  613 is at  -1.721461 -3.864364 -2.584762
      ESP Fit Center  614 is at  -1.018692 -3.161595 -2.584762
      ESP Fit Center  615 is at  -1.018692 -2.201595 -3.544762
      ESP Fit Center  616 is at  -1.336253 -1.224244 -3.544762
      ESP Fit Center  617 is at  -2.167637 -3.782982 -3.544762
      ESP Fit Center  618 is at  -1.336253 -3.178946 -3.544762
      ESP Fit Center  619 is at  -1.721461 -2.201595 -4.247531
      ESP Fit Center  620 is at  -2.201461 -3.032979 -4.247531
      ESP Fit Center  621 is at  -1.250745 -0.288673 -2.938871
      ESP Fit Center  622 is at  -4.111232  1.992490 -2.938871
      ESP Fit Center  623 is at  -4.631893 -0.288673 -4.567146
      ESP Fit Center  624 is at  -1.204848  0.138912 -3.292919
      ESP Fit Center  625 is at  -1.462079  0.138912 -4.252919
      ESP Fit Center  626 is at  -1.779640  1.116263 -4.252919
      ESP Fit Center  627 is at  -2.611024  1.720299 -4.252919
      ESP Fit Center  628 is at  -3.638672  1.720299 -4.252919
      ESP Fit Center  629 is at  -4.470056  1.116263 -4.252919
      ESP Fit Center  630 is at  -1.779640 -0.838439 -4.252919
      ESP Fit Center  631 is at  -2.164848  0.138912 -4.955688
      ESP Fit Center  632 is at  -2.644848  0.970296 -4.955688
      ESP Fit Center  633 is at  -3.604848  0.970296 -4.955688
      ESP Fit Center  634 is at  -4.084848  0.138912 -4.955688
      ESP Fit Center  635 is at  -3.604848 -0.692472 -4.955688
      ESP Fit Center  636 is at  -2.644848 -0.692472 -4.955688
      ESP Fit Center  637 is at  -3.124848  0.138912 -5.212919
      ESP Fit Center  638 is at  -5.540200  0.155124 -0.648162
      ESP Fit Center  639 is at  -5.925408  1.132475 -1.350931
      ESP Fit Center  640 is at  -5.540200  1.817893 -2.310931
      ESP Fit Center  641 is at  -6.242969  1.115124 -2.310931
      ESP Fit Center  642 is at  -5.094024  1.736511 -3.270931
      ESP Fit Center  643 is at  -5.925408  1.132475 -3.270931
      ESP Fit Center  644 is at  -6.242969  0.155124 -3.270931
      ESP Fit Center  645 is at  -5.060200  0.986508 -3.973700
      ESP Fit Center  646 is at  -5.540200  0.155124 -3.973700
      ESP Fit Center  647 is at  -3.312552 -0.849039  0.745517
      ESP Fit Center  648 is at  -4.577905 -0.007349  0.123964
      ESP Fit Center  649 is at  -2.285420 -1.672937  0.123964
      ESP Fit Center  650 is at  -1.075299 -0.007349 -2.669270
      ESP Fit Center  651 is at  -3.218797  3.630689 -0.443432
      ESP Fit Center  652 is at  -3.218797  3.630689 -1.511532
      ESP Fit Center  653 is at  -3.926915  2.767611 -2.473858
      ESP Fit Center  654 is at  -4.157902  2.613573  0.890849
      ESP Fit Center  655 is at  -4.637902  1.782189  0.890849
      ESP Fit Center  656 is at  -4.157902  0.950805  0.890849
      ESP Fit Center  657 is at  -4.191726  3.363576  0.188080
      ESP Fit Center  658 is at  -5.023110  2.759540  0.188080
      ESP Fit Center  659 is at  -5.340671  1.782189  0.188080
      ESP Fit Center  660 is at  -5.023110  0.804838  0.188080
      ESP Fit Center  661 is at  -3.677902  3.702189 -0.771920
      ESP Fit Center  662 is at  -4.637902  3.444958 -0.771920
      ESP Fit Center  663 is at  -5.340671  2.742189 -0.771920
      ESP Fit Center  664 is at  -5.597902  1.782189 -0.771920
      ESP Fit Center  665 is at  -4.191726  3.363576 -1.731920
      ESP Fit Center  666 is at  -5.023110  2.759540 -1.731920
      ESP Fit Center  667 is at  -4.157902  2.613573 -2.434689
      ESP Fit Center  668 is at  -1.305289  3.550918 -1.818829
      ESP Fit Center  669 is at  -2.265289  3.808149 -1.818829
      ESP Fit Center  670 is at  -3.225289  3.550918 -1.818829
      ESP Fit Center  671 is at  -0.920081  2.865500 -2.778829
      ESP Fit Center  672 is at  -1.751465  3.469536 -2.778829
      ESP Fit Center  673 is at  -2.779113  3.469536 -2.778829
      ESP Fit Center  674 is at  -3.610497  2.865500 -2.778829
      ESP Fit Center  675 is at  -0.920081  0.910798 -2.778829
      ESP Fit Center  676 is at  -1.305289  1.888149 -3.481598
      ESP Fit Center  677 is at  -1.785289  2.719533 -3.481598
      ESP Fit Center  678 is at  -2.745289  2.719533 -3.481598
      ESP Fit Center  679 is at  -2.265289  1.888149 -3.738829
      ESP Fit Center  680 is at  -0.776343  1.530327  2.406039
      ESP Fit Center  681 is at  -1.297004  2.432137  2.406039
      ESP Fit Center  682 is at  -3.618052  2.058969  1.740090
      ESP Fit Center  683 is at  -2.167795  0.875711  2.957807
      ESP Fit Center  684 is at  -1.207795  0.875711  2.700576
      ESP Fit Center  685 is at  -1.687795  1.707095  2.700576
      ESP Fit Center  686 is at  -2.647795  1.707095  2.700576
      ESP Fit Center  687 is at  -3.127795  0.875711  2.700576
      ESP Fit Center  688 is at  -2.647795  0.044327  2.700576
      ESP Fit Center  689 is at  -1.687795  0.044327  2.700576
      ESP Fit Center  690 is at  -3.513003  1.853062  1.997807
      ESP Fit Center  691 is at  -3.830564  0.875711  1.997807
      ESP Fit Center  692 is at  -3.513003 -0.101640  1.997807
      ESP Fit Center  693 is at  -2.681619 -0.705676  1.997807
      ESP Fit Center  694 is at  -4.087795  0.875711  1.037807
      ESP Fit Center  695 is at  -3.830564 -0.084289  1.037807
      ESP Fit Center  696 is at  -3.127795 -0.787058  1.037807
      ESP Fit Center  697 is at  -1.911888  2.555252  2.504159
      ESP Fit Center  698 is at  -0.951888  2.555252  2.246928
      ESP Fit Center  699 is at  -1.431888  3.386636  2.246928
      ESP Fit Center  700 is at  -2.391888  3.386636  2.246928
      ESP Fit Center  701 is at  -2.871888  2.555252  2.246928
      ESP Fit Center  702 is at  -0.566680  3.532603  1.544159
      ESP Fit Center  703 is at  -1.398064  4.136639  1.544159
      ESP Fit Center  704 is at  -2.425712  4.136639  1.544159
      ESP Fit Center  705 is at  -3.257096  3.532603  1.544159
      ESP Fit Center  706 is at  -3.574657  2.555252  1.544159
      ESP Fit Center  707 is at  -0.249119  3.515252  0.584159
      ESP Fit Center  708 is at  -0.951888  4.218021  0.584159
      ESP Fit Center  709 is at  -1.911888  4.475252  0.584159
      ESP Fit Center  710 is at  -2.871888  4.218021  0.584159
      ESP Fit Center  711 is at  -3.574657  3.515252  0.584159
      ESP Fit Center  712 is at  -1.398064  4.136639 -0.375841
      ESP Fit Center  713 is at  -2.425712  4.136639 -0.375841
      ESP Fit Center  714 is at  -0.456304  1.328079  2.240000
      ESP Fit Center  715 is at   0.515596  1.328079  2.018170
      ESP Fit Center  716 is at   0.029646  2.169769  2.018170
      ESP Fit Center  717 is at   0.084878  2.993667  1.396617
      ESP Fit Center  718 is at  -0.193071  3.495995  0.498447
      ESP Fit Center  719 is at  -0.193071  3.495995 -0.498447
      ESP Fit Center  720 is at   0.520660  0.901810  2.162325
      ESP Fit Center  721 is at   0.520660 -2.281163 -0.534050
      ESP Fit Center  722 is at  -1.343389 -2.204200 -0.853440
      ESP Fit Center  723 is at  -0.383389 -2.461431 -0.853440
      ESP Fit Center  724 is at   0.576611 -2.204200 -0.853440
      ESP Fit Center  725 is at  -0.897213 -2.122818 -1.813440
      ESP Fit Center  726 is at   0.130435 -2.122818 -1.813440
      ESP Fit Center  727 is at  -0.863389  0.289953 -2.516209
      ESP Fit Center  728 is at  -0.863389 -1.372815 -2.516209
      ESP Fit Center  729 is at   0.096611 -1.372815 -2.516209
      ESP Fit Center  730 is at  -0.383389 -0.541431 -2.773440
      ESP Fit Center  731 is at  -0.349045 -0.502472  2.821310
      ESP Fit Center  732 is at   0.610955 -0.502472  2.564079
      ESP Fit Center  733 is at   0.130955  0.328912  2.564079
      ESP Fit Center  734 is at  -0.829045  0.328912  2.564079
      ESP Fit Center  735 is at  -1.309045 -0.502472  2.564079
      ESP Fit Center  736 is at  -0.829045 -1.333856  2.564079
      ESP Fit Center  737 is at   0.130955 -1.333856  2.564079
      ESP Fit Center  738 is at  -1.694253 -1.479823  1.861310
      ESP Fit Center  739 is at  -0.862869 -2.083859  1.861310
      ESP Fit Center  740 is at   0.164779 -2.083859  1.861310
      ESP Fit Center  741 is at   0.996163 -1.479823  1.861310
      ESP Fit Center  742 is at  -2.011814 -1.462472  0.901310
      ESP Fit Center  743 is at  -1.309045 -2.165241  0.901310
      ESP Fit Center  744 is at  -0.349045 -2.422472  0.901310
      ESP Fit Center  745 is at   2.038808 -0.901810  2.162325
      ESP Fit Center  746 is at   2.823143 -1.016274  1.818708
      ESP Fit Center  747 is at   1.383143 -1.847658  1.818708
      ESP Fit Center  748 is at   2.343143 -1.847658  1.818708
      ESP Fit Center  749 is at   3.525912 -1.016274  1.115939
      ESP Fit Center  750 is at   1.349319 -2.597661  1.115939
      ESP Fit Center  751 is at   2.376967 -2.597661  1.115939
      ESP Fit Center  752 is at   3.208351 -1.993625  1.115939
      ESP Fit Center  753 is at   0.903143 -2.679043  0.155939
      ESP Fit Center  754 is at   1.863143 -2.936274  0.155939
      ESP Fit Center  755 is at   2.823143 -2.679043  0.155939
      ESP Fit Center  756 is at   3.525912 -1.976274  0.155939
      ESP Fit Center  757 is at   1.349319 -2.597661 -0.804061
      ESP Fit Center  758 is at   2.376967 -2.597661 -0.804061
      ESP Fit Center  759 is at   1.893225  0.592711  2.744379
      ESP Fit Center  760 is at   2.853225  0.592711  2.487148
      ESP Fit Center  761 is at   2.373225  1.424095  2.487148
      ESP Fit Center  762 is at   1.413225  1.424095  2.487148
      ESP Fit Center  763 is at   0.933225  0.592711  2.487148
      ESP Fit Center  764 is at   1.413225 -0.238673  2.487148
      ESP Fit Center  765 is at   2.373225 -0.238673  2.487148
      ESP Fit Center  766 is at   3.555994  0.592711  1.784379
      ESP Fit Center  767 is at   3.238433 -0.384640  1.784379
      ESP Fit Center  768 is at   4.044916 -0.493342  0.432254
      ESP Fit Center  769 is at   4.061222 -1.425807 -0.476131
      ESP Fit Center  770 is at   4.693490 -0.555565 -0.476131
      ESP Fit Center  771 is at   5.130273  0.496607 -1.547645
      ESP Fit Center  772 is at   1.564017 -2.196505 -1.547645
      ESP Fit Center  773 is at   2.588624 -2.291449 -1.547645
      ESP Fit Center  774 is at   3.578340 -2.009850 -1.547645
      ESP Fit Center  775 is at   4.399498 -1.389741 -1.547645
      ESP Fit Center  776 is at   4.941195 -0.514870 -1.547645
      ESP Fit Center  777 is at   4.917136  0.496607 -2.619159
      ESP Fit Center  778 is at   4.693490  1.548779 -2.619159
      ESP Fit Center  779 is at  -0.200061  1.034446 -2.619159
      ESP Fit Center  780 is at   0.237457 -1.023913 -2.619159
      ESP Fit Center  781 is at   1.036842 -1.743682 -2.619159
      ESP Fit Center  782 is at   2.059872 -2.076085 -2.619159
      ESP Fit Center  783 is at   3.129658 -1.963646 -2.619159
      ESP Fit Center  784 is at   4.061222 -1.425807 -2.619159
      ESP Fit Center  785 is at   4.693490 -0.555565 -2.619159
      ESP Fit Center  786 is at   4.310172  0.496607 -3.527544
      ESP Fit Center  787 is at   4.044916  1.486556 -3.527544
      ESP Fit Center  788 is at   0.615630  1.486556 -3.527544
      ESP Fit Center  789 is at   0.350374  0.496607 -3.527544
      ESP Fit Center  790 is at   0.615630 -0.493342 -3.527544
      ESP Fit Center  791 is at   1.340324 -1.218036 -3.527544
      ESP Fit Center  792 is at   2.330273 -1.483292 -3.527544
      ESP Fit Center  793 is at   3.320222 -1.218036 -3.527544
      ESP Fit Center  794 is at   4.044916 -0.493342 -3.527544
      ESP Fit Center  795 is at   3.401787  0.496607 -4.134508
      ESP Fit Center  796 is at   2.866030  1.424565 -4.134508
      ESP Fit Center  797 is at   1.794516  1.424565 -4.134508
      ESP Fit Center  798 is at   1.258759  0.496607 -4.134508
      ESP Fit Center  799 is at   1.794516 -0.431351 -4.134508
      ESP Fit Center  800 is at   2.866030 -0.431351 -4.134508
      ESP Fit Center  801 is at   2.330273  0.496607 -4.347645
      ESP Fit Center  802 is at   0.979925  2.284674 -3.846844
      ESP Fit Center  803 is at   4.218379  2.572243 -3.541970
      ESP Fit Center  804 is at   3.900818  3.549594 -3.541970
      ESP Fit Center  805 is at   3.069434  4.153630 -3.541970
      ESP Fit Center  806 is at   2.041786  4.153630 -3.541970
      ESP Fit Center  807 is at   3.515610  2.572243 -4.244739
      ESP Fit Center  808 is at   3.035610  3.403627 -4.244739
      ESP Fit Center  809 is at   2.075610  3.403627 -4.244739
      ESP Fit Center  810 is at   1.595610  2.572243 -4.244739
      ESP Fit Center  811 is at   2.075610  1.740859 -4.244739
      ESP Fit Center  812 is at   3.035610  1.740859 -4.244739
      ESP Fit Center  813 is at   2.555610  2.572243 -4.501970
      ESP Fit Center  814 is at  -0.377810  3.427983 -0.890518
      ESP Fit Center  815 is at   0.007398  4.113401 -1.850518
      ESP Fit Center  816 is at  -0.695371  3.410632 -1.850518
      ESP Fit Center  817 is at   0.453574  4.032019 -2.810518
      ESP Fit Center  818 is at  -0.377810  3.427983 -2.810518
      ESP Fit Center  819 is at  -0.695371  2.450632 -2.810518
      ESP Fit Center  820 is at  -0.377810  1.473281 -2.810518
      ESP Fit Center  821 is at   0.487398  3.282016 -3.513287
      ESP Fit Center  822 is at   0.007398  2.450632 -3.513287
      ESP Fit Center  823 is at   0.487398  1.619248 -3.513287
      ESP Fit Center  824 is at   0.355643  4.173776  0.020096
      ESP Fit Center  825 is at   0.925562  2.915836  2.028752
      ESP Fit Center  826 is at   1.405562  2.084452  2.028752
      ESP Fit Center  827 is at   2.365562  2.084452  2.028752
      ESP Fit Center  828 is at   0.540354  3.893187  1.325983
      ESP Fit Center  829 is at   0.222793  3.875836  0.365983
      ESP Fit Center  830 is at   1.768757  5.021303  0.889576
      ESP Fit Center  831 is at   1.734933  5.771306  0.186807
      ESP Fit Center  832 is at   0.903549  5.167270  0.186807
      ESP Fit Center  833 is at   2.248757  6.109919 -0.773193
      ESP Fit Center  834 is at   1.288757  5.852688 -0.773193
      ESP Fit Center  835 is at   0.585988  5.149919 -0.773193
      ESP Fit Center  836 is at   2.762581  5.771306 -1.733193
      ESP Fit Center  837 is at   1.734933  5.771306 -1.733193
      ESP Fit Center  838 is at   0.903549  5.167270 -1.733193
      ESP Fit Center  839 is at   2.728757  5.021303 -2.435962
      ESP Fit Center  840 is at   1.768757  5.021303 -2.435962
      ESP Fit Center  841 is at   6.227658  3.023220  1.811044
      ESP Fit Center  842 is at   4.247759  1.043321  1.811044
      ESP Fit Center  843 is at   5.237708  1.308577  1.811044
      ESP Fit Center  844 is at   5.962402  2.033271  1.811044
      ESP Fit Center  845 is at   6.834622  3.023220  0.902659
      ESP Fit Center  846 is at   3.977358  0.450528  0.902659
      ESP Fit Center  847 is at   5.047144  0.562967  0.902659
      ESP Fit Center  848 is at   5.978708  1.100806  0.902659
      ESP Fit Center  849 is at   6.610976  1.971048  0.902659
      ESP Fit Center  850 is at   7.047759  3.023220 -0.168855
      ESP Fit Center  851 is at   5.495826  0.516763 -0.168855
      ESP Fit Center  852 is at   6.316984  1.136872 -0.168855
      ESP Fit Center  853 is at   6.858681  2.011743 -0.168855
      ESP Fit Center  854 is at   6.834622  3.023220 -1.240369
      ESP Fit Center  855 is at   6.610976  4.075392 -1.240369
      ESP Fit Center  856 is at   5.978708  4.945634 -1.240369
      ESP Fit Center  857 is at   5.978708  1.100806 -1.240369
      ESP Fit Center  858 is at   6.610976  1.971048 -1.240369
      ESP Fit Center  859 is at   6.227658  3.023220 -2.148754
      ESP Fit Center  860 is at   5.962402  4.013169 -2.148754
      ESP Fit Center  861 is at   5.237708  4.737863 -2.148754
      ESP Fit Center  862 is at   4.247759  5.003119 -2.148754
      ESP Fit Center  863 is at   5.237708  1.308577 -2.148754
      ESP Fit Center  864 is at   5.962402  2.033271 -2.148754
      ESP Fit Center  865 is at   5.319273  3.023220 -2.755718
      ESP Fit Center  866 is at   4.783516  3.951178 -2.755718
      ESP Fit Center  867 is at   4.783516  2.095262 -2.755718
      ESP Fit Center  868 is at   5.045394  7.036347  0.309272
      ESP Fit Center  869 is at   4.085394  7.293578  0.309272
      ESP Fit Center  870 is at   3.125394  7.036347  0.309272
      ESP Fit Center  871 is at   2.422625  6.333578  0.309272
      ESP Fit Center  872 is at   5.430602  6.350929 -0.650728
      ESP Fit Center  873 is at   4.599218  6.954965 -0.650728
      ESP Fit Center  874 is at   3.571570  6.954965 -0.650728
      ESP Fit Center  875 is at   2.740186  6.350929 -0.650728
      ESP Fit Center  876 is at   4.565394  6.204962 -1.353497
      ESP Fit Center  877 is at   3.605394  6.204962 -1.353497
      ESP Fit Center  878 is at   7.249715  4.665065  1.804761
      ESP Fit Center  879 is at   6.932154  5.642416  1.804761
      ESP Fit Center  880 is at   6.932154  3.687714  1.804761
      ESP Fit Center  881 is at   7.506946  4.665065  0.844761
      ESP Fit Center  882 is at   7.249715  5.625065  0.844761
      ESP Fit Center  883 is at   6.546946  6.327834  0.844761
      ESP Fit Center  884 is at   7.249715  3.705065  0.844761
      ESP Fit Center  885 is at   7.249715  4.665065 -0.115239
      ESP Fit Center  886 is at   6.932154  5.642416 -0.115239
      ESP Fit Center  887 is at   6.100770  6.246452 -0.115239
      ESP Fit Center  888 is at   6.546946  4.665065 -0.818008
      ESP Fit Center  889 is at   6.066946  5.496449 -0.818008
      ESP Fit Center  890 is at   2.748410  3.005582  3.746029
      ESP Fit Center  891 is at   2.396577  2.663606  3.200520
      ESP Fit Center  892 is at   1.247632  5.204993  2.240520
      ESP Fit Center  893 is at   0.990401  4.244993  2.240520
      ESP Fit Center  894 is at   1.247632  3.284993  2.240520
      ESP Fit Center  895 is at   1.565193  5.222344  1.280520
      ESP Fit Center  896 is at   3.974905  2.768475  4.427564
      ESP Fit Center  897 is at   4.934905  2.768475  4.427564
      ESP Fit Center  898 is at   6.117674  3.599859  3.724795
      ESP Fit Center  899 is at   3.109697  2.622508  3.724795
      ESP Fit Center  900 is at   3.941081  2.018472  3.724795
      ESP Fit Center  901 is at   4.968729  2.018472  3.724795
      ESP Fit Center  902 is at   5.800113  2.622508  3.724795
      ESP Fit Center  903 is at   6.374905  3.599859  2.764795
      ESP Fit Center  904 is at   3.494905  1.937090  2.764795
      ESP Fit Center  905 is at   4.454905  1.679859  2.764795
      ESP Fit Center  906 is at   5.414905  1.937090  2.764795
      ESP Fit Center  907 is at   6.117674  2.639859  2.764795
      ESP Fit Center  908 is at   6.312068  5.974561  5.117392
      ESP Fit Center  909 is at   6.046812  6.964510  5.117392
      ESP Fit Center  910 is at   6.919032  5.974561  4.209007
      ESP Fit Center  911 is at   6.695386  7.026733  4.209007
      ESP Fit Center  912 is at   6.063118  7.896975  4.209007
      ESP Fit Center  913 is at   5.131554  8.434814  4.209007
      ESP Fit Center  914 is at   4.061768  8.547253  4.209007
      ESP Fit Center  915 is at   3.038738  8.214850  4.209007
      ESP Fit Center  916 is at   6.063118  4.052147  4.209007
      ESP Fit Center  917 is at   6.695386  4.922389  4.209007
      ESP Fit Center  918 is at   7.132169  5.974561  3.137493
      ESP Fit Center  919 is at   6.943091  6.986038  3.137493
      ESP Fit Center  920 is at   6.401394  7.860909  3.137493
      ESP Fit Center  921 is at   5.580236  8.481018  3.137493
      ESP Fit Center  922 is at   4.590520  8.762617  3.137493
      ESP Fit Center  923 is at   3.565913  8.667673  3.137493
      ESP Fit Center  924 is at   2.644792  8.209009  3.137493
      ESP Fit Center  925 is at   1.951561  7.448571  3.137493
      ESP Fit Center  926 is at   6.401394  4.088213  3.137493
      ESP Fit Center  927 is at   6.943091  4.963084  3.137493
      ESP Fit Center  928 is at   6.919032  5.974561  2.065979
      ESP Fit Center  929 is at   6.695386  7.026733  2.065979
      ESP Fit Center  930 is at   6.063118  7.896975  2.065979
      ESP Fit Center  931 is at   5.131554  8.434814  2.065979
      ESP Fit Center  932 is at   4.061768  8.547253  2.065979
      ESP Fit Center  933 is at   3.038738  8.214850  2.065979
      ESP Fit Center  934 is at   2.239353  7.495081  2.065979
      ESP Fit Center  935 is at   1.801835  6.512400  2.065979
      ESP Fit Center  936 is at   6.046812  6.964510  1.157594
      ESP Fit Center  937 is at   5.322118  7.689204  1.157594
      ESP Fit Center  938 is at   4.332169  7.954460  1.157594
      ESP Fit Center  939 is at   3.342220  7.689204  1.157594
      ESP Fit Center  940 is at   2.617526  6.964510  1.157594
      ESP Fit Center  941 is at   2.352270  5.974561  1.157594
      ESP Fit Center  942 is at   3.826215  5.548454  7.231514
      ESP Fit Center  943 is at   6.166042  5.548454  5.365564
      ESP Fit Center  944 is at   4.335425  4.638229  7.047193
      ESP Fit Center  945 is at   5.295425  4.638229  6.789962
      ESP Fit Center  946 is at   3.855425  3.806845  6.789962
      ESP Fit Center  947 is at   4.815425  3.806845  6.789962
      ESP Fit Center  948 is at   5.998194  4.638229  6.087193
      ESP Fit Center  949 is at   3.821601  3.056842  6.087193
      ESP Fit Center  950 is at   4.849249  3.056842  6.087193
      ESP Fit Center  951 is at   5.680633  3.660878  6.087193
      ESP Fit Center  952 is at   6.255425  4.638229  5.127193
      ESP Fit Center  953 is at   3.375425  2.975460  5.127193
      ESP Fit Center  954 is at   4.335425  2.718229  5.127193
      ESP Fit Center  955 is at   5.295425  2.975460  5.127193
      ESP Fit Center  956 is at   5.998194  3.678229  5.127193
      ESP Fit Center  957 is at   4.224157  6.347250  7.366032
      ESP Fit Center  958 is at   5.184157  6.347250  7.108801
      ESP Fit Center  959 is at   4.704157  7.178634  7.108801
      ESP Fit Center  960 is at   3.744157  7.178634  7.108801
      ESP Fit Center  961 is at   4.704157  5.515866  7.108801
      ESP Fit Center  962 is at   5.886926  6.347250  6.406032
      ESP Fit Center  963 is at   5.569365  7.324601  6.406032
      ESP Fit Center  964 is at   4.737981  7.928637  6.406032
      ESP Fit Center  965 is at   3.710333  7.928637  6.406032
      ESP Fit Center  966 is at   2.878949  7.324601  6.406032
      ESP Fit Center  967 is at   6.144157  6.347250  5.446032
      ESP Fit Center  968 is at   5.886926  7.307250  5.446032
      ESP Fit Center  969 is at   5.184157  8.010019  5.446032
      ESP Fit Center  970 is at   4.224157  8.267250  5.446032
      ESP Fit Center  971 is at   3.264157  8.010019  5.446032
      ESP Fit Center  972 is at   2.053707  7.280786  6.543035
      ESP Fit Center  973 is at   1.091968  6.841574  6.543035
      ESP Fit Center  974 is at  -0.019081  5.423489  5.580709
      ESP Fit Center  975 is at   0.212635  4.408276  5.580709
      ESP Fit Center  976 is at   2.841406  3.142326  5.580709
      ESP Fit Center  977 is at  -0.019081  5.423489  4.512609
      ESP Fit Center  978 is at   0.551908  3.637431  5.421505
      ESP Fit Center  979 is at   1.383292  3.033395  5.421505
      ESP Fit Center  980 is at   2.410940  3.033395  5.421505
      ESP Fit Center  981 is at  -0.022884  4.614782  4.461505
      ESP Fit Center  982 is at   0.234347  3.654782  4.461505
      ESP Fit Center  983 is at   0.937116  2.952013  4.461505
      ESP Fit Center  984 is at   1.897116  2.694782  4.461505
      ESP Fit Center  985 is at   2.857116  2.952013  4.461505
      ESP Fit Center  986 is at   0.234347  4.614782  3.501505
      ESP Fit Center  987 is at   0.551908  3.637431  3.501505
      ESP Fit Center  988 is at   1.383292  3.033395  3.501505
      ESP Fit Center  989 is at   1.417116  5.446166  2.798736
      ESP Fit Center  990 is at   0.937116  4.614782  2.798736
      ESP Fit Center  991 is at   2.111139  5.217113  8.012533
      ESP Fit Center  992 is at   3.071139  5.217113  7.755302
      ESP Fit Center  993 is at   2.591139  6.048497  7.755302
      ESP Fit Center  994 is at   1.631139  6.048497  7.755302
      ESP Fit Center  995 is at   1.151139  5.217113  7.755302
      ESP Fit Center  996 is at   1.631139  4.385729  7.755302
      ESP Fit Center  997 is at   2.591139  4.385729  7.755302
      ESP Fit Center  998 is at   2.624963  6.798500  7.052533
      ESP Fit Center  999 is at   1.597315  6.798500  7.052533
      ESP Fit Center 1000 is at   0.765931  6.194464  7.052533
      ESP Fit Center 1001 is at   0.448370  5.217113  7.052533
      ESP Fit Center 1002 is at   0.765931  4.239762  7.052533
      ESP Fit Center 1003 is at   1.597315  3.635726  7.052533
      ESP Fit Center 1004 is at   2.624963  3.635726  7.052533
      ESP Fit Center 1005 is at   3.456347  4.239762  7.052533
      ESP Fit Center 1006 is at   0.448370  4.257113  6.092533
      ESP Fit Center 1007 is at   1.151139  3.554344  6.092533
      ESP Fit Center 1008 is at   1.332778  7.171918  6.434169
      ESP Fit Center 1009 is at   2.326602  7.921921  5.731400
      ESP Fit Center 1010 is at   1.298954  7.921921  5.731400
      ESP Fit Center 1011 is at   0.467570  7.317885  5.731400
      ESP Fit Center 1012 is at   0.150009  6.340534  5.731400
      ESP Fit Center 1013 is at   2.772778  8.003303  4.771400
      ESP Fit Center 1014 is at   1.812778  8.260534  4.771400
      ESP Fit Center 1015 is at   0.852778  8.003303  4.771400
      ESP Fit Center 1016 is at   0.150009  7.300534  4.771400
      ESP Fit Center 1017 is at  -0.107222  6.340534  4.771400
      ESP Fit Center 1018 is at   2.326602  7.921921  3.811400
      ESP Fit Center 1019 is at   1.298954  7.921921  3.811400
      ESP Fit Center 1020 is at   0.467570  7.317885  3.811400
      ESP Fit Center 1021 is at   0.150009  6.340534  3.811400
      ESP Fit Center 1022 is at   1.332778  7.171918  3.108631
      ESP Fit Center 1023 is at   0.852778  6.340534  3.108631
      ESP Fit Center 1024 is at  -6.832372 -4.137780  2.014898
      ESP Fit Center 1025 is at  -8.147602 -2.705082  1.429611
      ESP Fit Center 1026 is at  -7.566001 -4.685831  1.429611
      ESP Fit Center 1027 is at  -6.587455 -5.132719  1.429611
      ESP Fit Center 1028 is at  -4.709638 -4.275148  1.429611
      ESP Fit Center 1029 is at  -6.870822 -0.811030  0.553668
      ESP Fit Center 1030 is at  -7.871029 -1.292704  0.553668
      ESP Fit Center 1031 is at  -7.871029 -5.193222  0.553668
      ESP Fit Center 1032 is at  -7.871029 -5.193222 -1.512822
      ESP Fit Center 1033 is at  -7.566001 -4.685831 -2.388765
      ESP Fit Center 1034 is at  -6.587455 -5.132719 -2.388765
      ESP Fit Center 1035 is at  -6.015189 -2.797376  2.621800
      ESP Fit Center 1036 is at  -4.935189 -2.797376  2.332415
      ESP Fit Center 1037 is at  -5.475189 -1.862069  2.332415
      ESP Fit Center 1038 is at  -6.555189 -1.862069  2.332415
      ESP Fit Center 1039 is at  -7.095189 -2.797376  2.332415
      ESP Fit Center 1040 is at  -6.555189 -3.732683  2.332415
      ESP Fit Center 1041 is at  -5.475189 -3.732683  2.332415
      ESP Fit Center 1042 is at  -4.144574 -2.797376  1.541800
      ESP Fit Center 1043 is at  -4.441528 -1.786045  1.541800
      ESP Fit Center 1044 is at  -5.238107 -1.095805  1.541800
      ESP Fit Center 1045 is at  -6.281405 -0.945801  1.541800
      ESP Fit Center 1046 is at  -7.240181 -1.383660  1.541800
      ESP Fit Center 1047 is at  -4.441528 -3.808707  1.541800
      ESP Fit Center 1048 is at  -5.754830 -0.653125  0.461800
[...]
 1319 Fit      -0.019804
 1320 Fit      -0.014740
 1321 Fit       0.008671
 1322 Fit       0.005259
 1323 Fit      -0.000990
 1324 Fit      -0.011482
 1325 Fit      -0.007353
 1326 Fit      -0.000366
 1327 Fit       0.004252
 1328 Fit      -0.003391
 1329 Fit       0.000542
 1330 Fit       0.002732
 1331 Fit       0.000298
 1332 Fit      -0.005809
 1333 Fit      -0.000413
 1334 Fit       0.003810
 1335 Fit       0.009619
 1336 Fit       0.009214
 1337 Fit       0.007695
 1338 Fit       0.008505
 1339 Fit       0.004922
 1340 Fit       0.003406
 1341 Fit       0.005322
 1342 Fit       0.007144
 1343 Fit       0.008771
 1344 Fit       0.001581
 1345 Fit       0.007805
 1346 Fit       0.007975
 1347 Fit       0.008842
 1348 Fit       0.009131
 1349 Fit       0.008309
 1350 Fit       0.006369
 1351 Fit       0.008506
 1352 Fit       0.009482
 1353 Fit       0.010008
 1354 Fit       0.004514
 1355 Fit       0.008227
 1356 Fit      -0.014597
 1357 Fit      -0.015458
 1358 Fit      -0.009284
 1359 Fit      -0.004544
 1360 Fit      -0.021555
 1361 Fit      -0.024088
 1362 Fit      -0.020178
 1363 Fit      -0.012989
 1364 Fit      -0.008582
 1365 Fit      -0.031838
 1366 Fit      -0.028437
 1367 Fit      -0.022926
 1368 Fit      -0.016136
 1369 Fit      -0.015027
 1370 Fit      -0.009428
 1371 Fit      -0.032749
 1372 Fit      -0.026246
 1373 Fit      -0.020651
 1374 Fit      -0.021592
 1375 Fit      -0.017905
 1376 Fit      -0.014264
 1377 Fit      -0.009438
 1378 Fit      -0.029761
 1379 Fit      -0.025350
 1380 Fit      -0.025210
 1381 Fit      -0.022077
 1382 Fit      -0.017061
 1383 Fit      -0.009283
 1384 Fit      -0.030323
 1385 Fit      -0.027431
 1386 Fit      -0.022899
 1387 Fit      -0.017520
 1388 Fit      -0.021103
 1389 Fit      -0.006714
 1390 Fit      -0.006156
 1391 Fit      -0.005912
 1392 Fit      -0.003680
 1393 Fit       0.001546
 1394 Fit      -0.003154
 1395 Fit      -0.001128
 1396 Fit       0.001794
 1397 Fit       0.006081
 1398 Fit      -0.001066
 1399 Fit       0.004610
 1400 Fit      -0.005198
 1401 Fit      -0.002465
 1402 Fit      -0.002412
 1403 Fit      -0.004129
 1404 Fit      -0.007447
 1405 Fit      -0.003175
 1406 Fit      -0.003915
 1407 Fit      -0.003317
 1408 Fit      -0.003891
 1409 Fit       0.001875
 1410 Fit       0.009439
 1411 Fit       0.011152
 1412 Fit       0.005466
 1413 Fit      -0.000838
 1414 Fit       0.007562
 1415 Fit       0.004418
 1416 Fit       0.003281
 1417 Fit       0.002842
 1418 Fit      -0.002403
 1419 Fit      -0.003426
 1420 Fit      -0.007121
 1421 Fit      -0.005214
 1422 Fit      -0.002055
 1423 Fit      -0.013679
 1424 Fit      -0.012642
 1425 Fit      -0.008736
 1426 Fit      -0.004869
 1427 Fit      -0.002872
 1428 Fit      -0.001997
 1429 Fit      -0.009704
 1430 Fit      -0.019156
 1431 Fit      -0.019219
 1432 Fit      -0.016495
 1433 Fit      -0.013318
 1434 Fit      -0.011495
 1435 Fit      -0.011212
 1436 Fit      -0.010765
 1437 Fit      -0.006489
 1438 Fit      -0.014849
 1439 Fit      -0.018231
 1440 Fit      -0.019978
 1441 Fit      -0.018823
 1442 Fit      -0.017013
 1443 Fit      -0.016244
 1444 Fit      -0.016661
 1445 Fit      -0.016799
 1446 Fit      -0.014586
 1447 Fit      -0.009286
 1448 Fit      -0.001606
 1449 Fit      -0.004162
 1450 Fit      -0.012437
 1451 Fit      -0.015642
 1452 Fit      -0.016477
 1453 Fit      -0.016382
 1454 Fit      -0.016805
 1455 Fit      -0.017113
 1456 Fit      -0.015315
 1457 Fit      -0.009723
 1458 Fit      -0.000057
 1459 Fit      -0.009468
 1460 Fit      -0.011397
 1461 Fit      -0.011774
 1462 Fit      -0.010328
 1463 Fit      -0.004647
 1464 Fit       0.009160
 1465 Fit       0.008073
 1466 Fit      -0.001120
 1467 Fit       0.005723
 1468 Fit       0.009231
 1469 Fit       0.007637
 1470 Fit       0.002630
 1471 Fit       0.009211
 1472 Fit       0.008007
 1473 Fit       0.005610
 1474 Fit      -0.003337
 1475 Fit       0.010354
 1476 Fit       0.009455
 1477 Fit       0.007298
 1478 Fit       0.003017
 1479 Fit       0.008298
 1480 Fit       0.006276
 1481 Fit       0.007457
 1482 Fit       0.008369
 1483 Fit       0.002773
 1484 Fit       0.004215
 1485 Fit       0.005843
 1486 Fit       0.006740
 1487 Fit       0.007203
 1488 Fit      -0.002132
 1489 Fit       0.001078
 1490 Fit       0.002821
 1491 Fit       0.003664
 1492 Fit       0.005248
 1493 Fit       0.003845
 1494 Fit       0.004233
 1495 Fit       0.005063
 1496 Fit       0.005749
 1497 Fit       0.006508
 1498 Fit       0.008498
 1499 Fit       0.004299
 1500 Fit       0.005611
 1501 Fit       0.004658
 1502 Fit       0.006469
 1503 Fit       0.007126
 1504 Fit       0.007019
 1505 Fit       0.008370
 1506 Fit       0.009040
 1507 Fit       0.009459
 1508 Fit       0.011640
 1509 Fit       0.005770
 1510 Fit       0.008863
 1511 Fit       0.010457
 1512 Fit       0.011841
 1513 Fit       0.008275
 1514 Fit       0.008807
 1515 Fit       0.007994
 1516 Fit       0.006963
 1517 Fit       0.007376
 1518 Fit       0.008016
 1519 Fit       0.008570
 1520 Fit       0.005358
 1521 Fit       0.004855
 1522 Fit       0.005467
 1523 Fit       0.006239
 1524 Fit       0.006775
 1525 Fit       0.007310
 1526 Fit       0.008407
 1527 Fit       0.009685
 1528 Fit       0.004989
 1529 Fit       0.003918
 1530 Fit       0.004234
 1531 Fit       0.004088
 1532 Fit       0.000559
 1533 Fit       0.002773
 1534 Fit       0.004124
 1535 Fit       0.004392
 1536 Fit      -0.003506
 1537 Fit       0.001316
 1538 Fit       0.003205
 1539 Fit       0.003885
 1540 Fit      -0.006517
 1541 Fit      -0.000081
 1542 Fit      -0.000063
 1543 Fit       0.002782
 1544 Fit       0.001874
 1545 Fit       0.000467
 1546 Fit      -0.000948
 1547 Fit      -0.003045
 1548 Fit      -0.006253
 1549 Fit       0.005203
 1550 Fit       0.004897
 1551 Fit       0.000677
 1552 Fit      -0.013463
 1553 Fit       0.007856
 1554 Fit       0.001913
 1555 Fit       0.002805
 1556 Fit       0.003554
 1557 Fit       0.001097
 1558 Fit      -0.001621
 1559 Fit       0.001029
 1560 Fit       0.002773
 1561 Fit       0.002003
 1562 Fit       0.000339
 1563 Fit      -0.001373
 1564 Fit      -0.008104
 1565 Fit      -0.005406
 1566 Fit       0.000015
 1567 Fit       0.003395
 1568 Fit       0.003837
 1569 Fit       0.002935
 1570 Fit      -0.006835
 1571 Fit      -0.011506
 1572 Fit       0.000173
 1573 Fit       0.004804
 1574 Fit       0.002841
 1575 Fit       0.005097
 1576 Fit       0.005168
 1577 Fit       0.004399
 1578 Fit       0.002738
 1579 Fit       0.007513
 1580 Fit       0.007209
 1581 Fit       0.006604
 1582 Fit       0.005406
 1583 Fit       0.003613
 1584 Fit       0.009909
 1585 Fit       0.008788
 1586 Fit       0.007803
 1587 Fit       0.006426
 1588 Fit       0.004569
 1589 Fit       0.009605
 1590 Fit       0.007917
 1591 Fit       0.006004
 1592 Fit      -0.003176
 1593 Fit      -0.000265
 1594 Fit      -0.002249
 1595 Fit      -0.006670
 1596 Fit       0.001324
 1597 Fit       0.000968
 1598 Fit      -0.000435
 1599 Fit      -0.003869
 1600 Fit      -0.010898
 1601 Fit       0.002129
 1602 Fit       0.001586
 1603 Fit      -0.000043
 1604 Fit      -0.004013
 1605 Fit      -0.013014
 1606 Fit       0.001758
 1607 Fit      -0.001187
 1608 Fit      -0.008647
 1609 Fit       0.011468
 1610 Fit       0.011414
 1611 Fit       0.013695
 1612 Fit       0.010498
 1613 Fit       0.008755
 1614 Fit       0.006735
 1615 Fit       0.004684
 1616 Fit       0.001755
 1617 Fit       0.012476
 1618 Fit       0.010732
 1619 Fit       0.009365
 1620 Fit       0.007834
 1621 Fit       0.006130
 1622 Fit       0.004557
 1623 Fit       0.012594
 1624 Fit       0.010325
 1625 Fit       0.008805
 1626 Fit       0.008677
 1627 Fit       0.011331
 1628 Fit       0.009422
 1629 Fit       0.009227
 1630 Fit       0.013533
 1631 Fit       0.011638
 1632 Fit       0.010667
 1633 Fit       0.013144
 1634 Fit       0.011771
 1635 Fit       0.013888
 1636 Fit       0.012311
 1637 Fit       0.015541
 1638 Fit      -0.022734
 1639 Fit      -0.020896
 1640 Fit      -0.024628
 1641 Fit      -0.020962
 1642 Fit      -0.022604
 1643 Fit      -0.017804
 1644 Fit      -0.019938
 1645 Fit      -0.018497
 1646 Fit      -0.015739
 1647 Fit      -0.009689
 1648 Fit      -0.005805
 1649 Fit       0.001779
 1650 Fit       0.000923
 1651 Fit       0.006662
 1652 Fit       0.005398
 1653 Fit       0.003877
 1654 Fit       0.015860
 1655 Fit       0.014007
 1656 Fit       0.012321
 1657 Fit       0.009669
 1658 Fit       0.006745
 1659 Fit       0.005412
 1660 Fit       0.009646
 1661 Fit       0.012740
 1662 Fit       0.013442
 1663 Fit       0.011982
 1664 Fit       0.009701
 1665 Fit       0.008276
 1666 Fit       0.010867
 1667 Fit      -0.013776
 1668 Fit      -0.007199
 1669 Fit      -0.009118
 1670 Fit      -0.004525
 1671 Fit      -0.002604
 1672 Fit      -0.003191
 1673 Fit      -0.002934
 1674 Fit      -0.001129
 1675 Fit      -0.001050
 1676 Fit       0.000775
 1677 Fit       0.002458
 1678 Fit       0.001518
 1679 Fit       0.001503
 1680 Fit       0.005486
 1681 Fit       0.014408
 1682 Fit       0.014551
 1683 Fit       0.016012
 1684 Fit       0.016111
 1685 Fit      -0.002757
 1686 Fit       0.002696
 1687 Fit       0.014028
 1688 Fit       0.004132
 1689 Fit       0.006823
 1690 Fit       0.010297
 1691 Fit       0.012187
 1692 Fit       0.013539
 1693 Fit       0.006272
 1694 Fit       0.008607
 1695 Fit       0.010187
 1696 Fit       0.012293
 1697 Fit       0.014271
 1698 Fit       0.011045
 1699 Fit       0.011669
 1700 Fit       0.015223
 1701 Fit       0.014832
 1702 Fit       0.015166
 1703 Fit       0.014704
 1704 Fit       0.015051
 1705 Fit       0.014581
 1706 Fit       0.015400
 1707 Fit       0.016880
 1708 Fit      -0.002585
 1709 Fit       0.016304
 1710 Fit       0.013922
 1711 Fit       0.014511
 1712 Fit       0.013819
 1713 Fit       0.014231
 1714 Fit       0.011902
 1715 Fit       0.014154
 1716 Fit       0.012376
 1717 Fit       0.009472
 1718 Fit       0.015288
 1719 Fit       0.014037
 1720 Fit       0.013385
 1721 Fit       0.012611
 1722 Fit       0.010220
 1723 Fit       0.014432
 1724 Fit       0.013955
 1725 Fit       0.014183
 1726 Fit       0.014274
 1727 Fit       0.011440
 1728 Fit       0.012856
 1729 Fit       0.010123
 1730 Fit       0.011633
 1731 Fit       0.013021
 1732 Fit      -0.003907
 1733 Fit       0.006553
 1734 Fit       0.009693
 1735 Fit       0.012144
 1736 Fit       0.005340
 1737 Fit       0.007011
 1738 Fit       0.009083
 1739 Fit       0.003015
 1740 Fit       0.010922
 1741 Fit       0.012572
 1742 Fit       0.009304
 1743 Fit       0.007413
 1744 Fit       0.006622
 1745 Fit       0.008816
 1746 Fit       0.007713
 1747 Fit       0.005971
 1748 Fit       0.006714
 1749 Fit       0.009448
 1750 Fit       0.005819
 1751 Fit       0.002208
 1752 Fit       0.002149
 1753 Fit       0.007730
 1754 Fit      -0.000335
 1755 Fit      -0.008103
 1756 Fit      -0.008502
 1757 Fit       0.008603
 1758 Fit       0.010371
 1759 Fit       0.005853
 1760 Fit       0.008998
 1761 Fit       0.010961
 1762 Fit       0.012268
 1763 Fit       0.012952
 1764 Fit       0.007121
 1765 Fit       0.009998
 1766 Fit       0.012105
 1767 Fit       0.013789
 1768 Fit       0.015356
 1769 Fit       0.006467
 1770 Fit       0.010374
 1771 Fit       0.012997
 1772 Fit       0.015449
 1773 Fit       0.009776
 1774 Fit       0.013852
 1775 Fit       0.002217
 1776 Fit       0.005007
 1777 Fit      -0.003563
 1778 Fit       0.003263
 1779 Fit       0.001012
 1780 Fit      -0.001770
 1781 Fit       0.006121
 1782 Fit       0.006315
 1783 Fit       0.005880
 1784 Fit       0.006740
 1785 Fit       0.006207
 1786 Fit       0.004721
 1787 Fit       0.005678
 1788 Fit       0.000786
 1789 Fit       0.002806
 1790 Fit       0.005343
 1791 Fit      -0.009370
 1792 Fit      -0.006693
 1793 Fit      -0.001096
 1794 Fit       0.003882
 1795 Fit       0.003775
 1796 Fit       0.006230
 1797 Fit      -0.000868
 1798 Fit      -0.007407
 1799 Fit       0.005953
 1800 Fit       0.003071
 1801 Fit       0.004620
 1802 Fit       0.002508
 1803 Fit      -0.001084
 1804 Fit       0.003740
 1805 Fit       0.002340
 1806 Fit      -0.000597
 1807 Fit      -0.005903
 1808 Fit       0.001785
 1809 Fit       0.000188
 1810 Fit      -0.003409
 1811 Fit       0.005197
 1812 Fit       0.001290
 1813 Fit       0.005255
 1814 Fit       0.006588
 1815 Fit       0.005939
 1816 Fit       0.005668
 1817 Fit       0.002794
 1818 Fit      -0.008455
 1819 Fit      -0.003710
 1820 Fit      -0.012147
 1821 Fit      -0.022601
 1822 Fit      -0.010676
 1823 Fit      -0.018925
 1824 Fit      -0.026807
 1825 Fit      -0.003723
 1826 Fit      -0.006404
 1827 Fit      -0.010839
 1828 Fit      -0.016377
 1829 Fit      -0.022050
 1830 Fit      -0.027177
 1831 Fit      -0.026755
 1832 Fit      -0.009416
 1833 Fit      -0.011154
 1834 Fit      -0.013693
 1835 Fit      -0.017314
 1836 Fit      -0.021267
 1837 Fit      -0.024545
 1838 Fit      -0.020857
 1839 Fit      -0.018274
 1840 Fit      -0.006482
 1841 Fit      -0.009794
 1842 Fit      -0.012243
 1843 Fit      -0.014329
 1844 Fit      -0.015818
 1845 Fit      -0.017606
 1846 Fit      -0.019695
 1847 Fit      -0.021115
 1848 Fit      -0.016014
 1849 Fit      -0.010827
 1850 Fit      -0.005033
 1851 Fit      -0.009599
 1852 Fit      -0.013511
 1853 Fit      -0.016082
 1854 Fit      -0.017414
 1855 Fit      -0.018146
 1856 Fit      -0.018072
 1857 Fit      -0.013157
 1858 Fit      -0.007391
 1859 Fit      -0.006769
 1860 Fit      -0.011427
 1861 Fit      -0.015341
 1862 Fit      -0.016024
 1863 Fit      -0.012069
 1864 Fit       0.006037
 1865 Fit       0.006718
 1866 Fit       0.004275
 1867 Fit      -0.001155
 1868 Fit       0.001171
 1869 Fit      -0.009608
 1870 Fit      -0.006017
 1871 Fit      -0.000826
 1872 Fit       0.002865
 1873 Fit       0.003939
 1874 Fit      -0.003966
 1875 Fit      -0.000522
 1876 Fit       0.001558
 1877 Fit      -0.000325
 1878 Fit      -0.001438
 1879 Fit       0.008192
 1880 Fit       0.008950
 1881 Fit       0.007320
 1882 Fit       0.004030
 1883 Fit       0.002628
 1884 Fit       0.007040
 1885 Fit       0.006811
 1886 Fit       0.008363
 1887 Fit       0.004229
 1888 Fit       0.006704
 1889 Fit       0.006388
 1890 Fit       0.007280
 1891 Fit       0.007759
 1892 Fit       0.007277
 1893 Fit       0.008109
 1894 Fit       0.008756
 1895 Fit       0.003960
 1896 Fit       0.006671
 1897 Fit       0.008082
 1898 Fit       0.003436
 1899 Fit       0.006758
 1900 Fit      -0.008407
 1901 Fit      -0.009410
 1902 Fit      -0.004401
 1903 Fit      -0.014410
 1904 Fit      -0.017183
 1905 Fit      -0.014853
 1906 Fit      -0.009919
 1907 Fit      -0.006865
 1908 Fit      -0.022865
 1909 Fit      -0.021431
 1910 Fit      -0.017550
 1911 Fit      -0.012485
 1912 Fit      -0.010752
 1913 Fit      -0.028521
 1914 Fit      -0.024040
 1915 Fit      -0.019769
 1916 Fit      -0.015346
 1917 Fit      -0.015438
 1918 Fit      -0.011835
 1919 Fit      -0.008834
 1920 Fit      -0.028559
 1921 Fit      -0.023247
 1922 Fit      -0.019218
 1923 Fit      -0.019340
 1924 Fit      -0.016428
 1925 Fit      -0.013300
 1926 Fit      -0.009164
 1927 Fit      -0.003270
 1928 Fit      -0.025975
 1929 Fit      -0.022286
 1930 Fit      -0.020747
 1931 Fit      -0.017934
 1932 Fit      -0.013699
 1933 Fit      -0.007509
 1934 Fit      -0.022857
 1935 Fit      -0.017980
 1936 Fit      -0.013293
 1937 Fit      -0.017103
 1938 Fit      -0.004433
 1939 Fit      -0.004743
 1940 Fit      -0.003939
 1941 Fit      -0.001935
 1942 Fit       0.001704
 1943 Fit      -0.001582
 1944 Fit       0.001305
 1945 Fit       0.005327
 1946 Fit      -0.002310
 1947 Fit       0.002872
 1948 Fit      -0.003794
 1949 Fit      -0.004377
 1950 Fit      -0.007061
 1951 Fit      -0.003996
 1952 Fit      -0.003981
 1953 Fit      -0.004288
 1954 Fit      -0.005776
 1955 Fit      -0.005735
 1956 Fit      -0.006465
 1957 Fit      -0.004899
 1958 Fit      -0.004472
 1959 Fit       0.007831
 1960 Fit       0.010212
 1961 Fit       0.009276
 1962 Fit       0.006637
 1963 Fit       0.008082
 1964 Fit       0.005245
 1965 Fit       0.003896
 1966 Fit       0.003105
 1967 Fit       0.004291
 1968 Fit      -0.000466
 1969 Fit      -0.002613
 1970 Fit      -0.002119
 1971 Fit      -0.001412
 1972 Fit      -0.008388
 1973 Fit      -0.007728
 1974 Fit      -0.004924
 1975 Fit      -0.001940
 1976 Fit      -0.000084
 1977 Fit       0.001064
 1978 Fit      -0.005429
 1979 Fit      -0.013577
 1980 Fit      -0.013660
 1981 Fit      -0.011795
 1982 Fit      -0.009349
 1983 Fit      -0.007490
 1984 Fit      -0.006540
 1985 Fit      -0.005681
 1986 Fit      -0.005000
 1987 Fit      -0.010682
 1988 Fit      -0.015185
 1989 Fit      -0.016092
 1990 Fit      -0.015238
 1991 Fit      -0.013627
 1992 Fit      -0.012236
 1993 Fit      -0.011550
 1994 Fit      -0.011324
 1995 Fit      -0.010664
 1996 Fit      -0.008416
 1997 Fit      -0.007095
 1998 Fit      -0.012046
 1999 Fit      -0.012553
 2000 Fit      -0.014894
 2001 Fit      -0.015013
 2002 Fit      -0.014267
 2003 Fit      -0.013727
 2004 Fit      -0.013656
 2005 Fit      -0.013416
 2006 Fit      -0.011883
 2007 Fit      -0.008264
 2008 Fit      -0.002629
 2009 Fit      -0.011196
 2010 Fit      -0.012477
 2011 Fit      -0.012598
 2012 Fit      -0.012568
 2013 Fit      -0.012007
 2014 Fit      -0.009693
 2015 Fit      -0.004613
 2016 Fit       0.003182
 2017 Fit      -0.008290
 2018 Fit      -0.007913
 2019 Fit      -0.005693
 2020 Fit       0.008051
 2021 Fit       0.006296
 2022 Fit       0.007190
 2023 Fit       0.004129
 2024 Fit       0.000478
 2025 Fit       0.005338
 2026 Fit       0.008250
 2027 Fit       0.006642
 2028 Fit       0.002870
 2029 Fit       0.007842
 2030 Fit       0.006636
 2031 Fit       0.004789
 2032 Fit      -0.001126
 2033 Fit       0.008334
 2034 Fit       0.007227
 2035 Fit       0.005376
 2036 Fit       0.002480
 2037 Fit       0.005444
 2038 Fit       0.007256
 2039 Fit       0.005559
 2040 Fit       0.006278
 2041 Fit       0.007219
 2042 Fit       0.003014
 2043 Fit       0.003840
 2044 Fit       0.005023
 2045 Fit       0.005879
 2046 Fit       0.006492
 2047 Fit      -0.001703
 2048 Fit      -0.000416
 2049 Fit       0.001505
 2050 Fit       0.002925
 2051 Fit       0.003820
 2052 Fit       0.005254
 2053 Fit       0.004342
 2054 Fit       0.003849
 2055 Fit       0.004205
 2056 Fit       0.006592
 2057 Fit       0.008078
 2058 Fit       0.004081
 2059 Fit       0.004704
 2060 Fit       0.005567
 2061 Fit       0.007716
 2062 Fit       0.004318
 2063 Fit       0.005403
 2064 Fit       0.004012
 2065 Fit       0.002366
 2066 Fit       0.006489
 2067 Fit       0.007138
 2068 Fit       0.007482
 2069 Fit       0.008106
 2070 Fit       0.006480
 2071 Fit       0.007861
 2072 Fit       0.008431
 2073 Fit       0.008933
 2074 Fit       0.009053
 2075 Fit       0.006031
 2076 Fit       0.008600
 2077 Fit       0.009693
 2078 Fit       0.007199
 2079 Fit       0.007662
 2080 Fit       0.007084
 2081 Fit       0.006347
 2082 Fit       0.006597
 2083 Fit       0.007080
 2084 Fit       0.007503
 2085 Fit       0.007231
 2086 Fit       0.005397
 2087 Fit       0.005003
 2088 Fit       0.005413
 2089 Fit       0.005982
 2090 Fit       0.006414
 2091 Fit       0.006830
 2092 Fit       0.007536
 2093 Fit       0.008241
 2094 Fit       0.004756
 2095 Fit       0.005355
 2096 Fit       0.005791
 2097 Fit       0.006262
 2098 Fit       0.003703
 2099 Fit       0.003776
 2100 Fit       0.001694
 2101 Fit       0.002491
 2102 Fit       0.003484
 2103 Fit       0.003990
 2104 Fit       0.004087
 2105 Fit      -0.000201
 2106 Fit       0.002241
 2107 Fit       0.003542
 2108 Fit       0.004145
 2109 Fit      -0.006255
 2110 Fit      -0.000432
 2111 Fit       0.002284
 2112 Fit      -0.000506
 Job cpu time:       0 days  0 hours  5 minutes  8.8 seconds.
 Normal termination of Gaussian 16 at Sat Jul  8 20:28:26 2023.
