 Copyright (c) 1988-2019, Gaussian, Inc.  All Rights Reserved.
  
 This is part of the Gaussian(R) 16 program.  It is based on
 the Gaussian(R) 09 system (copyright 2009, Gaussian, Inc.),
 the Gaussian(R) 03 system (copyright 2003, Gaussian, Inc.),
 the Gaussian(R) 98 system (copyright 1998, Gaussian, Inc.),
 the Gaussian(R) 94 system (copyright 1995, Gaussian, Inc.),
 the Gaussian 92(TM) system (copyright 1992, Gaussian, Inc.),
 the Gaussian 90(TM) system (copyright 1990, Gaussian, Inc.),
 the Gaussian 88(TM) system (copyright 1988, Gaussian, Inc.),
 the Gaussian 86(TM) system (copyright 1986, Carnegie Mellon
 University), and the Gaussian 82(TM) system (copyright 1983,
 Carnegie Mellon University). Gaussian is a federally registered
 trademark of Gaussian, Inc.
 Cite this work as:
 Gaussian 16, Revision C.01,
 M. J. Frisch, G. W. Trucks, H. B. Schlegel, G. E. Scuseria, 
 M. A. Robb, J. R. Cheeseman, G. Scalmani, V. Barone, 
 G. A. Petersson, H. Nakatsuji, X. Li, M. Caricato, A. V. Marenich, 
 J. Bloino, B. G. Janesko, R. Gomperts, B. Mennucci, H. P. Hratchian, 
 J. V. Ortiz, A. F. Izmaylov, J. L. Sonnenberg, D. Williams-Young, 
 F. Ding, F. Lipparini, F. Egidi, J. Goings, B. Peng, A. Petrone, 
 T. Henderson, D. Ranasinghe, V. G. Zakrzewski, J. Gao, N. Rega, 
 G. Zheng, W. Liang, M. Hada, M. Ehara, K. Toyota, R. Fukuda, 
 J. Hasegawa, M. Ishida, T. Nakajima, Y. Honda, O. Kitao, H. Nakai, 
 T. Vreven, K. Throssell, J. A. Montgomery, Jr., J. E. Peralta, 
 F. Ogliaro, M. J. Bearpark, J. J. Heyd, E. N. Brothers, K. N. Kudin, 
 V. N. Staroverov, T. A. Keith, R. Kobayashi, J. Normand, 
 K. Raghavachari, A. P. Rendell, J. C. Burant, S. S. Iyengar, 
 J. Tomasi, M. Cossi, J. M. Millam, M. Klene, C. Adamo, R. Cammi, 
 J. W. Ochterski, R. L. Martin, K. Morokuma, O. Farkas, 
 J. B. Foresman, and D. J. Fox, Gaussian, Inc., Wallingford CT, 2019.
 
 ******************************************
 Gaussian 16:  EM64L-G16RevC.01  3-Jul-2019
                 8-Jul-2023 
 ******************************************
 ----------------------------------------------------------------------
 #P HF/6-31G(d) SCF(Conver=8,XQC,MaxConventionalCycles=64,MaxCycle=128)
  NoSymm Test Pop=mk IOp(6/33=2) GFInput GFPrint
 ----------------------------------------------------------------------
 1/38=1,172=1/1;
 2/12=2,15=1,17=6,18=5,40=1/2;
 3/5=1,6=6,7=1,11=9,24=110,25=1,30=1/1,2,3;
 4//1;
 5/5=2,6=8,7=128,8=3,13=1,38=5,85=64/2,8;
 6/7=2,8=2,9=2,10=2,15=8,20=1,28=1,33=2/1,2;
 99/5=1,9=1/99;
 -------------------------------------------------
 MEP step - Input generated by PyRED DVE-DMDS-OPLS
 -------------------------------------------------
 Symbolic Z-matrix:
 Charge =  0 Multiplicity = 1
 C                    -3.79658   3.13501   1.58922 
 H                    -2.95575   3.79788   1.77127 
 H                    -4.69373   3.73499   1.4832 
 H                    -3.9185    2.4916    2.45362 
 C                    -3.5573    2.30635   0.34208 
 H                    -3.43802   2.95398  -0.52564 
 H                    -2.65408   1.71748   0.43652 
 O                    -4.67569   1.4744    0.15852 
 C                    -4.75093   0.76632  -1.03921 
 H                    -4.47177   1.39481  -1.88251 
 H                    -5.79186   0.48693  -1.15894 
 C                    -3.91318  -0.49833  -1.06069 
 H                    -4.06618  -1.04395  -0.1323 
 H                    -4.24286  -1.13423  -1.8837 
 O                    -2.56543  -0.16908  -1.22138 
 C                    -1.68036  -1.23872  -1.10911 
 H                    -1.83611  -1.94852  -1.92201 
 H                    -1.82764  -1.7649   -0.1693 
 C                    -0.26451  -0.71562  -1.17022 
 H                    -0.15436  -0.07536  -2.04278 
 H                     0.41813  -1.55581  -1.27149 
 O                     0.        0.        0. 
 C                     1.14797   0.78774   0. 
 H                     1.09182   1.39306   0.89452 
 H                     1.14913   1.45621  -0.86001 
 C                     2.45705   0.        0. 
 H                     3.27      0.70966   0.09875 
 H                     2.59559  -0.52921  -0.93557 
 S                     2.50125  -1.19145   1.37441 
 C                     4.22838  -1.75669   1.28542 
 H                     4.2442   -2.69615   1.82292 
 H                     4.48421  -1.9769    0.25655 
 C                     5.23515  -0.77848   1.88853 
 H                     4.97679  -0.55181   2.9153 
 H                     5.22494   0.15805   1.3461 
 S                     6.96082  -1.35203   1.80981 
 C                     6.99837  -2.49117   3.2303 
 H                     6.11462  -3.11777   3.20414 
 H                     6.96301  -1.91809   4.14847 
 C                     8.21762  -3.41282   3.21073 
 H                     8.13715  -4.10728   4.03997 
 H                     8.21824  -3.99836   2.29973 
 S                     9.85245  -2.62567   3.26579 
 C                     9.85094  -1.88281   4.92551 
 H                     9.10487  -1.09956   4.97314 
 H                     9.58971  -2.6441    5.65221 
 C                     11.22917  -1.30527   5.23753 
 H                     11.22603  -0.85214   6.22354 
 H                     11.99019  -2.07724   5.22156 
 H                     11.50472  -0.54199   4.51822 
 
 ITRead=  0  0  0  0  0  0  0  0  0  0  0  0  0  0  0  0  0  0  0  0
 ITRead=  0  0  0  0  0  0  0  0  0  0  0  0  0  0  0  0  0  0  0  0
 ITRead=  0  0  0  0  0  0  0  0  0  0
 MicOpt= -1 -1 -1 -1 -1 -1 -1 -1 -1 -1 -1 -1 -1 -1 -1 -1 -1 -1 -1 -1
 MicOpt= -1 -1 -1 -1 -1 -1 -1 -1 -1 -1 -1 -1 -1 -1 -1 -1 -1 -1 -1 -1
 MicOpt= -1 -1 -1 -1 -1 -1 -1 -1 -1 -1
 NAtoms=     50 NQM=       50 NQMF=       0 NMMI=      0 NMMIF=      0
                NMic=       0 NMicF=      0.
                          Input orientation:                          
 ---------------------------------------------------------------------
 Center     Atomic      Atomic             Coordinates (Angstroms)
 Number     Number       Type             X           Y           Z
 ---------------------------------------------------------------------
      1          6           0       -3.796579    3.135011    1.589217
      2          1           0       -2.955752    3.797876    1.771266
      3          1           0       -4.693729    3.734987    1.483197
      4          1           0       -3.918501    2.491600    2.453619
      5          6           0       -3.557299    2.306350    0.342077
      6          1           0       -3.438024    2.953979   -0.525637
      7          1           0       -2.654084    1.717482    0.436523
      8          8           0       -4.675686    1.474403    0.158522
      9          6           0       -4.750930    0.766317   -1.039209
     10          1           0       -4.471765    1.394806   -1.882513
     11          1           0       -5.791859    0.486931   -1.158938
     12          6           0       -3.913177   -0.498332   -1.060692
     13          1           0       -4.066184   -1.043951   -0.132298
     14          1           0       -4.242862   -1.134226   -1.883700
     15          8           0       -2.565433   -0.169081   -1.221384
     16          6           0       -1.680361   -1.238716   -1.109109
     17          1           0       -1.836113   -1.948523   -1.922008
     18          1           0       -1.827641   -1.764897   -0.169300
     19          6           0       -0.264507   -0.715622   -1.170216
     20          1           0       -0.154362   -0.075358   -2.042781
     21          1           0        0.418128   -1.555808   -1.271492
     22          8           0        0.000000    0.000000    0.000000
     23          6           0        1.147974    0.787744    0.000000
     24          1           0        1.091820    1.393062    0.894519
     25          1           0        1.149126    1.456207   -0.860010
     26          6           0        2.457055    0.000000    0.000000
     27          1           0        3.270000    0.709663    0.098752
     28          1           0        2.595589   -0.529214   -0.935569
     29         16           0        2.501250   -1.191452    1.374405
     30          6           0        4.228383   -1.756693    1.285420
     31          1           0        4.244195   -2.696147    1.822918
     32          1           0        4.484215   -1.976895    0.256545
     33          6           0        5.235148   -0.778478    1.888531
     34          1           0        4.976793   -0.551808    2.915298
     35          1           0        5.224936    0.158048    1.346096
     36         16           0        6.960823   -1.352029    1.809808
     37          6           0        6.998373   -2.491165    3.230302
     38          1           0        6.114623   -3.117773    3.204140
     39          1           0        6.963005   -1.918092    4.148472
     40          6           0        8.217615   -3.412820    3.210730
     41          1           0        8.137151   -4.107280    4.039966
     42          1           0        8.218237   -3.998361    2.299726
     43         16           0        9.852453   -2.625673    3.265793
     44          6           0        9.850936   -1.882814    4.925511
     45          1           0        9.104870   -1.099558    4.973143
     46          1           0        9.589715   -2.644101    5.652207
     47          6           0       11.229169   -1.305272    5.237533
     48          1           0       11.226031   -0.852138    6.223544
     49          1           0       11.990193   -2.077237    5.221556
     50          1           0       11.504719   -0.541994    4.518220
 ---------------------------------------------------------------------
 Stoichiometry    C14H30O3S3
 Framework group  C1[X(C14H30O3S3)]
 Standard basis: 6-31G(d) (6D, 7F)
   372 basis functions,   752 primitive gaussians,   372 cartesian basis functions
    93 alpha electrons       93 beta electrons
 Requested convergence on RMS density matrix=1.00D-08 within  64 cycles.
 Requested convergence on MAX density matrix=1.00D-06.
 Requested convergence on             energy=1.00D-06.
 SCF Done:  E(RHF) =  -1964.69194032     A.U. after   13 cycles
            NFock= 13  Conv=0.34D-08     -V/T= 2.0006
 Mulliken charges:
     1  C   -0.487927
     2  H    0.150621
     3  H    0.165710
     4  H    0.170713
     5  C    0.011426
     6  H    0.129120
     7  H    0.184237
     8  O   -0.630896
     9  C    0.005877
    10  H    0.150582
    11  H    0.167022
    12  C    0.004851
    13  H    0.156755
    14  H    0.133034
    15  O   -0.626258
    16  C    0.015421
    17  H    0.138027
    18  H    0.164818
    19  C    0.004990
    20  H    0.152707
    21  H    0.152598
    22  O   -0.611752
    23  C    0.006271
    24  H    0.191918
    25  H    0.157787
    26  C   -0.499048
    27  H    0.189817
    28  H    0.189609
    29  S    0.137013
    30  C   -0.479154
    31  H    0.199801
    32  H    0.204304
    33  C   -0.482581
    34  H    0.205417
    35  H    0.200804
    36  S    0.142919
    37  C   -0.460528
    38  H    0.191701
    39  H    0.193788
    40  C   -0.492056
    41  H    0.197919
    42  H    0.214943
    43  S    0.135339
    44  C   -0.461000
    45  H    0.192360
    46  H    0.181982
    47  C   -0.495819
    48  H    0.171961
    49  H    0.180434
    50  H    0.182423
 Sum of Mulliken charges =  -0.00000
 Dipole moment (field-independent basis, Debye):
    X=              0.5015    Y=             -1.0034    Z=             -0.3496  Tot=              1.1750
 Quadrupole moment (field-independent basis, Debye-Ang):
   XX=           -177.6242   YY=           -142.2344   ZZ=           -132.2569
   XY=              7.5818   XZ=             20.7874   YZ=             -4.0374
 Traceless Quadrupole moment (field-independent basis, Debye-Ang):
   XX=            -26.9190   YY=              8.4708   ZZ=             18.4483
   XY=              7.5818   XZ=             20.7874   YZ=             -4.0374
 Octapole moment (field-independent basis, Debye-Ang**2):
  XXX=          -1596.1579  YYY=            309.2053  ZZZ=           -507.4666  XYY=           -420.6474
  XXY=            136.5115  XXZ=           -107.5636  XZZ=           -292.5617  YZZ=             70.0180
  YYZ=           -183.8708  XYZ=            -33.1285
 Hexadecapole moment (field-independent basis, Debye-Ang**3):
 XXXX=         -35929.0799 YYYY=          -2966.5654 ZZZZ=          -4652.8148 XXXY=           4959.1897
 XXXZ=          -4505.2067 YYYX=           3760.0741 YYYZ=           1057.7570 ZZZX=          -4737.9546
 ZZZY=            933.2069 XXYY=          -5965.9117 XXZZ=          -4945.2033 YYZZ=          -1273.6400
 XXYZ=            209.8284 YYXZ=          -1771.0724 ZZXY=           1021.3900
 Merz-Kollman atomic radii used.
 Atom Element Radius
    1     6    1.50
    2     1    1.20
    3     1    1.20
    4     1    1.20
    5     6    1.50
    6     1    1.20
    7     1    1.20
    8     8    1.40
    9     6    1.50
   10     1    1.20
   11     1    1.20
   12     6    1.50
   13     1    1.20
   14     1    1.20
   15     8    1.40
   16     6    1.50
   17     1    1.20
   18     1    1.20
   19     6    1.50
   20     1    1.20
   21     1    1.20
   22     8    1.40
   23     6    1.50
   24     1    1.20
   25     1    1.20
   26     6    1.50
   27     1    1.20
   28     1    1.20
   29    16    1.75
   30     6    1.50
   31     1    1.20
   32     1    1.20
   33     6    1.50
   34     1    1.20
   35     1    1.20
   36    16    1.75
   37     6    1.50
   38     1    1.20
   39     1    1.20
   40     6    1.50
   41     1    1.20
   42     1    1.20
   43    16    1.75
   44     6    1.50
   45     1    1.20
   46     1    1.20
   47     6    1.50
   48     1    1.20
   49     1    1.20
   50     1    1.20
 Generate VDW surfaces: Layer= 4 Dens= 1 Start= 1.400 Inc= 0.200
            Electrostatic Properties Using The SCF Density.


       Atomic Center    1 is at  -3.796579  3.135011  1.589217
       Atomic Center    2 is at  -2.955752  3.797876  1.771266
       Atomic Center    3 is at  -4.693729  3.734987  1.483197
       Atomic Center    4 is at  -3.918501  2.491600  2.453619
       Atomic Center    5 is at  -3.557299  2.306350  0.342077
       Atomic Center    6 is at  -3.438024  2.953979 -0.525637
       Atomic Center    7 is at  -2.654084  1.717482  0.436523
       Atomic Center    8 is at  -4.675686  1.474403  0.158522
       Atomic Center    9 is at  -4.750930  0.766317 -1.039209
       Atomic Center   10 is at  -4.471765  1.394806 -1.882513
       Atomic Center   11 is at  -5.791859  0.486931 -1.158938
       Atomic Center   12 is at  -3.913177 -0.498332 -1.060692
       Atomic Center   13 is at  -4.066184 -1.043951 -0.132298
       Atomic Center   14 is at  -4.242862 -1.134226 -1.883700
       Atomic Center   15 is at  -2.565433 -0.169081 -1.221384
       Atomic Center   16 is at  -1.680361 -1.238716 -1.109109
       Atomic Center   17 is at  -1.836113 -1.948523 -1.922008
       Atomic Center   18 is at  -1.827641 -1.764897 -0.169300
       Atomic Center   19 is at  -0.264507 -0.715622 -1.170216
       Atomic Center   20 is at  -0.154362 -0.075358 -2.042781
       Atomic Center   21 is at   0.418128 -1.555808 -1.271492
       Atomic Center   22 is at   0.000000  0.000000  0.000000
       Atomic Center   23 is at   1.147974  0.787744  0.000000
       Atomic Center   24 is at   1.091820  1.393062  0.894519
       Atomic Center   25 is at   1.149126  1.456207 -0.860010
       Atomic Center   26 is at   2.457055  0.000000  0.000000
       Atomic Center   27 is at   3.270000  0.709663  0.098752
       Atomic Center   28 is at   2.595589 -0.529214 -0.935569
       Atomic Center   29 is at   2.501250 -1.191452  1.374405
       Atomic Center   30 is at   4.228383 -1.756693  1.285420
       Atomic Center   31 is at   4.244195 -2.696147  1.822918
       Atomic Center   32 is at   4.484215 -1.976895  0.256545
       Atomic Center   33 is at   5.235148 -0.778478  1.888531
       Atomic Center   34 is at   4.976793 -0.551808  2.915298
       Atomic Center   35 is at   5.224936  0.158048  1.346096
       Atomic Center   36 is at   6.960823 -1.352029  1.809808
       Atomic Center   37 is at   6.998373 -2.491165  3.230302
       Atomic Center   38 is at   6.114623 -3.117773  3.204140
       Atomic Center   39 is at   6.963005 -1.918092  4.148472
       Atomic Center   40 is at   8.217615 -3.412820  3.210730
       Atomic Center   41 is at   8.137151 -4.107280  4.039966
       Atomic Center   42 is at   8.218237 -3.998361  2.299726
       Atomic Center   43 is at   9.852453 -2.625673  3.265793
       Atomic Center   44 is at   9.850936 -1.882814  4.925511
       Atomic Center   45 is at   9.104870 -1.099558  4.973143
       Atomic Center   46 is at   9.589715 -2.644101  5.652207
       Atomic Center   47 is at  11.229169 -1.305272  5.237533
       Atomic Center   48 is at  11.226031 -0.852138  6.223544
       Atomic Center   49 is at  11.990193 -2.077237  5.221556
       Atomic Center   50 is at  11.504719 -0.541994  4.518220
      ESP Fit Center   51 is at  -3.271579  4.044338  3.407870
      ESP Fit Center   52 is at  -4.321579  4.044338  3.407870
      ESP Fit Center   53 is at  -4.055400  4.935153  2.639217
      ESP Fit Center   54 is at  -2.266630  2.151773  2.639217
      ESP Fit Center   55 is at  -2.955752  3.797876  3.451266
      ESP Fit Center   56 is at  -1.968273  3.797876  3.130415
      ESP Fit Center   57 is at  -2.650604  4.737025  3.130415
      ESP Fit Center   58 is at  -1.357977  3.797876  2.290415
      ESP Fit Center   59 is at  -1.731785  4.824906  2.290415
      ESP Fit Center   60 is at  -2.678301  5.371377  2.290415
      ESP Fit Center   61 is at  -3.754639  5.181590  2.290415
      ESP Fit Center   62 is at  -1.731785  2.770846  2.290415
      ESP Fit Center   63 is at  -1.357977  3.797876  1.252117
      ESP Fit Center   64 is at  -1.731785  4.824906  1.252117
      ESP Fit Center   65 is at  -2.678301  5.371377  1.252117
      ESP Fit Center   66 is at  -1.968273  3.797876  0.412117
      ESP Fit Center   67 is at  -2.650604  4.737025  0.412117
      ESP Fit Center   68 is at  -5.492616  4.315413  2.842346
      ESP Fit Center   69 is at  -5.492616  3.154561  2.842346
      ESP Fit Center   70 is at  -4.416278  5.308488  2.002346
      ESP Fit Center   71 is at  -5.492616  5.118701  2.002346
      ESP Fit Center   72 is at  -6.195146  4.281458  2.002346
      ESP Fit Center   73 is at  -6.195146  3.188516  2.002346
      ESP Fit Center   74 is at  -4.416278  5.308488  0.964048
      ESP Fit Center   75 is at  -5.492616  5.118701  0.964048
      ESP Fit Center   76 is at  -6.195146  4.281458  0.964048
      ESP Fit Center   77 is at  -6.195146  3.188516  0.964048
      ESP Fit Center   78 is at  -4.388581  4.674136  0.124048
      ESP Fit Center   79 is at  -5.492616  4.315413  0.124048
      ESP Fit Center   80 is at  -3.918501  2.491600  4.133619
      ESP Fit Center   81 is at  -2.931022  2.491600  3.812768
      ESP Fit Center   82 is at  -3.613353  3.430749  3.812768
      ESP Fit Center   83 is at  -4.717388  3.072026  3.812768
      ESP Fit Center   84 is at  -4.717388  1.911174  3.812768
      ESP Fit Center   85 is at  -3.613353  1.552451  3.812768
      ESP Fit Center   86 is at  -2.320726  2.491600  2.972768
      ESP Fit Center   87 is at  -5.419918  3.038071  2.972768
      ESP Fit Center   88 is at  -5.419918  1.945129  2.972768
      ESP Fit Center   89 is at  -4.717388  1.107886  2.972768
      ESP Fit Center   90 is at  -3.641050  0.918099  2.972768
      ESP Fit Center   91 is at  -2.694534  1.464570  2.972768
      ESP Fit Center   92 is at  -3.641050  0.918099  1.934470
      ESP Fit Center   93 is at  -1.697841  3.282269  0.342077
      ESP Fit Center   94 is at  -2.214057  3.981009 -0.006488
      ESP Fit Center   95 is at  -3.160573  4.527480 -0.006488
      ESP Fit Center   96 is at  -1.840249  2.953979 -1.044786
      ESP Fit Center   97 is at  -2.214057  3.981009 -1.044786
      ESP Fit Center   98 is at  -3.160573  4.527480 -1.044786
      ESP Fit Center   99 is at  -4.236911  4.337693 -1.044786
      ESP Fit Center  100 is at  -4.939441  3.500450 -1.044786
      ESP Fit Center  101 is at  -2.450545  2.953979 -1.884786
      ESP Fit Center  102 is at  -3.132876  3.893128 -1.884786
      ESP Fit Center  103 is at  -4.236911  3.534405 -1.884786
      ESP Fit Center  104 is at  -3.438024  2.953979 -2.205637
      ESP Fit Center  105 is at  -1.666605  1.717482  1.795672
      ESP Fit Center  106 is at  -2.348936  0.778333  1.795672
      ESP Fit Center  107 is at  -1.056309  1.717482  0.955672
      ESP Fit Center  108 is at  -1.430117  2.744512  0.955672
      ESP Fit Center  109 is at  -2.376633  0.143981  0.955672
      ESP Fit Center  110 is at  -1.056309  1.717482 -0.082626
      ESP Fit Center  111 is at  -1.430117  2.744512 -0.082626
      ESP Fit Center  112 is at  -1.666605  1.717482 -0.922626
      ESP Fit Center  113 is at  -5.655686  1.474403  1.855932
      ESP Fit Center  114 is at  -5.165686  0.625698  1.855932
      ESP Fit Center  115 is at  -4.185686  0.625698  1.855932
      ESP Fit Center  116 is at  -6.048919  2.472115  1.138522
      ESP Fit Center  117 is at  -6.373096  1.474403  1.138522
      ESP Fit Center  118 is at  -6.048919  0.476691  1.138522
      ESP Fit Center  119 is at  -5.200214 -0.139930  1.138522
      ESP Fit Center  120 is at  -5.655686  3.171813  0.158522
      ESP Fit Center  121 is at  -6.373096  2.454403  0.158522
      ESP Fit Center  122 is at  -6.635686  1.474403  0.158522
      ESP Fit Center  123 is at  -5.200214  3.088736 -0.821478
      ESP Fit Center  124 is at  -6.048919  2.472115 -0.821478
      ESP Fit Center  125 is at  -6.322803  2.158875 -1.039209
      ESP Fit Center  126 is at  -5.800930  0.766317 -2.857862
      ESP Fit Center  127 is at  -5.275930 -0.143010 -2.857862
      ESP Fit Center  128 is at  -5.270652  2.778520 -1.363364
      ESP Fit Center  129 is at  -2.873990  1.394806 -2.401662
      ESP Fit Center  130 is at  -3.247798  2.421836 -2.401662
      ESP Fit Center  131 is at  -4.194314  2.968307 -2.401662
      ESP Fit Center  132 is at  -5.270652  2.778520 -2.401662
      ESP Fit Center  133 is at  -5.973182  1.941277 -2.401662
      ESP Fit Center  134 is at  -3.484286  1.394806 -3.241662
      ESP Fit Center  135 is at  -4.166617  2.333955 -3.241662
      ESP Fit Center  136 is at  -5.270652  1.975232 -3.241662
      ESP Fit Center  137 is at  -5.270652  0.814380 -3.241662
      ESP Fit Center  138 is at  -4.166617  0.455657 -3.241662
      ESP Fit Center  139 is at  -4.471765  1.394806 -3.562513
      ESP Fit Center  140 is at  -6.590746 -0.093495  0.200211
      ESP Fit Center  141 is at  -6.590746  1.870645 -0.639789
      ESP Fit Center  142 is at  -7.293276  1.033402 -0.639789
      ESP Fit Center  143 is at  -7.293276 -0.059540 -0.639789
      ESP Fit Center  144 is at  -6.590746 -0.896783 -0.639789
      ESP Fit Center  145 is at  -6.590746  1.870645 -1.678087
      ESP Fit Center  146 is at  -7.293276  1.033402 -1.678087
      ESP Fit Center  147 is at  -7.293276 -0.059540 -1.678087
      ESP Fit Center  148 is at  -6.590746 -0.896783 -1.678087
      ESP Fit Center  149 is at  -6.590746  1.067357 -2.518087
      ESP Fit Center  150 is at  -6.590746 -0.093495 -2.518087
      ESP Fit Center  151 is at  -3.660050 -2.583021 -1.060692
      ESP Fit Center  152 is at  -4.066184 -1.043951  1.547702
      ESP Fit Center  153 is at  -3.078705 -1.043951  1.226851
      ESP Fit Center  154 is at  -3.761036 -0.104802  1.226851
      ESP Fit Center  155 is at  -4.865071 -0.463525  1.226851
      ESP Fit Center  156 is at  -4.865071 -1.624377  1.226851
      ESP Fit Center  157 is at  -3.761036 -1.983100  1.226851
      ESP Fit Center  158 is at  -5.567601 -1.590422  0.386851
      ESP Fit Center  159 is at  -4.865071 -2.427665  0.386851
      ESP Fit Center  160 is at  -3.788733 -2.617452  0.386851
      ESP Fit Center  161 is at  -4.865071 -2.427665 -0.651447
      ESP Fit Center  162 is at  -3.788733 -2.617452 -0.651447
      ESP Fit Center  163 is at  -5.744279 -1.680697 -1.364551
      ESP Fit Center  164 is at  -5.041749 -2.517940 -1.364551
      ESP Fit Center  165 is at  -3.965411 -2.707727 -1.364551
      ESP Fit Center  166 is at  -5.744279 -1.680697 -2.402849
      ESP Fit Center  167 is at  -5.041749 -2.517940 -2.402849
      ESP Fit Center  168 is at  -3.965411 -2.707727 -2.402849
      ESP Fit Center  169 is at  -3.255383 -1.134226 -3.242849
      ESP Fit Center  170 is at  -3.937714 -0.195077 -3.242849
      ESP Fit Center  171 is at  -5.041749 -0.553800 -3.242849
      ESP Fit Center  172 is at  -5.041749 -1.714652 -3.242849
      ESP Fit Center  173 is at  -3.937714 -2.073375 -3.242849
      ESP Fit Center  174 is at  -4.242862 -1.134226 -3.563700
      ESP Fit Center  175 is at  -2.565433 -0.169081  0.738616
      ESP Fit Center  176 is at  -1.585433  1.528329 -1.221384
      ESP Fit Center  177 is at  -2.040905  1.445252 -2.201384
      ESP Fit Center  178 is at  -1.585433 -0.169081 -2.918794
      ESP Fit Center  179 is at  -2.075433  0.679624 -2.918794
      ESP Fit Center  180 is at  -3.055433  0.679624 -2.918794
      ESP Fit Center  181 is at  -2.565433 -0.169081 -3.181384
      ESP Fit Center  182 is at  -2.205361 -0.329389  0.709544
      ESP Fit Center  183 is at  -3.252234 -2.631274 -1.109109
      ESP Fit Center  184 is at  -0.487425 -2.966982 -1.109109
      ESP Fit Center  185 is at  -3.337530 -2.494994 -1.402859
      ESP Fit Center  186 is at  -2.635000 -3.332237 -1.402859
      ESP Fit Center  187 is at  -1.558662 -3.522024 -1.402859
      ESP Fit Center  188 is at  -3.337530 -2.494994 -2.441157
      ESP Fit Center  189 is at  -2.635000 -3.332237 -2.441157
      ESP Fit Center  190 is at  -1.558662 -3.522024 -2.441157
      ESP Fit Center  191 is at  -0.612146 -2.975553 -2.441157
      ESP Fit Center  192 is at  -0.848634 -1.948523 -3.281157
      ESP Fit Center  193 is at  -1.530965 -1.009374 -3.281157
      ESP Fit Center  194 is at  -2.635000 -1.368097 -3.281157
      ESP Fit Center  195 is at  -2.635000 -2.528949 -3.281157
      ESP Fit Center  196 is at  -1.530965 -2.887672 -3.281157
      ESP Fit Center  197 is at  -1.836113 -1.948523 -3.602008
      ESP Fit Center  198 is at  -1.827641 -1.764897  1.510700
      ESP Fit Center  199 is at  -0.840162 -1.764897  1.189849
      ESP Fit Center  200 is at  -1.522493 -0.825748  1.189849
      ESP Fit Center  201 is at  -2.626528 -1.184471  1.189849
      ESP Fit Center  202 is at  -2.626528 -2.345323  1.189849
      ESP Fit Center  203 is at  -1.522493 -2.704046  1.189849
      ESP Fit Center  204 is at  -2.626528 -3.148611  0.349849
      ESP Fit Center  205 is at  -1.550190 -3.338398  0.349849
      ESP Fit Center  206 is at  -0.603674 -2.791927  0.349849
      ESP Fit Center  207 is at  -2.626528 -3.148611 -0.688449
      ESP Fit Center  208 is at  -1.550190 -3.338398 -0.688449
      ESP Fit Center  209 is at  -1.009177  1.247912 -1.170216
      ESP Fit Center  210 is at   0.260493 -1.624949 -2.988869
      ESP Fit Center  211 is at  -0.953249  1.308356 -1.523632
      ESP Fit Center  212 is at   1.443413 -0.075358 -2.561930
      ESP Fit Center  213 is at   1.069605  0.951672 -2.561930
      ESP Fit Center  214 is at   0.123089  1.498143 -2.561930
      ESP Fit Center  215 is at  -0.953249  1.308356 -2.561930
      ESP Fit Center  216 is at   0.833117 -0.075358 -3.401930
      ESP Fit Center  217 is at   0.150786  0.863791 -3.401930
      ESP Fit Center  218 is at  -0.953249  0.505068 -3.401930
      ESP Fit Center  219 is at  -0.953249 -0.655784 -3.401930
      ESP Fit Center  220 is at   0.150786 -1.014507 -3.401930
      ESP Fit Center  221 is at  -0.154362 -0.075358 -3.722781
      ESP Fit Center  222 is at   0.723276 -2.494957  0.087657
      ESP Fit Center  223 is at  -0.380759 -2.939522 -0.752343
      ESP Fit Center  224 is at   0.695579 -3.129309 -0.752343
      ESP Fit Center  225 is at   1.642095 -2.582838 -0.752343
      ESP Fit Center  226 is at  -0.380759 -2.939522 -1.790641
      ESP Fit Center  227 is at   0.695579 -3.129309 -1.790641
      ESP Fit Center  228 is at   1.642095 -2.582838 -1.790641
      ESP Fit Center  229 is at   1.405607 -1.555808 -2.630641
      ESP Fit Center  230 is at   0.723276 -2.494957 -2.630641
      ESP Fit Center  231 is at   0.000000  0.000000  1.960000
      ESP Fit Center  232 is at  -0.490000  0.848705  1.697410
      ESP Fit Center  233 is at  -0.980000  0.000000  1.697410
      ESP Fit Center  234 is at  -0.490000 -0.848705  1.697410
      ESP Fit Center  235 is at  -1.697410  0.000000  0.980000
      ESP Fit Center  236 is at  -0.524528 -1.614333  0.980000
      ESP Fit Center  237 is at  -0.980000  1.697410  0.000000
      ESP Fit Center  238 is at  -0.524528  1.614333 -0.980000
      ESP Fit Center  239 is at   2.340910  2.516010  0.000000
      ESP Fit Center  240 is at   0.403304  2.751278  0.000000
      ESP Fit Center  241 is at  -0.423899  2.180302  0.000000
      ESP Fit Center  242 is at   1.091820  1.393062  2.574519
      ESP Fit Center  243 is at   2.079299  1.393062  2.253668
      ESP Fit Center  244 is at   1.396968  2.332211  2.253668
      ESP Fit Center  245 is at   0.292933  1.973488  2.253668
      ESP Fit Center  246 is at   0.292933  0.812636  2.253668
      ESP Fit Center  247 is at   2.315787  2.420092  1.413668
      ESP Fit Center  248 is at   1.369271  2.966563  1.413668
      ESP Fit Center  249 is at   0.292933  2.776776  1.413668
      ESP Fit Center  250 is at  -0.409597  1.939533  1.413668
      ESP Fit Center  251 is at   1.369271  2.966563  0.375370
      ESP Fit Center  252 is at   0.292933  2.776776  0.375370
      ESP Fit Center  253 is at   2.373093  2.483237 -0.340861
      ESP Fit Center  254 is at   1.426577  3.029708 -0.340861
      ESP Fit Center  255 is at   0.350239  2.839921 -0.340861
      ESP Fit Center  256 is at   2.373093  2.483237 -1.379159
      ESP Fit Center  257 is at   1.426577  3.029708 -1.379159
      ESP Fit Center  258 is at   0.350239  2.839921 -1.379159
      ESP Fit Center  259 is at  -0.352291  2.002678 -1.379159
      ESP Fit Center  260 is at   2.136605  1.456207 -2.219159
      ESP Fit Center  261 is at   1.454274  2.395356 -2.219159
      ESP Fit Center  262 is at   0.350239  2.036633 -2.219159
      ESP Fit Center  263 is at   1.454274  0.517058 -2.219159
      ESP Fit Center  264 is at   1.149126  1.456207 -2.540010
      ESP Fit Center  265 is at   4.275708  0.000000 -1.050000
      ESP Fit Center  266 is at   2.982055  0.909327 -1.818653
      ESP Fit Center  267 is at   3.575148  1.648812  1.457901
      ESP Fit Center  268 is at   4.493967  1.736693  0.617901
      ESP Fit Center  269 is at   3.547451  2.283164  0.617901
      ESP Fit Center  270 is at   4.867775  0.709663 -0.420397
      ESP Fit Center  271 is at   4.493967  1.736693 -0.420397
      ESP Fit Center  272 is at   3.547451  2.283164 -0.420397
      ESP Fit Center  273 is at   4.493967 -0.317367 -0.420397
      ESP Fit Center  274 is at   4.257479  0.709663 -1.260397
      ESP Fit Center  275 is at   3.575148  1.648812 -1.260397
      ESP Fit Center  276 is at   4.193364 -0.529214 -1.454718
      ESP Fit Center  277 is at   2.873040 -2.102715 -1.454718
      ESP Fit Center  278 is at   3.819556 -1.556244 -1.454718
      ESP Fit Center  279 is at   3.583068 -0.529214 -2.294718
      ESP Fit Center  280 is at   2.900737  0.409935 -2.294718
      ESP Fit Center  281 is at   1.796702  0.051212 -2.294718
      ESP Fit Center  282 is at   1.796702 -1.109640 -2.294718
      ESP Fit Center  283 is at   2.900737 -1.468363 -2.294718
      ESP Fit Center  284 is at   2.595589 -0.529214 -2.615569
      ESP Fit Center  285 is at   2.501250 -1.191452  3.824405
      ESP Fit Center  286 is at   3.564265 -1.191452  3.581779
      ESP Fit Center  287 is at   3.032758 -0.270854  3.581779
      ESP Fit Center  288 is at   1.969742 -0.270854  3.581779
      ESP Fit Center  289 is at   1.438235 -1.191452  3.581779
      ESP Fit Center  290 is at   1.969742 -2.112050  3.581779
      ESP Fit Center  291 is at   3.032758 -2.112050  3.581779
      ESP Fit Center  292 is at   3.296972  0.550936  2.901955
      ESP Fit Center  293 is at   2.228648  0.704538  2.901955
      ESP Fit Center  294 is at   1.246873  0.256177  2.901955
      ESP Fit Center  295 is at   0.663354 -0.651797  2.901955
      ESP Fit Center  296 is at   0.663354 -1.731107  2.901955
      ESP Fit Center  297 is at   1.246873 -2.639081  2.901955
      ESP Fit Center  298 is at   2.228648 -3.087442  2.901955
      ESP Fit Center  299 is at   3.032758  1.137235  1.919581
      ESP Fit Center  300 is at   0.112677 -1.191452  1.919581
      ESP Fit Center  301 is at   0.349220 -2.227815  1.919581
      ESP Fit Center  302 is at   1.011999 -3.058914  1.919581
      ESP Fit Center  303 is at   1.969742 -3.520139  1.919581
      ESP Fit Center  304 is at   0.349220 -2.227815  0.829229
      ESP Fit Center  305 is at   1.011999 -3.058914  0.829229
      ESP Fit Center  306 is at   1.969742 -3.520139  0.829229
      ESP Fit Center  307 is at   3.032758 -3.520139  0.829229
      ESP Fit Center  308 is at   1.246873 -2.639081 -0.153145
      ESP Fit Center  309 is at   2.228648 -3.087442 -0.153145
      ESP Fit Center  310 is at   1.969742 -2.112050 -0.832969
      ESP Fit Center  311 is at   4.244195 -2.696147  3.502918
      ESP Fit Center  312 is at   3.445308 -3.276573  3.182067
      ESP Fit Center  313 is at   3.445308 -4.079861  2.342067
      ESP Fit Center  314 is at   4.521646 -4.269648  2.342067
      ESP Fit Center  315 is at   3.445308 -4.079861  1.303769
      ESP Fit Center  316 is at   4.521646 -4.269648  1.303769
      ESP Fit Center  317 is at   5.468162 -3.723177  1.303769
      ESP Fit Center  318 is at   5.708182 -0.949865 -0.262604
      ESP Fit Center  319 is at   4.761666 -0.403394 -0.262604
      ESP Fit Center  320 is at   3.685328 -3.360609 -0.262604
      ESP Fit Center  321 is at   4.761666 -3.550396 -0.262604
      ESP Fit Center  322 is at   5.708182 -3.003925 -0.262604
      ESP Fit Center  323 is at   5.471694 -1.976895 -1.102604
      ESP Fit Center  324 is at   4.789363 -1.037746 -1.102604
      ESP Fit Center  325 is at   3.685328 -2.557321 -1.102604
      ESP Fit Center  326 is at   4.789363 -2.916044 -1.102604
      ESP Fit Center  327 is at   4.484215 -1.976895 -1.423455
      ESP Fit Center  328 is at   5.990644  0.875827  2.938531
      ESP Fit Center  329 is at   4.976793 -0.551808  4.595298
      ESP Fit Center  330 is at   5.964272 -0.551808  4.274447
      ESP Fit Center  331 is at   5.281941  0.387341  4.274447
      ESP Fit Center  332 is at   4.177906  0.028618  4.274447
      ESP Fit Center  333 is at   4.177906 -1.132234  4.274447
      ESP Fit Center  334 is at   5.281941 -1.490957  4.274447
      ESP Fit Center  335 is at   6.200760  0.475222  3.434447
      ESP Fit Center  336 is at   5.254244  1.021693  3.434447
      ESP Fit Center  337 is at   4.177906  0.831906  3.434447
      ESP Fit Center  338 is at   3.475376 -0.005337  3.434447
      ESP Fit Center  339 is at   4.177906 -1.935522  3.434447
      ESP Fit Center  340 is at   6.448903  1.185078  1.865245
      ESP Fit Center  341 is at   5.502387  1.731549  1.865245
      ESP Fit Center  342 is at   4.426049  1.541762  1.865245
      ESP Fit Center  343 is at   6.448903  1.185078  0.826947
      ESP Fit Center  344 is at   5.502387  1.731549  0.826947
      ESP Fit Center  345 is at   6.212415  0.158048 -0.013053
      ESP Fit Center  346 is at   5.530084  1.097197 -0.013053
      ESP Fit Center  347 is at   5.224936  0.158048 -0.333904
      ESP Fit Center  348 is at   8.572233 -0.316438  3.337358
      ESP Fit Center  349 is at   7.756545  0.390359  3.337358
      ESP Fit Center  350 is at   6.688221  0.543961  3.337358
      ESP Fit Center  351 is at   9.112853 -0.315666  2.354984
      ESP Fit Center  352 is at   8.450074  0.515433  2.354984
      ESP Fit Center  353 is at   7.492331  0.976658  2.354984
      ESP Fit Center  354 is at   6.429315  0.976658  2.354984
      ESP Fit Center  355 is at   9.112853 -0.315666  1.264632
      ESP Fit Center  356 is at   8.450074  0.515433  1.264632
      ESP Fit Center  357 is at   7.492331  0.976658  1.264632
      ESP Fit Center  358 is at   6.429315 -3.680716  1.264632
      ESP Fit Center  359 is at   8.876310 -1.352029  0.282258
      ESP Fit Center  360 is at   8.572233 -0.316438  0.282258
      ESP Fit Center  361 is at   7.756545  0.390359  0.282258
      ESP Fit Center  362 is at   6.688221  0.543961  0.282258
      ESP Fit Center  363 is at   6.688221 -3.248019  0.282258
      ESP Fit Center  364 is at   7.756545 -3.094417  0.282258
      ESP Fit Center  365 is at   8.572233 -2.387620  0.282258
      ESP Fit Center  366 is at   8.023838 -1.352029 -0.397566
      ESP Fit Center  367 is at   7.492331 -0.431431 -0.397566
      ESP Fit Center  368 is at   6.429315 -0.431431 -0.397566
      ESP Fit Center  369 is at   6.429315 -2.272627 -0.397566
      ESP Fit Center  370 is at   7.492331 -2.272627 -0.397566
      ESP Fit Center  371 is at   6.960823 -1.352029 -0.640192
      ESP Fit Center  372 is at   6.473373 -3.400492  5.048955
      ESP Fit Center  373 is at   5.253388 -1.978791  4.280302
      ESP Fit Center  374 is at   5.315736 -2.537347  4.563289
      ESP Fit Center  375 is at   5.315736 -3.698199  4.563289
      ESP Fit Center  376 is at   6.419771 -4.056922  4.563289
      ESP Fit Center  377 is at   4.613206 -2.571302  3.723289
      ESP Fit Center  378 is at   4.613206 -3.664244  3.723289
      ESP Fit Center  379 is at   5.315736 -4.501487  3.723289
      ESP Fit Center  380 is at   6.392074 -4.691274  3.723289
      ESP Fit Center  381 is at   5.315736 -4.501487  2.684991
      ESP Fit Center  382 is at   6.392074 -4.691274  2.684991
      ESP Fit Center  383 is at   6.419771 -4.056922  1.844991
      ESP Fit Center  384 is at   6.963005 -1.918092  5.828472
      ESP Fit Center  385 is at   7.268153 -0.978943  5.507621
      ESP Fit Center  386 is at   6.164118 -1.337666  5.507621
      ESP Fit Center  387 is at   6.164118 -2.498518  5.507621
      ESP Fit Center  388 is at   7.268153 -2.857241  5.507621
      ESP Fit Center  389 is at   7.240456 -0.344591  4.667621
      ESP Fit Center  390 is at   6.164118 -0.534378  4.667621
      ESP Fit Center  391 is at   5.461588 -1.371621  4.667621
      ESP Fit Center  392 is at   5.461588 -2.464563  4.667621
      ESP Fit Center  393 is at   6.645742 -4.805378  3.210730
      ESP Fit Center  394 is at   9.410551 -5.141086  3.210730
      ESP Fit Center  395 is at   8.137151 -4.107280  5.719966
      ESP Fit Center  396 is at   7.338264 -3.526854  5.399115
      ESP Fit Center  397 is at   7.338264 -4.687706  5.399115
      ESP Fit Center  398 is at   8.442299 -5.046429  5.399115
      ESP Fit Center  399 is at   6.635734 -4.653751  4.559115
      ESP Fit Center  400 is at   7.338264 -5.490994  4.559115
      ESP Fit Center  401 is at   8.414602 -5.680781  4.559115
      ESP Fit Center  402 is at   9.361118 -5.134310  4.559115
      ESP Fit Center  403 is at   7.338264 -5.490994  3.520817
      ESP Fit Center  404 is at   8.414602 -5.680781  3.520817
      ESP Fit Center  405 is at   7.419350 -5.382075  2.818875
      ESP Fit Center  406 is at   8.495688 -5.571862  2.818875
      ESP Fit Center  407 is at   6.716820 -4.544832  1.780577
      ESP Fit Center  408 is at   7.419350 -5.382075  1.780577
      ESP Fit Center  409 is at   8.495688 -5.571862  1.780577
      ESP Fit Center  410 is at   9.442204 -5.025391  1.780577
      ESP Fit Center  411 is at   9.205716 -3.998361  0.940577
      ESP Fit Center  412 is at   8.523385 -3.059212  0.940577
      ESP Fit Center  413 is at   7.419350 -4.578787  0.940577
      ESP Fit Center  414 is at   8.523385 -4.937510  0.940577
      ESP Fit Center  415 is at   8.218237 -3.998361  0.619726
      ESP Fit Center  416 is at  10.648175 -4.368061  4.793343
      ESP Fit Center  417 is at  11.463863 -3.661264  4.793343
      ESP Fit Center  418 is at  10.383961 -4.954360  3.810969
      ESP Fit Center  419 is at  11.341704 -4.493135  3.810969
      ESP Fit Center  420 is at  12.004483 -3.662036  3.810969
      ESP Fit Center  421 is at  12.241026 -2.625673  2.720617
      ESP Fit Center  422 is at  12.004483 -1.589310  2.720617
      ESP Fit Center  423 is at  11.341704 -0.758211  2.720617
      ESP Fit Center  424 is at  10.383961 -0.296986  2.720617
      ESP Fit Center  425 is at   9.320945 -0.296986  2.720617
      ESP Fit Center  426 is at  10.383961 -4.954360  2.720617
      ESP Fit Center  427 is at  11.341704 -4.493135  2.720617
      ESP Fit Center  428 is at  12.004483 -3.662036  2.720617
      ESP Fit Center  429 is at  11.767940 -2.625673  1.738243
      ESP Fit Center  430 is at  11.463863 -1.590082  1.738243
      ESP Fit Center  431 is at  10.648175 -0.883285  1.738243
      ESP Fit Center  432 is at   9.579851 -0.729683  1.738243
      ESP Fit Center  433 is at  10.648175 -4.368061  1.738243
      ESP Fit Center  434 is at  11.463863 -3.661264  1.738243
      ESP Fit Center  435 is at  10.915468 -2.625673  1.058419
      ESP Fit Center  436 is at  10.383961 -1.705075  1.058419
      ESP Fit Center  437 is at   9.320945 -1.705075  1.058419
      ESP Fit Center  438 is at   9.320945 -3.546271  1.058419
      ESP Fit Center  439 is at  10.383961 -3.546271  1.058419
      ESP Fit Center  440 is at   9.852453 -2.625673  0.815793
      ESP Fit Center  441 is at   9.325936 -0.973487  6.744164
      ESP Fit Center  442 is at   9.410018 -0.160409  6.332292
      ESP Fit Center  443 is at   8.305983 -0.519132  6.332292
      ESP Fit Center  444 is at   9.382321  0.473943  5.492292
      ESP Fit Center  445 is at   8.305983  0.284156  5.492292
      ESP Fit Center  446 is at   7.603453 -0.553087  5.492292
      ESP Fit Center  447 is at   9.382321  0.473943  4.453994
      ESP Fit Center  448 is at   8.305983  0.284156  4.453994
      ESP Fit Center  449 is at   9.410018 -0.160409  3.613994
      ESP Fit Center  450 is at   9.589715 -2.644101  7.332207
      ESP Fit Center  451 is at  10.577194 -2.644101  7.011356
      ESP Fit Center  452 is at   8.790828 -2.063675  7.011356
      ESP Fit Center  453 is at   8.790828 -3.224527  7.011356
      ESP Fit Center  454 is at   9.894863 -3.583250  7.011356
      ESP Fit Center  455 is at   8.088298 -2.097630  6.171356
      ESP Fit Center  456 is at   8.088298 -3.190572  6.171356
      ESP Fit Center  457 is at   8.790828 -4.027815  6.171356
      ESP Fit Center  458 is at   9.867166 -4.217602  6.171356
      ESP Fit Center  459 is at  10.813682 -3.671131  6.171356
      ESP Fit Center  460 is at   9.867166 -4.217602  5.133058
      ESP Fit Center  461 is at  11.754169 -2.214599  7.056186
      ESP Fit Center  462 is at  13.047822 -1.305272  6.287533
      ESP Fit Center  463 is at  13.088627 -0.329353  5.237533
      ESP Fit Center  464 is at  10.484499  0.658262  5.237533
      ESP Fit Center  465 is at  11.226031 -0.852138  7.903544
      ESP Fit Center  466 is at  12.213510 -0.852138  7.582693
      ESP Fit Center  467 is at  11.531179  0.087011  7.582693
      ESP Fit Center  468 is at  10.427144 -0.271712  7.582693
      ESP Fit Center  469 is at  10.427144 -1.432564  7.582693
      ESP Fit Center  470 is at  11.531179 -1.791287  7.582693
      ESP Fit Center  471 is at  12.823806 -0.852138  6.742693
      ESP Fit Center  472 is at  12.449998  0.174892  6.742693
      ESP Fit Center  473 is at  11.503482  0.721363  6.742693
      ESP Fit Center  474 is at  10.427144  0.531576  6.742693
      ESP Fit Center  475 is at   9.724614 -0.305667  6.742693
      ESP Fit Center  476 is at  12.977672 -2.077237  6.580705
      ESP Fit Center  477 is at  12.295341 -3.016386  6.580705
      ESP Fit Center  478 is at  13.587968 -2.077237  5.740705
      ESP Fit Center  479 is at  11.191306 -3.460951  5.740705
      ESP Fit Center  480 is at  12.267644 -3.650738  5.740705
      ESP Fit Center  481 is at  13.214160 -3.104267  5.740705
      ESP Fit Center  482 is at  13.587968 -2.077237  4.702407
      ESP Fit Center  483 is at  12.267644 -3.650738  4.702407
      ESP Fit Center  484 is at  13.214160 -3.104267  4.702407
      ESP Fit Center  485 is at  12.977672 -2.077237  3.862407
      ESP Fit Center  486 is at  12.295341 -3.016386  3.862407
      ESP Fit Center  487 is at  12.728686  0.485036  5.037369
      ESP Fit Center  488 is at  11.782170  1.031507  5.037369
      ESP Fit Center  489 is at  10.705832  0.841720  5.037369
      ESP Fit Center  490 is at  13.102494 -0.541994  3.999071
      ESP Fit Center  491 is at  12.728686  0.485036  3.999071
      ESP Fit Center  492 is at  11.782170  1.031507  3.999071
      ESP Fit Center  493 is at  10.705832  0.841720  3.999071
      ESP Fit Center  494 is at  10.003302  0.004477  3.999071
      ESP Fit Center  495 is at  12.492198 -0.541994  3.159071
      ESP Fit Center  496 is at  11.809867  0.397155  3.159071
      ESP Fit Center  497 is at  10.705832  0.038432  3.159071
      ESP Fit Center  498 is at  11.504719 -0.541994  2.838220
      ESP Fit Center  499 is at  -3.275919  4.036821  3.751542
      ESP Fit Center  500 is at  -4.317239  4.036821  3.751542
      ESP Fit Center  501 is at  -4.063618  4.992308  3.085593
      ESP Fit Center  502 is at  -5.904690  2.119798  2.123267
      ESP Fit Center  503 is at  -1.688468  2.119798  2.123267
      ESP Fit Center  504 is at  -3.017096  4.841840  0.092841
      ESP Fit Center  505 is at  -4.063618  4.992308  0.092841
      ESP Fit Center  506 is at  -1.995752  3.797876  3.434035
      ESP Fit Center  507 is at  -2.475752  4.629260  3.434035
      ESP Fit Center  508 is at  -3.435752  4.629260  3.434035
      ESP Fit Center  509 is at  -1.292983  3.797876  2.731266
      ESP Fit Center  510 is at  -1.610544  4.775227  2.731266
      ESP Fit Center  511 is at  -2.441928  5.379263  2.731266
      ESP Fit Center  512 is at  -3.469576  5.379263  2.731266
      ESP Fit Center  513 is at  -1.610544  2.820525  2.731266
      ESP Fit Center  514 is at  -1.035752  3.797876  1.771266
      ESP Fit Center  515 is at  -1.292983  4.757876  1.771266
      ESP Fit Center  516 is at  -1.995752  5.460645  1.771266
      ESP Fit Center  517 is at  -2.955752  5.717876  1.771266
      ESP Fit Center  518 is at  -1.292983  2.837876  1.771266
      ESP Fit Center  519 is at  -1.292983  3.797876  0.811266
      ESP Fit Center  520 is at  -1.610544  4.775227  0.811266
      ESP Fit Center  521 is at  -2.441928  5.379263  0.811266
      ESP Fit Center  522 is at  -2.475752  4.629260  0.108497
      ESP Fit Center  523 is at  -5.173729  4.566371  3.145966
      ESP Fit Center  524 is at  -5.653729  3.734987  3.145966
      ESP Fit Center  525 is at  -5.207553  5.316374  2.443197
      ESP Fit Center  526 is at  -6.038937  4.712338  2.443197
      ESP Fit Center  527 is at  -6.356498  3.734987  2.443197
      ESP Fit Center  528 is at  -6.038937  2.757636  2.443197
      ESP Fit Center  529 is at  -4.693729  5.654987  1.483197
      ESP Fit Center  530 is at  -5.653729  5.397756  1.483197
      ESP Fit Center  531 is at  -6.356498  4.694987  1.483197
      ESP Fit Center  532 is at  -6.613729  3.734987  1.483197
      ESP Fit Center  533 is at  -6.356498  2.774987  1.483197
      ESP Fit Center  534 is at  -4.179905  5.316374  0.523197
      ESP Fit Center  535 is at  -5.207553  5.316374  0.523197
      ESP Fit Center  536 is at  -6.038937  4.712338  0.523197
      ESP Fit Center  537 is at  -6.356498  3.734987  0.523197
      ESP Fit Center  538 is at  -5.173729  4.566371 -0.179572
      ESP Fit Center  539 is at  -5.653729  3.734987 -0.179572
      ESP Fit Center  540 is at  -3.918501  2.491600  4.373619
      ESP Fit Center  541 is at  -2.958501  2.491600  4.116388
      ESP Fit Center  542 is at  -3.438501  3.322984  4.116388
      ESP Fit Center  543 is at  -4.398501  3.322984  4.116388
      ESP Fit Center  544 is at  -4.878501  2.491600  4.116388
      ESP Fit Center  545 is at  -4.398501  1.660216  4.116388
      ESP Fit Center  546 is at  -3.438501  1.660216  4.116388
      ESP Fit Center  547 is at  -2.255732  2.491600  3.413619
      ESP Fit Center  548 is at  -5.581270  2.491600  3.413619
      ESP Fit Center  549 is at  -5.263709  1.514249  3.413619
      ESP Fit Center  550 is at  -4.432325  0.910213  3.413619
      ESP Fit Center  551 is at  -3.404677  0.910213  3.413619
      ESP Fit Center  552 is at  -2.573293  1.514249  3.413619
      ESP Fit Center  553 is at  -5.581270  1.531600  2.453619
      ESP Fit Center  554 is at  -4.878501  0.828831  2.453619
      ESP Fit Center  555 is at  -3.918501  0.571600  2.453619
      ESP Fit Center  556 is at  -2.958501  0.828831  2.453619
      ESP Fit Center  557 is at  -1.449188  3.321563 -0.191973
      ESP Fit Center  558 is at  -1.680903  2.306350 -1.154299
      ESP Fit Center  559 is at  -1.775255  3.913979 -0.525637
      ESP Fit Center  560 is at  -2.478024  4.616748 -0.525637
      ESP Fit Center  561 is at  -3.438024  4.873979 -0.525637
      ESP Fit Center  562 is at  -4.398024  4.616748 -0.525637
      ESP Fit Center  563 is at  -1.775255  2.953979 -1.485637
      ESP Fit Center  564 is at  -2.092816  3.931330 -1.485637
      ESP Fit Center  565 is at  -2.924200  4.535366 -1.485637
      ESP Fit Center  566 is at  -3.951848  4.535366 -1.485637
      ESP Fit Center  567 is at  -4.783232  3.931330 -1.485637
      ESP Fit Center  568 is at  -2.478024  2.953979 -2.188406
      ESP Fit Center  569 is at  -2.958024  3.785363 -2.188406
      ESP Fit Center  570 is at  -3.918024  3.785363 -2.188406
      ESP Fit Center  571 is at  -3.438024  2.953979 -2.445637
      ESP Fit Center  572 is at  -1.694084  1.717482  2.099292
      ESP Fit Center  573 is at  -2.174084  0.886098  2.099292
      ESP Fit Center  574 is at  -0.991315  1.717482  1.396523
      ESP Fit Center  575 is at  -1.308876  2.694833  1.396523
      ESP Fit Center  576 is at  -3.167908  0.136095  1.396523
      ESP Fit Center  577 is at  -2.140260  0.136095  1.396523
      ESP Fit Center  578 is at  -0.991315  2.677482  0.436523
      ESP Fit Center  579 is at  -1.308876  2.694833 -0.523477
      ESP Fit Center  580 is at  -5.647586  1.474403  2.176692
      ESP Fit Center  581 is at  -5.161636  0.632713  2.176692
      ESP Fit Center  582 is at  -6.426989  1.474403  1.555139
      ESP Fit Center  583 is at  -6.092520  0.445013  1.555139
      ESP Fit Center  584 is at  -5.216868 -0.191185  1.555139
      ESP Fit Center  585 is at  -6.310313  2.922556  0.656969
      ESP Fit Center  586 is at  -6.796066  1.997030  0.656969
      ESP Fit Center  587 is at  -6.796066  0.951776  0.656969
      ESP Fit Center  588 is at  -6.310313  0.026250  0.656969
      ESP Fit Center  589 is at  -6.310313  2.922556 -0.339925
      ESP Fit Center  590 is at  -6.796066  1.997030 -0.339925
      ESP Fit Center  591 is at  -5.216868  3.139991 -1.238095
      ESP Fit Center  592 is at  -5.979708 -0.651768  0.457167
      ESP Fit Center  593 is at  -6.209788  2.595667 -1.573259
      ESP Fit Center  594 is at  -5.792251  0.766317 -3.201534
      ESP Fit Center  595 is at  -5.271590 -0.135493 -3.201534
      ESP Fit Center  596 is at  -5.431765  3.057575 -1.882513
      ESP Fit Center  597 is at  -2.808996  1.394806 -2.842513
      ESP Fit Center  598 is at  -3.126557  2.372157 -2.842513
      ESP Fit Center  599 is at  -3.957941  2.976193 -2.842513
      ESP Fit Center  600 is at  -4.985589  2.976193 -2.842513
      ESP Fit Center  601 is at  -5.816973  2.372157 -2.842513
      ESP Fit Center  602 is at  -3.511765  1.394806 -3.545282
      ESP Fit Center  603 is at  -3.991765  2.226190 -3.545282
      ESP Fit Center  604 is at  -4.951765  2.226190 -3.545282
      ESP Fit Center  605 is at  -5.431765  1.394806 -3.545282
      ESP Fit Center  606 is at  -4.951765  0.563422 -3.545282
      ESP Fit Center  607 is at  -3.991765  0.563422 -3.545282
      ESP Fit Center  608 is at  -4.471765  1.394806 -3.802513
      ESP Fit Center  609 is at  -6.751859  0.486931  0.503831
      ESP Fit Center  610 is at  -6.271859 -0.344453  0.503831
      ESP Fit Center  611 is at  -7.137067  1.464282 -0.198938
      ESP Fit Center  612 is at  -7.454628  0.486931 -0.198938
      ESP Fit Center  613 is at  -7.137067 -0.490420 -0.198938
      ESP Fit Center  614 is at  -6.305683 -1.094456 -0.198938
      ESP Fit Center  615 is at  -6.751859  2.149700 -1.158938
      ESP Fit Center  616 is at  -7.454628  1.446931 -1.158938
      ESP Fit Center  617 is at  -7.711859  0.486931 -1.158938
      ESP Fit Center  618 is at  -7.454628 -0.473069 -1.158938
      ESP Fit Center  619 is at  -6.751859 -1.175838 -1.158938
      ESP Fit Center  620 is at  -7.137067  1.464282 -2.118938
      ESP Fit Center  621 is at  -7.454628  0.486931 -2.118938
      ESP Fit Center  622 is at  -7.137067 -0.490420 -2.118938
      ESP Fit Center  623 is at  -6.305683 -1.094456 -2.118938
      ESP Fit Center  624 is at  -6.271859  1.318315 -2.821707
      ESP Fit Center  625 is at  -6.751859  0.486931 -2.821707
      ESP Fit Center  626 is at  -6.271859 -0.344453 -2.821707
      ESP Fit Center  627 is at  -6.021288 -1.513545 -0.526642
      ESP Fit Center  628 is at  -3.392517  0.403478 -3.223017
      ESP Fit Center  629 is at  -4.066184 -1.043951  1.787702
      ESP Fit Center  630 is at  -3.106184 -1.043951  1.530471
      ESP Fit Center  631 is at  -3.586184 -0.212567  1.530471
      ESP Fit Center  632 is at  -5.026184 -1.043951  1.530471
      ESP Fit Center  633 is at  -4.546184 -1.875335  1.530471
      ESP Fit Center  634 is at  -3.586184 -1.875335  1.530471
      ESP Fit Center  635 is at  -5.728953 -1.043951  0.827702
      ESP Fit Center  636 is at  -5.411392 -2.021302  0.827702
      ESP Fit Center  637 is at  -4.580008 -2.625338  0.827702
      ESP Fit Center  638 is at  -3.552360 -2.625338  0.827702
      ESP Fit Center  639 is at  -5.728953 -2.003951 -0.132298
      ESP Fit Center  640 is at  -5.026184 -2.706720 -0.132298
      ESP Fit Center  641 is at  -4.066184 -2.963951 -0.132298
      ESP Fit Center  642 is at  -5.905631 -2.094226 -1.883700
      ESP Fit Center  643 is at  -5.202862 -2.796995 -1.883700
      ESP Fit Center  644 is at  -4.242862 -3.054226 -1.883700
      ESP Fit Center  645 is at  -5.905631 -1.134226 -2.843700
      ESP Fit Center  646 is at  -5.588070 -2.111577 -2.843700
      ESP Fit Center  647 is at  -4.756686 -2.715613 -2.843700
      ESP Fit Center  648 is at  -3.729038 -2.715613 -2.843700
      ESP Fit Center  649 is at  -3.282862 -1.134226 -3.546469
      ESP Fit Center  650 is at  -3.762862 -0.302842 -3.546469
      ESP Fit Center  651 is at  -4.722862 -0.302842 -3.546469
      ESP Fit Center  652 is at  -5.202862 -1.134226 -3.546469
      ESP Fit Center  653 is at  -4.722862 -1.965610 -3.546469
      ESP Fit Center  654 is at  -3.762862 -1.965610 -3.546469
      ESP Fit Center  655 is at  -4.242862 -1.134226 -3.803700
      ESP Fit Center  656 is at  -2.565433 -0.169081  1.018616
      ESP Fit Center  657 is at  -1.324871  1.628183 -1.719831
      ESP Fit Center  658 is at  -2.024251  1.496507 -2.618001
      ESP Fit Center  659 is at  -2.079483  0.672609 -3.239554
      ESP Fit Center  660 is at  -3.051383  0.672609 -3.239554
      ESP Fit Center  661 is at  -2.565433 -0.169081 -3.461384
      ESP Fit Center  662 is at  -1.159701 -3.519879 -0.575059
      ESP Fit Center  663 is at  -3.498882 -2.908523 -1.922008
      ESP Fit Center  664 is at  -2.796113 -3.611292 -1.922008
      ESP Fit Center  665 is at  -1.836113 -3.868523 -1.922008
      ESP Fit Center  666 is at  -0.876113 -3.611292 -1.922008
      ESP Fit Center  667 is at  -3.181321 -2.925874 -2.882008
      ESP Fit Center  668 is at  -2.349937 -3.529910 -2.882008
      ESP Fit Center  669 is at  -1.322289 -3.529910 -2.882008
      ESP Fit Center  670 is at  -0.490905 -2.925874 -2.882008
      ESP Fit Center  671 is at  -0.876113 -1.948523 -3.584777
      ESP Fit Center  672 is at  -1.356113 -1.117139 -3.584777
      ESP Fit Center  673 is at  -2.316113 -1.117139 -3.584777
      ESP Fit Center  674 is at  -2.796113 -1.948523 -3.584777
      ESP Fit Center  675 is at  -2.316113 -2.779907 -3.584777
      ESP Fit Center  676 is at  -1.356113 -2.779907 -3.584777
      ESP Fit Center  677 is at  -1.836113 -1.948523 -3.842008
      ESP Fit Center  678 is at  -1.827641 -1.764897  1.750700
      ESP Fit Center  679 is at  -0.867641 -1.764897  1.493469
      ESP Fit Center  680 is at  -2.307641 -0.933513  1.493469
      ESP Fit Center  681 is at  -2.787641 -1.764897  1.493469
      ESP Fit Center  682 is at  -2.307641 -2.596281  1.493469
      ESP Fit Center  683 is at  -1.347641 -2.596281  1.493469
      ESP Fit Center  684 is at  -3.172849 -2.742248  0.790700
      ESP Fit Center  685 is at  -2.341465 -3.346284  0.790700
      ESP Fit Center  686 is at  -1.313817 -3.346284  0.790700
      ESP Fit Center  687 is at  -0.482433 -2.742248  0.790700
      ESP Fit Center  688 is at  -2.787641 -3.427666 -0.169300
      ESP Fit Center  689 is at  -1.827641 -3.684897 -0.169300
      ESP Fit Center  690 is at  -0.867641 -3.427666 -0.169300
      ESP Fit Center  691 is at   1.611889 -0.715622 -2.666592
      ESP Fit Center  692 is at   0.256153 -1.617432 -3.332541
      ESP Fit Center  693 is at  -1.114362  1.587411 -2.042781
      ESP Fit Center  694 is at   1.508407 -0.075358 -3.002781
      ESP Fit Center  695 is at   1.190846  0.901993 -3.002781
      ESP Fit Center  696 is at   0.359462  1.506029 -3.002781
      ESP Fit Center  697 is at  -0.668186  1.506029 -3.002781
      ESP Fit Center  698 is at  -1.499570  0.901993 -3.002781
      ESP Fit Center  699 is at   0.805638 -0.075358 -3.705550
      ESP Fit Center  700 is at   0.325638  0.756026 -3.705550
      ESP Fit Center  701 is at  -0.634362  0.756026 -3.705550
      ESP Fit Center  702 is at  -1.114362 -0.075358 -3.705550
      ESP Fit Center  703 is at  -0.634362 -0.906742 -3.705550
      ESP Fit Center  704 is at   0.325638 -0.906742 -3.705550
      ESP Fit Center  705 is at  -0.154362 -0.075358 -3.962781
      ESP Fit Center  706 is at  -0.095696 -3.137195 -0.311492
      ESP Fit Center  707 is at   0.931952 -3.137195 -0.311492
      ESP Fit Center  708 is at   0.418128 -3.475808 -1.271492
      ESP Fit Center  709 is at   1.378128 -3.218577 -1.271492
      ESP Fit Center  710 is at   2.080897 -2.515808 -1.271492
      ESP Fit Center  711 is at  -0.095696 -3.137195 -2.231492
      ESP Fit Center  712 is at   0.931952 -3.137195 -2.231492
      ESP Fit Center  713 is at   1.763336 -2.533159 -2.231492
      ESP Fit Center  714 is at   1.378128 -1.555808 -2.934261
      ESP Fit Center  715 is at  -0.061872 -2.387192 -2.934261
      ESP Fit Center  716 is at   0.898128 -2.387192 -2.934261
      ESP Fit Center  717 is at   0.000000  0.000000  2.240000
      ESP Fit Center  718 is at  -0.485950  0.841690  2.018170
      ESP Fit Center  719 is at  -0.971900  0.000000  2.018170
      ESP Fit Center  720 is at  -0.485950 -0.841690  2.018170
      ESP Fit Center  721 is at  -1.751303  0.000000  1.396617
      ESP Fit Center  722 is at  -0.541182 -1.665588  1.396617
      ESP Fit Center  723 is at   2.606832  2.617094  0.534050
      ESP Fit Center  724 is at   1.091820  1.393062  2.814519
      ESP Fit Center  725 is at   2.051820  1.393062  2.557288
      ESP Fit Center  726 is at   1.571820  2.224446  2.557288
      ESP Fit Center  727 is at   0.611820  2.224446  2.557288
      ESP Fit Center  728 is at   0.131820  1.393062  2.557288
      ESP Fit Center  729 is at   0.611820  0.561678  2.557288
      ESP Fit Center  730 is at   2.437028  2.370413  1.854519
      ESP Fit Center  731 is at   1.605644  2.974449  1.854519
      ESP Fit Center  732 is at   0.577996  2.974449  1.854519
      ESP Fit Center  733 is at  -0.253388  2.370413  1.854519
      ESP Fit Center  734 is at  -0.570949  1.393062  1.854519
      ESP Fit Center  735 is at   2.051820  3.055831  0.894519
      ESP Fit Center  736 is at   1.091820  3.313062  0.894519
      ESP Fit Center  737 is at   0.131820  3.055831  0.894519
      ESP Fit Center  738 is at  -0.570949  2.353062  0.894519
      ESP Fit Center  739 is at   2.811895  2.416207 -0.860010
      ESP Fit Center  740 is at   2.109126  3.118976 -0.860010
      ESP Fit Center  741 is at   1.149126  3.376207 -0.860010
      ESP Fit Center  742 is at   0.189126  3.118976 -0.860010
      ESP Fit Center  743 is at  -0.513643  2.416207 -0.860010
      ESP Fit Center  744 is at   2.494334  2.433558 -1.820010
      ESP Fit Center  745 is at   1.662950  3.037594 -1.820010
      ESP Fit Center  746 is at   0.635302  3.037594 -1.820010
      ESP Fit Center  747 is at  -0.196082  2.433558 -1.820010
      ESP Fit Center  748 is at   2.109126  1.456207 -2.522779
      ESP Fit Center  749 is at   1.629126  2.287591 -2.522779
      ESP Fit Center  750 is at   0.669126  2.287591 -2.522779
      ESP Fit Center  751 is at   1.629126  0.624823 -2.522779
      ESP Fit Center  752 is at   1.149126  1.456207 -2.780010
      ESP Fit Center  753 is at   2.977715  0.901810 -2.162325
      ESP Fit Center  754 is at   3.750000  1.541047  1.761521
      ESP Fit Center  755 is at   3.783824  2.291050  1.058752
      ESP Fit Center  756 is at   4.932769  1.669663  0.098752
      ESP Fit Center  757 is at   4.230000  2.372432  0.098752
      ESP Fit Center  758 is at   3.270000  2.629663  0.098752
      ESP Fit Center  759 is at   4.932769  0.709663 -0.861248
      ESP Fit Center  760 is at   4.615208  1.687014 -0.861248
      ESP Fit Center  761 is at   3.783824  2.291050 -0.861248
      ESP Fit Center  762 is at   4.230000  0.709663 -1.564017
      ESP Fit Center  763 is at   3.750000  1.541047 -1.564017
      ESP Fit Center  764 is at   4.258358 -0.529214 -1.895569
      ESP Fit Center  765 is at   3.940797  0.448137 -1.895569
      ESP Fit Center  766 is at   3.109413 -2.110601 -1.895569
      ESP Fit Center  767 is at   3.940797 -1.506565 -1.895569
      ESP Fit Center  768 is at   3.555589 -0.529214 -2.598338
      ESP Fit Center  769 is at   3.075589  0.302170 -2.598338
      ESP Fit Center  770 is at   2.115589  0.302170 -2.598338
      ESP Fit Center  771 is at   2.115589 -1.360598 -2.598338
      ESP Fit Center  772 is at   3.075589 -1.360598 -2.598338
      ESP Fit Center  773 is at   2.595589 -0.529214 -2.855569
      ESP Fit Center  774 is at   2.501250 -1.191452  4.174405
      ESP Fit Center  775 is at   3.037007 -0.263494  3.961268
      ESP Fit Center  776 is at   1.965493 -0.263494  3.961268
      ESP Fit Center  777 is at   1.429736 -1.191452  3.961268
      ESP Fit Center  778 is at   1.965493 -2.119410  3.961268
      ESP Fit Center  779 is at   3.037007 -2.119410  3.961268
      ESP Fit Center  780 is at   2.501250  0.788447  3.354304
      ESP Fit Center  781 is at   1.511301  0.523191  3.354304
      ESP Fit Center  782 is at   0.786607 -0.201503  3.354304
      ESP Fit Center  783 is at   0.521351 -1.191452  3.354304
      ESP Fit Center  784 is at   0.786607 -2.181401  3.354304
      ESP Fit Center  785 is at   1.511301 -2.906095  3.354304
      ESP Fit Center  786 is at   2.501250 -3.171351  3.354304
      ESP Fit Center  787 is at   3.300635  1.268801  2.445919
      ESP Fit Center  788 is at   2.230849  1.381240  2.445919
      ESP Fit Center  789 is at   0.408434  0.329068  2.445919
      ESP Fit Center  790 is at  -0.029084 -0.653613  2.445919
      ESP Fit Center  791 is at  -0.029084 -1.729291  2.445919
      ESP Fit Center  792 is at   0.408434 -2.711972  2.445919
      ESP Fit Center  793 is at   1.207819 -3.431741  2.445919
      ESP Fit Center  794 is at   2.230849 -3.764144  2.445919
      ESP Fit Center  795 is at   0.120642 -2.665462  1.374405
      ESP Fit Center  796 is at   0.813873 -3.425900  1.374405
      ESP Fit Center  797 is at   1.734994 -3.884564  1.374405
      ESP Fit Center  798 is at   2.759601 -3.979508  1.374405
      ESP Fit Center  799 is at   0.408434 -2.711972  0.302891
      ESP Fit Center  800 is at   1.207819 -3.431741  0.302891
      ESP Fit Center  801 is at   2.230849 -3.764144  0.302891
      ESP Fit Center  802 is at   2.501250 -3.171351 -0.605494
      ESP Fit Center  803 is at   4.244195 -2.696147  3.742918
      ESP Fit Center  804 is at   3.764195 -3.527531  3.485687
      ESP Fit Center  805 is at   2.898987 -3.673498  2.782918
      ESP Fit Center  806 is at   3.730371 -4.277534  2.782918
      ESP Fit Center  807 is at   3.284195 -4.358916  1.822918
      ESP Fit Center  808 is at   4.244195 -4.616147  1.822918
      ESP Fit Center  809 is at   5.204195 -4.358916  1.822918
      ESP Fit Center  810 is at   3.730371 -4.277534  0.862918
      ESP Fit Center  811 is at   4.758019 -4.277534  0.862918
      ESP Fit Center  812 is at   5.444215 -3.639664  0.256545
      ESP Fit Center  813 is at   4.998039 -0.395508 -0.703455
      ESP Fit Center  814 is at   3.970391 -3.558282 -0.703455
      ESP Fit Center  815 is at   4.998039 -3.558282 -0.703455
      ESP Fit Center  816 is at   5.829423 -2.954246 -0.703455
      ESP Fit Center  817 is at   5.444215 -1.976895 -1.406224
      ESP Fit Center  818 is at   4.964215 -1.145511 -1.406224
      ESP Fit Center  819 is at   4.004215 -2.808279 -1.406224
      ESP Fit Center  820 is at   4.964215 -2.808279 -1.406224
      ESP Fit Center  821 is at   4.484215 -1.976895 -1.663455
      ESP Fit Center  822 is at   4.976793 -0.551808  4.835298
      ESP Fit Center  823 is at   5.456793  0.279576  4.578067
      ESP Fit Center  824 is at   4.496793  0.279576  4.578067
      ESP Fit Center  825 is at   4.016793 -0.551808  4.578067
      ESP Fit Center  826 is at   4.496793 -1.383192  4.578067
      ESP Fit Center  827 is at   5.490617  1.029579  3.875298
      ESP Fit Center  828 is at   4.462969  1.029579  3.875298
      ESP Fit Center  829 is at   3.631585  0.425543  3.875298
      ESP Fit Center  830 is at   4.462969 -2.133195  3.875298
      ESP Fit Center  831 is at   4.016793  1.110961  2.915298
      ESP Fit Center  832 is at   5.738760  1.739435  2.306096
      ESP Fit Center  833 is at   4.711112  1.739435  2.306096
      ESP Fit Center  834 is at   6.184936  1.820817  1.346096
      ESP Fit Center  835 is at   5.224936  2.078048  1.346096
      ESP Fit Center  836 is at   4.264936  1.820817  1.346096
      ESP Fit Center  837 is at   6.570144  1.135399  0.386096
      ESP Fit Center  838 is at   5.738760  1.739435  0.386096
      ESP Fit Center  839 is at   5.704936  0.989432 -0.316673
      ESP Fit Center  840 is at   5.224936  0.158048 -0.573904
      ESP Fit Center  841 is at   7.950772  0.362614  3.789707
      ESP Fit Center  842 is at   6.960823  0.627870  3.789707
      ESP Fit Center  843 is at   8.691772  0.570385  2.881322
      ESP Fit Center  844 is at   7.760208  1.108224  2.881322
      ESP Fit Center  845 is at   6.690422  1.220663  2.881322
      ESP Fit Center  846 is at   9.030048  0.534319  1.809808
      ESP Fit Center  847 is at   8.208890  1.154428  1.809808
      ESP Fit Center  848 is at   7.219174  1.436027  1.809808
      ESP Fit Center  849 is at   9.547686 -1.352029  0.738294
      ESP Fit Center  850 is at   9.324040 -0.299857  0.738294
      ESP Fit Center  851 is at   8.691772  0.570385  0.738294
      ESP Fit Center  852 is at   7.760208  1.108224  0.738294
      ESP Fit Center  853 is at   6.690422 -3.924721  0.738294
      ESP Fit Center  854 is at   8.940722 -1.352029 -0.170091
      ESP Fit Center  855 is at   8.675466 -0.362080 -0.170091
      ESP Fit Center  856 is at   7.950772  0.362614 -0.170091
      ESP Fit Center  857 is at   6.960823  0.627870 -0.170091
      ESP Fit Center  858 is at   6.960823 -3.331928 -0.170091
      ESP Fit Center  859 is at   7.950772 -3.066672 -0.170091
      ESP Fit Center  860 is at   8.675466 -2.341978 -0.170091
      ESP Fit Center  861 is at   8.032337 -1.352029 -0.777055
      ESP Fit Center  862 is at   7.496580 -0.424071 -0.777055
      ESP Fit Center  863 is at   6.425066 -0.424071 -0.777055
      ESP Fit Center  864 is at   6.425066 -2.279987 -0.777055
      ESP Fit Center  865 is at   7.496580 -2.279987 -0.777055
      ESP Fit Center  866 is at   6.960823 -1.352029 -0.990192
      ESP Fit Center  867 is at   6.477713 -3.392975  5.392627
      ESP Fit Center  868 is at   5.154623 -3.117773  4.866909
      ESP Fit Center  869 is at   5.634623 -3.949157  4.866909
      ESP Fit Center  870 is at   4.769415 -2.140422  4.164140
      ESP Fit Center  871 is at   4.451854 -3.117773  4.164140
      ESP Fit Center  872 is at   4.769415 -4.095124  4.164140
      ESP Fit Center  873 is at   5.600799 -4.699160  4.164140
      ESP Fit Center  874 is at   4.451854 -4.077773  3.204140
      ESP Fit Center  875 is at   5.154623 -4.780542  3.204140
      ESP Fit Center  876 is at   6.114623 -5.037773  3.204140
      ESP Fit Center  877 is at   5.600799 -4.699160  2.244140
      ESP Fit Center  878 is at   6.963005 -1.918092  6.068472
      ESP Fit Center  879 is at   6.483005 -1.086708  5.811241
      ESP Fit Center  880 is at   6.003005 -1.918092  5.811241
      ESP Fit Center  881 is at   6.483005 -2.749476  5.811241
      ESP Fit Center  882 is at   7.443005 -2.749476  5.811241
      ESP Fit Center  883 is at   6.449181 -0.336705  5.108472
      ESP Fit Center  884 is at   5.617797 -0.940741  5.108472
      ESP Fit Center  885 is at   5.300236 -1.918092  5.108472
      ESP Fit Center  886 is at   6.758757 -5.242170  2.676680
      ESP Fit Center  887 is at   8.137151 -4.107280  5.959966
      ESP Fit Center  888 is at   7.657151 -3.275896  5.702735
      ESP Fit Center  889 is at   7.177151 -4.107280  5.702735
      ESP Fit Center  890 is at   7.657151 -4.938664  5.702735
      ESP Fit Center  891 is at   8.617151 -4.938664  5.702735
      ESP Fit Center  892 is at   6.474382 -4.107280  4.999966
      ESP Fit Center  893 is at   6.791943 -5.084631  4.999966
      ESP Fit Center  894 is at   7.623327 -5.688667  4.999966
      ESP Fit Center  895 is at   8.650975 -5.688667  4.999966
      ESP Fit Center  896 is at   9.482359 -5.084631  4.999966
      ESP Fit Center  897 is at   6.474382 -5.067280  4.039966
      ESP Fit Center  898 is at   7.177151 -5.770049  4.039966
      ESP Fit Center  899 is at   8.137151 -6.027280  4.039966
      ESP Fit Center  900 is at   9.097151 -5.770049  4.039966
      ESP Fit Center  901 is at   6.555468 -4.958361  2.299726
      ESP Fit Center  902 is at   7.258237 -5.661130  2.299726
      ESP Fit Center  903 is at   8.218237 -5.918361  2.299726
      ESP Fit Center  904 is at   9.178237 -5.661130  2.299726
      ESP Fit Center  905 is at   6.873029 -4.975712  1.339726
      ESP Fit Center  906 is at   7.704413 -5.579748  1.339726
      ESP Fit Center  907 is at   8.732061 -5.579748  1.339726
      ESP Fit Center  908 is at   9.563445 -4.975712  1.339726
      ESP Fit Center  909 is at   9.178237 -3.998361  0.636957
      ESP Fit Center  910 is at   7.258237 -3.998361  0.636957
      ESP Fit Center  911 is at   7.738237 -4.829745  0.636957
      ESP Fit Center  912 is at   8.698237 -4.829745  0.636957
      ESP Fit Center  913 is at   8.218237 -3.998361  0.379726
      ESP Fit Center  914 is at   9.852453 -4.605572  5.245692
      ESP Fit Center  915 is at  10.842402 -4.340316  5.245692
      ESP Fit Center  916 is at  10.651838 -5.085926  4.337307
      ESP Fit Center  917 is at  11.583402 -4.548087  4.337307
      ESP Fit Center  918 is at  12.652453 -2.625673  3.265793
      ESP Fit Center  919 is at  10.110804  0.162383  3.265793
      ESP Fit Center  920 is at   9.086197  0.067439  3.265793
      ESP Fit Center  921 is at  10.110804 -5.413729  3.265793
      ESP Fit Center  922 is at  11.100520 -5.132130  3.265793
      ESP Fit Center  923 is at  11.921678 -4.512021  3.265793
      ESP Fit Center  924 is at  12.463375 -3.637150  3.265793
      ESP Fit Center  925 is at  12.439316 -2.625673  2.194279
      ESP Fit Center  926 is at  12.215670 -1.573501  2.194279
      ESP Fit Center  927 is at  11.583402 -0.703259  2.194279
      ESP Fit Center  928 is at  10.651838 -0.165420  2.194279
      ESP Fit Center  929 is at   9.582052 -0.052981  2.194279
      ESP Fit Center  930 is at  10.651838 -5.085926  2.194279
      ESP Fit Center  931 is at  11.583402 -4.548087  2.194279
      ESP Fit Center  932 is at  12.215670 -3.677845  2.194279
      ESP Fit Center  933 is at  11.832352 -2.625673  1.285894
      ESP Fit Center  934 is at  11.567096 -1.635724  1.285894
      ESP Fit Center  935 is at  10.842402 -0.911030  1.285894
      ESP Fit Center  936 is at   9.852453 -0.645774  1.285894
      ESP Fit Center  937 is at   9.852453 -4.605572  1.285894
      ESP Fit Center  938 is at  10.842402 -4.340316  1.285894
      ESP Fit Center  939 is at  11.567096 -3.615622  1.285894
      ESP Fit Center  940 is at  10.923967 -2.625673  0.678930
      ESP Fit Center  941 is at  10.388210 -1.697715  0.678930
      ESP Fit Center  942 is at   9.316696 -3.553631  0.678930
      ESP Fit Center  943 is at  10.388210 -3.553631  0.678930
      ESP Fit Center  944 is at   9.852453 -2.625673  0.465793
      ESP Fit Center  945 is at   9.330276 -0.981004  7.087836
      ESP Fit Center  946 is at   8.624870 -0.268174  6.635912
      ESP Fit Center  947 is at   8.144870 -1.099558  6.635912
      ESP Fit Center  948 is at   9.618694  0.481829  5.933143
      ESP Fit Center  949 is at   8.591046  0.481829  5.933143
      ESP Fit Center  950 is at   7.759662 -0.122207  5.933143
      ESP Fit Center  951 is at   7.442101 -1.099558  5.933143
      ESP Fit Center  952 is at   9.104870  0.820442  4.973143
      ESP Fit Center  953 is at   8.144870  0.563211  4.973143
      ESP Fit Center  954 is at   7.442101 -0.139558  4.973143
      ESP Fit Center  955 is at   9.618694  0.481829  4.013143
      ESP Fit Center  956 is at   8.591046  0.481829  4.013143
      ESP Fit Center  957 is at   9.589715 -2.644101  7.572207
      ESP Fit Center  958 is at  10.549715 -2.644101  7.314976
      ESP Fit Center  959 is at   9.109715 -1.812717  7.314976
      ESP Fit Center  960 is at   8.629715 -2.644101  7.314976
      ESP Fit Center  961 is at   9.109715 -3.475485  7.314976
      ESP Fit Center  962 is at  10.069715 -3.475485  7.314976
      ESP Fit Center  963 is at   7.926946 -2.644101  6.612207
      ESP Fit Center  964 is at   8.244507 -3.621452  6.612207
      ESP Fit Center  965 is at   9.075891 -4.225488  6.612207
      ESP Fit Center  966 is at  10.103539 -4.225488  6.612207
      ESP Fit Center  967 is at  10.934923 -3.621452  6.612207
      ESP Fit Center  968 is at   9.589715 -4.564101  5.652207
      ESP Fit Center  969 is at  10.549715 -4.306870  5.652207
      ESP Fit Center  970 is at  13.105565 -1.305272  6.733909
      ESP Fit Center  971 is at  13.337280 -0.290059  5.771583
      ESP Fit Center  972 is at  12.688027  0.524078  5.771583
      ESP Fit Center  973 is at  11.749829  0.975891  5.771583
      ESP Fit Center  974 is at  10.708509  0.975891  5.771583
      ESP Fit Center  975 is at   9.770311  0.524078  5.771583
      ESP Fit Center  976 is at  13.105565 -1.305272  3.741157
      ESP Fit Center  977 is at  11.226031 -0.852138  8.143544
      ESP Fit Center  978 is at  12.186031 -0.852138  7.886313
      ESP Fit Center  979 is at  11.706031 -0.020754  7.886313
      ESP Fit Center  980 is at  10.746031 -0.020754  7.886313
      ESP Fit Center  981 is at  10.266031 -0.852138  7.886313
      ESP Fit Center  982 is at  10.746031 -1.683522  7.886313
      ESP Fit Center  983 is at  11.706031 -1.683522  7.886313
      ESP Fit Center  984 is at  12.888800 -0.852138  7.183544
      ESP Fit Center  985 is at  12.571239  0.125213  7.183544
      ESP Fit Center  986 is at  11.739855  0.729249  7.183544
      ESP Fit Center  987 is at  10.712207  0.729249  7.183544
      ESP Fit Center  988 is at   9.880823  0.125213  7.183544
      ESP Fit Center  989 is at   9.563262 -0.852138  7.183544
      ESP Fit Center  990 is at  12.571239 -1.829489  7.183544
      ESP Fit Center  991 is at  12.186031  0.810631  6.223544
      ESP Fit Center  992 is at  11.226031  1.067862  6.223544
      ESP Fit Center  993 is at  10.266031  0.810631  6.223544
      ESP Fit Center  994 is at  12.950193 -2.077237  6.884325
      ESP Fit Center  995 is at  12.470193 -2.908621  6.884325
      ESP Fit Center  996 is at  13.652962 -2.077237  6.181556
      ESP Fit Center  997 is at  11.476369 -3.658624  6.181556
      ESP Fit Center  998 is at  12.504017 -3.658624  6.181556
      ESP Fit Center  999 is at  13.335401 -3.054588  6.181556
      ESP Fit Center 1000 is at  13.910193 -2.077237  5.221556
      ESP Fit Center 1001 is at  13.652962 -1.117237  5.221556
      ESP Fit Center 1002 is at  11.990193 -3.997237  5.221556
      ESP Fit Center 1003 is at  12.950193 -3.740006  5.221556
      ESP Fit Center 1004 is at  13.652962 -3.037237  5.221556
      ESP Fit Center 1005 is at  13.652962 -2.077237  4.261556
      ESP Fit Center 1006 is at  12.504017 -3.658624  4.261556
      ESP Fit Center 1007 is at  13.335401 -3.054588  4.261556
      ESP Fit Center 1008 is at  12.950193 -2.077237  3.558787
      ESP Fit Center 1009 is at  12.018543  1.039393  5.478220
      ESP Fit Center 1010 is at  13.424719 -0.541994  4.518220
      ESP Fit Center 1011 is at  13.167488  0.418006  4.518220
      ESP Fit Center 1012 is at  12.464719  1.120775  4.518220
      ESP Fit Center 1013 is at  11.504719  1.378006  4.518220
      ESP Fit Center 1014 is at  10.544719  1.120775  4.518220
      ESP Fit Center 1015 is at  13.167488 -0.541994  3.558220
      ESP Fit Center 1016 is at  12.849927  0.435357  3.558220
      ESP Fit Center 1017 is at  12.018543  1.039393  3.558220
      ESP Fit Center 1018 is at  10.990895  1.039393  3.558220
      ESP Fit Center 1019 is at  10.159511  0.435357  3.558220
      ESP Fit Center 1020 is at  12.464719 -0.541994  2.855451
      ESP Fit Center 1021 is at  11.984719  0.289390  2.855451
      ESP Fit Center 1022 is at  11.024719  0.289390  2.855451
      ESP Fit Center 1023 is at  -3.279956  4.029828  4.083692
      ESP Fit Center 1024 is at  -4.313202  4.029828  4.083692
      ESP Fit Center 1025 is at  -4.068285  5.024767  3.498405
      ESP Fit Center 1026 is at  -5.046831  4.577879  3.498405
      ESP Fit Center 1027 is at  -5.628432  3.672892  3.498405
      ESP Fit Center 1028 is at  -4.351652  5.566944  2.622462
      ESP Fit Center 1029 is at  -6.044023  2.052699  2.622462
      ESP Fit Center 1030 is at  -1.549135  2.052699  2.622462
      ESP Fit Center 1031 is at  -3.796579  5.835011  1.589217
      ESP Fit Center 1032 is at  -3.241506  5.566944  0.555972
      ESP Fit Center 1033 is at  -4.068285  5.024767 -0.319971
      ESP Fit Center 1034 is at  -1.875752  3.797876  3.641881
      ESP Fit Center 1035 is at  -2.415752  4.733183  3.641881
      ESP Fit Center 1036 is at  -1.085137  3.797876  2.851266
      ESP Fit Center 1037 is at  -1.382091  4.809207  2.851266
      ESP Fit Center 1038 is at  -2.178670  5.499447  2.851266
      ESP Fit Center 1039 is at  -3.221968  5.649451  2.851266
      ESP Fit Center 1040 is at  -1.382091  2.786545  2.851266
      ESP Fit Center 1041 is at  -0.795752  3.797876  1.771266
      ESP Fit Center 1042 is at  -1.043167  4.801678  1.771266
      ESP Fit Center 1043 is at  -1.728732  5.575521  1.771266
      ESP Fit Center 1044 is at  -2.695393  5.942127  1.771266
      ESP Fit Center 1045 is at  -1.043167  2.794074  1.771266
      ESP Fit Center 1046 is at  -1.085137  3.797876  0.691266
      ESP Fit Center 1047 is at  -1.382091  4.809207  0.691266
      ESP Fit Center 1048 is at  -2.178670  5.499447  0.691266
[...]
 1313 Fit       0.000808
 1314 Fit      -0.008054
 1315 Fit      -0.003758
 1316 Fit       0.002685
 1317 Fit       0.004359
 1318 Fit       0.006042
 1319 Fit       0.014482
 1320 Fit       0.008121
 1321 Fit       0.015021
 1322 Fit       0.008506
 1323 Fit       0.013024
 1324 Fit       0.006951
 1325 Fit       0.007711
 1326 Fit       0.016212
 1327 Fit       0.005101
 1328 Fit       0.006589
 1329 Fit       0.003911
 1330 Fit      -0.004033
 1331 Fit       0.006135
 1332 Fit       0.012952
 1333 Fit       0.010972
 1334 Fit       0.007648
 1335 Fit       0.013264
 1336 Fit       0.003257
 1337 Fit       0.005703
 1338 Fit       0.012835
 1339 Fit       0.010310
 1340 Fit       0.007130
 1341 Fit       0.005685
 1342 Fit       0.012757
 1343 Fit       0.005272
 1344 Fit       0.005266
 1345 Fit       0.000109
 1346 Fit       0.003141
 1347 Fit       0.007594
 1348 Fit       0.005873
 1349 Fit       0.003409
 1350 Fit       0.010399
 1351 Fit       0.015208
 1352 Fit       0.010692
 1353 Fit       0.013555
 1354 Fit       0.017072
 1355 Fit       0.000863
 1356 Fit      -0.016182
 1357 Fit      -0.012960
 1358 Fit      -0.006133
 1359 Fit      -0.025547
 1360 Fit      -0.019445
 1361 Fit      -0.011631
 1362 Fit      -0.000940
 1363 Fit      -0.025167
 1364 Fit      -0.018324
 1365 Fit      -0.008927
 1366 Fit      -0.026827
 1367 Fit      -0.024601
 1368 Fit      -0.019271
 1369 Fit      -0.011264
 1370 Fit       0.000413
 1371 Fit      -0.001718
 1372 Fit      -0.004623
 1373 Fit      -0.011486
 1374 Fit      -0.020380
 1375 Fit      -0.017585
 1376 Fit      -0.010541
 1377 Fit       0.000057
 1378 Fit      -0.011657
 1379 Fit      -0.015310
 1380 Fit      -0.018749
 1381 Fit      -0.015420
 1382 Fit      -0.008662
 1383 Fit       0.001528
 1384 Fit      -0.006755
 1385 Fit      -0.014755
 1386 Fit      -0.008081
 1387 Fit       0.017563
 1388 Fit       0.015133
 1389 Fit       0.016433
 1390 Fit       0.015981
 1391 Fit       0.015937
 1392 Fit       0.016170
 1393 Fit       0.017232
 1394 Fit       0.018043
 1395 Fit       0.016443
 1396 Fit       0.014946
 1397 Fit       0.016317
 1398 Fit       0.014975
 1399 Fit       0.014796
 1400 Fit       0.016383
 1401 Fit       0.012592
 1402 Fit       0.014525
 1403 Fit       0.014887
 1404 Fit       0.014979
 1405 Fit       0.016166
 1406 Fit       0.011696
 1407 Fit       0.007979
 1408 Fit       0.001643
 1409 Fit       0.017555
 1410 Fit       0.015231
 1411 Fit       0.013462
 1412 Fit       0.017546
 1413 Fit       0.014703
 1414 Fit       0.012173
 1415 Fit       0.008895
 1416 Fit       0.015145
 1417 Fit       0.011578
 1418 Fit       0.008188
 1419 Fit       0.002392
 1420 Fit       0.013300
 1421 Fit       0.009813
 1422 Fit       0.006416
 1423 Fit       0.000648
 1424 Fit       0.007995
 1425 Fit       0.008978
 1426 Fit       0.007448
 1427 Fit       0.004074
 1428 Fit      -0.003838
 1429 Fit       0.004070
 1430 Fit       0.002375
 1431 Fit      -0.004166
 1432 Fit       0.000364
 1433 Fit      -0.008247
 1434 Fit      -0.009824
 1435 Fit      -0.009042
 1436 Fit      -0.015668
 1437 Fit      -0.016508
 1438 Fit      -0.012170
 1439 Fit      -0.013793
 1440 Fit      -0.010909
 1441 Fit      -0.016348
 1442 Fit      -0.009566
 1443 Fit      -0.016866
 1444 Fit      -0.019241
 1445 Fit      -0.017368
 1446 Fit      -0.017743
 1447 Fit      -0.017018
 1448 Fit      -0.018332
 1449 Fit      -0.022701
 1450 Fit      -0.030593
 1451 Fit      -0.002584
 1452 Fit      -0.012408
 1453 Fit      -0.017695
 1454 Fit      -0.018811
 1455 Fit      -0.019378
 1456 Fit      -0.021497
 1457 Fit      -0.025521
 1458 Fit      -0.003507
 1459 Fit      -0.012260
 1460 Fit      -0.017223
 1461 Fit      -0.019087
 1462 Fit      -0.024291
 1463 Fit      -0.008394
 1464 Fit      -0.012870
 1465 Fit      -0.018354
 1466 Fit       0.011224
 1467 Fit       0.012751
 1468 Fit       0.010668
 1469 Fit       0.012398
 1470 Fit       0.008220
 1471 Fit       0.010432
 1472 Fit       0.014611
 1473 Fit       0.003497
 1474 Fit       0.004552
 1475 Fit       0.008413
 1476 Fit      -0.006633
 1477 Fit       0.010943
 1478 Fit       0.009333
 1479 Fit       0.011386
 1480 Fit       0.012352
 1481 Fit       0.012151
 1482 Fit       0.010025
 1483 Fit       0.014406
 1484 Fit       0.015550
 1485 Fit       0.014974
 1486 Fit       0.011784
 1487 Fit       0.008112
 1488 Fit       0.006675
 1489 Fit       0.006498
 1490 Fit       0.003036
 1491 Fit       0.001690
 1492 Fit       0.001600
 1493 Fit       0.002446
 1494 Fit       0.000204
 1495 Fit       0.002984
 1496 Fit      -0.005899
 1497 Fit       0.008203
 1498 Fit       0.006112
 1499 Fit       0.007238
 1500 Fit       0.008668
 1501 Fit       0.009800
 1502 Fit       0.008900
 1503 Fit       0.006429
 1504 Fit       0.003607
 1505 Fit       0.004464
 1506 Fit       0.005476
 1507 Fit       0.006659
 1508 Fit       0.008407
 1509 Fit       0.010625
 1510 Fit       0.002652
 1511 Fit       0.003441
 1512 Fit       0.004924
 1513 Fit       0.003039
 1514 Fit       0.003859
 1515 Fit       0.002314
 1516 Fit       0.003437
 1517 Fit       0.002770
 1518 Fit       0.002886
 1519 Fit       0.000849
 1520 Fit      -0.003331
 1521 Fit      -0.000335
 1522 Fit       0.000981
 1523 Fit      -0.002388
 1524 Fit      -0.009305
 1525 Fit      -0.003725
 1526 Fit      -0.008146
 1527 Fit       0.001900
 1528 Fit       0.000506
 1529 Fit       0.001349
 1530 Fit       0.001325
 1531 Fit       0.000730
 1532 Fit      -0.003022
 1533 Fit      -0.000909
 1534 Fit      -0.000466
 1535 Fit      -0.002163
 1536 Fit      -0.006715
 1537 Fit      -0.007388
 1538 Fit      -0.005665
 1539 Fit      -0.012070
 1540 Fit      -0.006305
 1541 Fit      -0.007186
 1542 Fit      -0.006253
 1543 Fit      -0.006188
 1544 Fit      -0.007481
 1545 Fit      -0.009320
 1546 Fit      -0.005318
 1547 Fit      -0.015173
 1548 Fit      -0.009447
 1549 Fit      -0.003361
 1550 Fit      -0.001705
 1551 Fit      -0.003476
 1552 Fit      -0.004801
 1553 Fit      -0.004020
 1554 Fit      -0.002688
 1555 Fit      -0.001287
 1556 Fit      -0.001945
 1557 Fit      -0.003999
 1558 Fit      -0.000328
 1559 Fit       0.000686
 1560 Fit       0.000155
 1561 Fit      -0.001430
 1562 Fit      -0.003757
 1563 Fit      -0.004456
 1564 Fit       0.001065
 1565 Fit       0.001645
 1566 Fit       0.000779
 1567 Fit      -0.000990
 1568 Fit       0.001213
 1569 Fit      -0.000116
 1570 Fit      -0.005774
 1571 Fit      -0.006212
 1572 Fit      -0.008469
 1573 Fit      -0.012919
 1574 Fit      -0.004536
 1575 Fit      -0.004989
 1576 Fit      -0.007025
 1577 Fit      -0.011473
 1578 Fit      -0.019678
 1579 Fit      -0.004040
 1580 Fit      -0.004774
 1581 Fit      -0.007339
 1582 Fit      -0.013205
 1583 Fit      -0.004138
 1584 Fit      -0.005670
 1585 Fit      -0.010218
 1586 Fit      -0.006145
 1587 Fit      -0.006465
 1588 Fit      -0.006595
 1589 Fit      -0.006514
 1590 Fit      -0.007163
 1591 Fit      -0.007734
 1592 Fit      -0.007557
 1593 Fit      -0.007093
 1594 Fit      -0.007580
 1595 Fit      -0.010193
 1596 Fit      -0.011226
 1597 Fit      -0.011116
 1598 Fit      -0.010113
 1599 Fit      -0.009608
 1600 Fit      -0.009116
 1601 Fit      -0.019309
 1602 Fit      -0.019333
 1603 Fit      -0.016526
 1604 Fit      -0.014284
 1605 Fit      -0.014278
 1606 Fit      -0.000908
 1607 Fit       0.000812
 1608 Fit      -0.009495
 1609 Fit      -0.000285
 1610 Fit       0.000391
 1611 Fit      -0.000423
 1612 Fit      -0.001982
 1613 Fit      -0.004353
 1614 Fit      -0.005370
 1615 Fit      -0.000766
 1616 Fit      -0.000005
 1617 Fit      -0.000760
 1618 Fit      -0.002360
 1619 Fit      -0.004166
 1620 Fit      -0.000668
 1621 Fit      -0.000410
 1622 Fit      -0.016587
 1623 Fit      -0.025417
 1624 Fit      -0.023802
 1625 Fit      -0.020908
 1626 Fit      -0.018328
 1627 Fit      -0.018469
 1628 Fit      -0.023767
 1629 Fit      -0.021483
 1630 Fit      -0.017397
 1631 Fit      -0.019818
 1632 Fit      -0.018686
 1633 Fit      -0.012202
 1634 Fit      -0.014320
 1635 Fit      -0.015426
 1636 Fit      -0.007590
 1637 Fit      -0.008948
 1638 Fit      -0.002016
 1639 Fit       0.002568
 1640 Fit       0.004600
 1641 Fit       0.006517
 1642 Fit      -0.001982
 1643 Fit      -0.003386
 1644 Fit      -0.003264
 1645 Fit       0.000044
 1646 Fit       0.000472
 1647 Fit       0.000288
 1648 Fit       0.001372
 1649 Fit      -0.001086
 1650 Fit       0.000953
 1651 Fit       0.001967
 1652 Fit       0.003277
 1653 Fit       0.004767
 1654 Fit       0.001534
 1655 Fit       0.002441
 1656 Fit      -0.014025
 1657 Fit      -0.007340
 1658 Fit      -0.003355
 1659 Fit      -0.007771
 1660 Fit      -0.003216
 1661 Fit      -0.000002
 1662 Fit       0.002710
 1663 Fit      -0.005788
 1664 Fit      -0.002331
 1665 Fit       0.000736
 1666 Fit       0.003265
 1667 Fit       0.005691
 1668 Fit      -0.000571
 1669 Fit       0.001733
 1670 Fit       0.004228
 1671 Fit       0.006773
 1672 Fit       0.004474
 1673 Fit       0.007410
 1674 Fit       0.004784
 1675 Fit       0.005223
 1676 Fit       0.005707
 1677 Fit       0.006933
 1678 Fit      -0.002305
 1679 Fit      -0.011138
 1680 Fit      -0.011787
 1681 Fit      -0.011675
 1682 Fit      -0.004451
 1683 Fit      -0.004762
 1684 Fit      -0.004972
 1685 Fit      -0.000571
 1686 Fit       0.000908
 1687 Fit       0.001310
 1688 Fit       0.002913
 1689 Fit       0.003810
 1690 Fit       0.006517
 1691 Fit       0.006796
 1692 Fit       0.007589
 1693 Fit       0.007235
 1694 Fit       0.007589
 1695 Fit       0.009100
 1696 Fit       0.008072
 1697 Fit       0.007648
 1698 Fit       0.007547
 1699 Fit       0.007964
 1700 Fit       0.003773
 1701 Fit       0.001723
 1702 Fit       0.005491
 1703 Fit       0.006820
 1704 Fit       0.007158
 1705 Fit       0.007078
 1706 Fit       0.005506
 1707 Fit      -0.011870
 1708 Fit      -0.008393
 1709 Fit      -0.006397
 1710 Fit      -0.005002
 1711 Fit      -0.002654
 1712 Fit       0.006825
 1713 Fit       0.006310
 1714 Fit       0.005865
 1715 Fit       0.004529
 1716 Fit       0.009525
 1717 Fit       0.007938
 1718 Fit       0.007619
 1719 Fit       0.008037
 1720 Fit       0.008721
 1721 Fit       0.008629
 1722 Fit       0.009276
 1723 Fit       0.011005
 1724 Fit       0.008969
 1725 Fit       0.009287
 1726 Fit       0.010309
 1727 Fit       0.012403
 1728 Fit       0.010656
 1729 Fit       0.007146
 1730 Fit       0.003306
 1731 Fit       0.006934
 1732 Fit       0.008689
 1733 Fit       0.009846
 1734 Fit       0.007829
 1735 Fit      -0.012917
 1736 Fit      -0.016599
 1737 Fit      -0.006956
 1738 Fit      -0.004401
 1739 Fit      -0.009773
 1740 Fit       0.001150
 1741 Fit      -0.000165
 1742 Fit      -0.004725
 1743 Fit       0.004599
 1744 Fit       0.003715
 1745 Fit       0.002003
 1746 Fit      -0.002678
 1747 Fit       0.011954
 1748 Fit      -0.000932
 1749 Fit       0.014224
 1750 Fit       0.012929
 1751 Fit       0.009478
 1752 Fit       0.003565
 1753 Fit      -0.003983
 1754 Fit       0.010959
 1755 Fit       0.008673
 1756 Fit       0.004348
 1757 Fit       0.003839
 1758 Fit       0.009125
 1759 Fit       0.011072
 1760 Fit       0.008216
 1761 Fit       0.004682
 1762 Fit       0.000418
 1763 Fit       0.009720
 1764 Fit       0.007386
 1765 Fit       0.007505
 1766 Fit       0.011855
 1767 Fit       0.010688
 1768 Fit       0.012412
 1769 Fit       0.012436
 1770 Fit      -0.024627
 1771 Fit      -0.024802
 1772 Fit       0.011821
 1773 Fit      -0.000963
 1774 Fit      -0.001359
 1775 Fit      -0.008413
 1776 Fit      -0.000223
 1777 Fit      -0.002412
 1778 Fit      -0.009939
 1779 Fit       0.005215
 1780 Fit       0.005182
 1781 Fit       0.002965
 1782 Fit      -0.001430
 1783 Fit      -0.009495
 1784 Fit       0.010058
 1785 Fit       0.007299
 1786 Fit       0.004377
 1787 Fit       0.000357
 1788 Fit       0.009717
 1789 Fit       0.005991
 1790 Fit       0.012797
 1791 Fit       0.009691
 1792 Fit       0.006489
 1793 Fit       0.001882
 1794 Fit      -0.007699
 1795 Fit       0.013702
 1796 Fit       0.011029
 1797 Fit       0.008116
 1798 Fit       0.004085
 1799 Fit       0.014373
 1800 Fit       0.011587
 1801 Fit       0.008735
 1802 Fit       0.013509
 1803 Fit       0.013667
 1804 Fit       0.015079
 1805 Fit       0.012025
 1806 Fit       0.014395
 1807 Fit       0.013606
 1808 Fit       0.014046
 1809 Fit       0.014399
 1810 Fit       0.013502
 1811 Fit       0.013518
 1812 Fit       0.014316
 1813 Fit       0.012687
 1814 Fit       0.013424
 1815 Fit       0.012957
 1816 Fit       0.013065
 1817 Fit       0.013278
 1818 Fit       0.014254
 1819 Fit       0.016235
 1820 Fit       0.015375
 1821 Fit       0.013728
 1822 Fit       0.014656
 1823 Fit      -0.005646
 1824 Fit      -0.004265
 1825 Fit      -0.011037
 1826 Fit      -0.011627
 1827 Fit      -0.006131
 1828 Fit       0.001748
 1829 Fit      -0.008781
 1830 Fit      -0.012860
 1831 Fit      -0.015627
 1832 Fit      -0.015612
 1833 Fit      -0.012422
 1834 Fit      -0.006785
 1835 Fit       0.001093
 1836 Fit       0.009900
 1837 Fit      -0.001062
 1838 Fit      -0.005073
 1839 Fit      -0.008331
 1840 Fit      -0.013948
 1841 Fit      -0.019156
 1842 Fit      -0.019281
 1843 Fit      -0.016009
 1844 Fit      -0.011761
 1845 Fit      -0.005903
 1846 Fit       0.002556
 1847 Fit       0.004327
 1848 Fit      -0.021218
 1849 Fit      -0.015800
 1850 Fit      -0.012382
 1851 Fit      -0.007825
 1852 Fit      -0.000641
 1853 Fit      -0.011670
 1854 Fit      -0.009883
 1855 Fit      -0.005640
 1856 Fit       0.001187
 1857 Fit      -0.006809
 1858 Fit      -0.006986
 1859 Fit      -0.003388
 1860 Fit      -0.001616
 1861 Fit       0.000048
 1862 Fit       0.006055
 1863 Fit       0.004724
 1864 Fit       0.012914
 1865 Fit       0.007517
 1866 Fit       0.014024
 1867 Fit       0.010048
 1868 Fit       0.014680
 1869 Fit       0.006989
 1870 Fit       0.009737
 1871 Fit       0.004310
 1872 Fit       0.013325
 1873 Fit       0.006583
 1874 Fit       0.006338
 1875 Fit       0.003856
 1876 Fit      -0.001703
 1877 Fit       0.005918
 1878 Fit       0.011545
 1879 Fit       0.010246
 1880 Fit       0.007000
 1881 Fit       0.011826
 1882 Fit       0.001587
 1883 Fit       0.004525
 1884 Fit       0.011396
 1885 Fit       0.009580
 1886 Fit       0.006464
 1887 Fit       0.005502
 1888 Fit       0.011324
 1889 Fit       0.005552
 1890 Fit       0.004812
 1891 Fit       0.000822
 1892 Fit       0.003835
 1893 Fit       0.005974
 1894 Fit       0.009589
 1895 Fit       0.009209
 1896 Fit       0.009810
 1897 Fit       0.012007
 1898 Fit       0.004336
 1899 Fit      -0.006369
 1900 Fit      -0.002270
 1901 Fit      -0.014082
 1902 Fit      -0.009307
 1903 Fit      -0.002657
 1904 Fit      -0.023038
 1905 Fit      -0.017528
 1906 Fit      -0.012128
 1907 Fit      -0.005036
 1908 Fit      -0.019994
 1909 Fit      -0.014406
 1910 Fit      -0.007249
 1911 Fit       0.002644
 1912 Fit       0.005432
 1913 Fit      -0.020987
 1914 Fit      -0.019162
 1915 Fit      -0.014662
 1916 Fit      -0.008029
 1917 Fit       0.001211
 1918 Fit      -0.000745
 1919 Fit      -0.004210
 1920 Fit      -0.006490
 1921 Fit      -0.011346
 1922 Fit      -0.017852
 1923 Fit      -0.016037
 1924 Fit      -0.013656
 1925 Fit      -0.007981
 1926 Fit       0.000300
 1927 Fit       0.009404
 1928 Fit      -0.008013
 1929 Fit      -0.011767
 1930 Fit      -0.014859
 1931 Fit      -0.011538
 1932 Fit      -0.006409
 1933 Fit       0.001717
 1934 Fit      -0.003714
 1935 Fit      -0.010426
 1936 Fit      -0.005336
 1937 Fit       0.015869
 1938 Fit       0.013511
 1939 Fit       0.014956
 1940 Fit       0.013239
 1941 Fit       0.013319
 1942 Fit       0.014107
 1943 Fit       0.015731
 1944 Fit       0.015047
 1945 Fit       0.014488
 1946 Fit       0.014675
 1947 Fit       0.015284
 1948 Fit       0.013973
 1949 Fit       0.012103
 1950 Fit       0.014689
 1951 Fit       0.013357
 1952 Fit       0.013331
 1953 Fit       0.014898
 1954 Fit       0.011899
 1955 Fit       0.012465
 1956 Fit       0.012677
 1957 Fit       0.013220
 1958 Fit       0.012166
 1959 Fit       0.009051
 1960 Fit       0.005607
 1961 Fit       0.015808
 1962 Fit       0.013728
 1963 Fit       0.012543
 1964 Fit       0.015496
 1965 Fit       0.013242
 1966 Fit       0.011137
 1967 Fit       0.008656
 1968 Fit       0.015907
 1969 Fit       0.012553
 1970 Fit       0.010015
 1971 Fit       0.007059
 1972 Fit       0.002116
 1973 Fit       0.009027
 1974 Fit       0.005454
 1975 Fit       0.009584
 1976 Fit       0.007288
 1977 Fit       0.004284
 1978 Fit      -0.000762
 1979 Fit       0.006373
 1980 Fit       0.005360
 1981 Fit       0.002485
 1982 Fit       0.001733
 1983 Fit       0.000320
 1984 Fit       0.003158
 1985 Fit      -0.003141
 1986 Fit      -0.004322
 1987 Fit      -0.006174
 1988 Fit      -0.010158
 1989 Fit      -0.009961
 1990 Fit      -0.008718
 1991 Fit      -0.004568
 1992 Fit      -0.010547
 1993 Fit      -0.013667
 1994 Fit      -0.013725
 1995 Fit      -0.011489
 1996 Fit      -0.012889
 1997 Fit      -0.011400
 1998 Fit      -0.010586
 1999 Fit      -0.011719
 2000 Fit      -0.016052
 2001 Fit      -0.008114
 2002 Fit      -0.013160
 2003 Fit      -0.015123
 2004 Fit      -0.014565
 2005 Fit      -0.015311
 2006 Fit      -0.015418
 2007 Fit      -0.016796
 2008 Fit      -0.020234
 2009 Fit      -0.002085
 2010 Fit      -0.009397
 2011 Fit      -0.013707
 2012 Fit      -0.015271
 2013 Fit      -0.016277
 2014 Fit      -0.018216
 2015 Fit      -0.021348
 2016 Fit      -0.004291
 2017 Fit      -0.010295
 2018 Fit      -0.014185
 2019 Fit      -0.016202
 2020 Fit      -0.020305
 2021 Fit      -0.009444
 2022 Fit      -0.011663
 2023 Fit      -0.016319
 2024 Fit       0.010156
 2025 Fit       0.010208
 2026 Fit       0.010140
 2027 Fit       0.011354
 2028 Fit       0.009880
 2029 Fit       0.007908
 2030 Fit       0.009499
 2031 Fit       0.012474
 2032 Fit       0.005254
 2033 Fit       0.007507
 2034 Fit      -0.000275
 2035 Fit      -0.000666
 2036 Fit       0.009848
 2037 Fit       0.011007
 2038 Fit       0.010622
 2039 Fit       0.008988
 2040 Fit       0.012610
 2041 Fit       0.013312
 2042 Fit       0.012675
 2043 Fit       0.010328
 2044 Fit       0.007696
 2045 Fit       0.006497
 2046 Fit       0.011546
 2047 Fit       0.006082
 2048 Fit       0.003060
 2049 Fit       0.004543
 2050 Fit       0.003436
 2051 Fit       0.001901
 2052 Fit       0.002071
 2053 Fit       0.000655
 2054 Fit       0.001166
 2055 Fit       0.001752
 2056 Fit       0.002232
 2057 Fit       0.003165
 2058 Fit      -0.000507
 2059 Fit      -0.003486
 2060 Fit      -0.007415
 2061 Fit       0.007203
 2062 Fit       0.005609
 2063 Fit       0.006384
 2064 Fit       0.007585
 2065 Fit       0.008606
 2066 Fit       0.007984
 2067 Fit       0.006068
 2068 Fit       0.003802
 2069 Fit       0.004399
 2070 Fit       0.005220
 2071 Fit       0.006241
 2072 Fit       0.007686
 2073 Fit       0.009436
 2074 Fit       0.003092
 2075 Fit       0.003806
 2076 Fit       0.004848
 2077 Fit       0.006780
 2078 Fit       0.003772
 2079 Fit       0.002187
 2080 Fit       0.004066
 2081 Fit       0.002776
 2082 Fit       0.002549
 2083 Fit       0.001111
 2084 Fit      -0.000320
 2085 Fit       0.000740
 2086 Fit       0.001259
 2087 Fit      -0.000815
 2088 Fit      -0.003043
 2089 Fit      -0.001226
 2090 Fit      -0.004193
 2091 Fit      -0.006273
 2092 Fit       0.001105
 2093 Fit       0.001349
 2094 Fit       0.001418
 2095 Fit      -0.000599
 2096 Fit       0.000115
 2097 Fit       0.000006
 2098 Fit      -0.001002
 2099 Fit      -0.002789
 2100 Fit      -0.004477
 2101 Fit      -0.002634
 2102 Fit      -0.002510
 2103 Fit      -0.004663
 2104 Fit      -0.010730
 2105 Fit      -0.009266
 2106 Fit      -0.007893
 Job cpu time:       0 days  0 hours  4 minutes 46.5 seconds.
 Normal termination of Gaussian 16 at Sat Jul  8 20:34:10 2023.
