 Copyright (c) 1988-2019, Gaussian, Inc.  All Rights Reserved.
  
 This is part of the Gaussian(R) 16 program.  It is based on
 the Gaussian(R) 09 system (copyright 2009, Gaussian, Inc.),
 the Gaussian(R) 03 system (copyright 2003, Gaussian, Inc.),
 the Gaussian(R) 98 system (copyright 1998, Gaussian, Inc.),
 the Gaussian(R) 94 system (copyright 1995, Gaussian, Inc.),
 the Gaussian 92(TM) system (copyright 1992, Gaussian, Inc.),
 the Gaussian 90(TM) system (copyright 1990, Gaussian, Inc.),
 the Gaussian 88(TM) system (copyright 1988, Gaussian, Inc.),
 the Gaussian 86(TM) system (copyright 1986, Carnegie Mellon
 University), and the Gaussian 82(TM) system (copyright 1983,
 Carnegie Mellon University). Gaussian is a federally registered
 trademark of Gaussian, Inc.
 Cite this work as:
 Gaussian 16, Revision C.01,
 M. J. Frisch, G. W. Trucks, H. B. Schlegel, G. E. Scuseria, 
 M. A. Robb, J. R. Cheeseman, G. Scalmani, V. Barone, 
 G. A. Petersson, H. Nakatsuji, X. Li, M. Caricato, A. V. Marenich, 
 J. Bloino, B. G. Janesko, R. Gomperts, B. Mennucci, H. P. Hratchian, 
 J. V. Ortiz, A. F. Izmaylov, J. L. Sonnenberg, D. Williams-Young, 
 F. Ding, F. Lipparini, F. Egidi, J. Goings, B. Peng, A. Petrone, 
 T. Henderson, D. Ranasinghe, V. G. Zakrzewski, J. Gao, N. Rega, 
 G. Zheng, W. Liang, M. Hada, M. Ehara, K. Toyota, R. Fukuda, 
 J. Hasegawa, M. Ishida, T. Nakajima, Y. Honda, O. Kitao, H. Nakai, 
 T. Vreven, K. Throssell, J. A. Montgomery, Jr., J. E. Peralta, 
 F. Ogliaro, M. J. Bearpark, J. J. Heyd, E. N. Brothers, K. N. Kudin, 
 V. N. Staroverov, T. A. Keith, R. Kobayashi, J. Normand, 
 K. Raghavachari, A. P. Rendell, J. C. Burant, S. S. Iyengar, 
 J. Tomasi, M. Cossi, J. M. Millam, M. Klene, C. Adamo, R. Cammi, 
 J. W. Ochterski, R. L. Martin, K. Morokuma, O. Farkas, 
 J. B. Foresman, and D. J. Fox, Gaussian, Inc., Wallingford CT, 2019.
 
 ******************************************
 Gaussian 16:  EM64L-G16RevC.01  3-Jul-2019
                 8-Jul-2023 
 ******************************************
 ----------------------------------------------------------------------
 #P HF/6-31G(d) SCF(Conver=8,XQC,MaxConventionalCycles=64,MaxCycle=128)
  NoSymm Test Pop=mk IOp(6/33=2) GFInput GFPrint
 ----------------------------------------------------------------------
 1/38=1,172=1/1;
 2/12=2,15=1,17=6,18=5,40=1/2;
 3/5=1,6=6,7=1,11=9,24=110,25=1,30=1/1,2,3;
 4//1;
 5/5=2,6=8,7=128,8=3,13=1,38=5,85=64/2,8;
 6/7=2,8=2,9=2,10=2,15=8,20=1,28=1,33=2/1,2;
 99/5=1,9=1/99;
 -------------------------------------------------
 MEP step - Input generated by PyRED DVE-DMDS-OPLS
 -------------------------------------------------
 Symbolic Z-matrix:
 Charge =  0 Multiplicity = 1
 C                    -1.71999   5.95672   5.6125 
 H                    -2.77928   5.72975   5.65457 
 H                    -1.30125   5.83918   6.60714 
 H                    -1.60574   6.99098   5.30871 
 C                    -1.02006   5.03901   4.62985 
 H                     0.0458    5.25835   4.5977 
 H                    -1.12813   4.00188   4.94134 
 O                    -1.58355   5.23943   3.36319 
 C                    -1.06709   4.4543    2.32941 
 H                    -0.01605   4.22918   2.49117 
 H                    -1.14532   5.02663   1.41406 
 C                    -1.85215   3.16196   2.17419 
 H                    -1.81216   2.57202   3.0881 
 H                    -2.89649   3.39502   1.97783 
 O                    -1.29295   2.45158   1.10997 
 C                    -1.93489   1.2481    0.80784 
 H                    -2.97107   1.43841   0.52811 
 H                    -1.93648   0.5889    1.67357 
 C                    -1.23127   0.56317  -0.34644 
 H                    -1.11615   1.26424  -1.16857 
 H                    -1.85245  -0.25657  -0.6878 
 O                     0.        0.        0. 
 C                     1.1156    0.84584   0. 
 H                     1.11196   1.47795   0.88168 
 H                     1.10009   1.49078  -0.87368 
 C                     2.37695   0.        0. 
 H                     2.36596  -0.68431   0.84015 
 H                     3.23409   0.65225   0.12404 
 S                     2.69726  -0.93363  -1.52557 
 C                     1.68546  -2.42823  -1.28087 
 H                     1.99743  -2.89039  -0.3502 
 H                     0.64825  -2.148    -1.18997 
 C                     1.87222  -3.44373  -2.40928 
 H                     1.45776  -4.38743  -2.07545 
 H                     2.92324  -3.6192   -2.60513 
 S                     1.00365  -3.08316  -3.9701 
 C                     2.25369  -2.20925  -4.96114 
 H                     2.73403  -1.46223  -4.34363 
 H                     1.69052  -1.67549  -5.71603 
 C                     3.31515  -3.09843  -5.61313 
 H                     4.12692  -2.47646  -5.97649 
 H                     3.74356  -3.77427  -4.88412 
 S                     2.7429   -4.14467  -6.98323 
 C                     2.70584  -2.94223  -8.34794 
 H                     2.01666  -2.14066  -8.11065 
 H                     3.69325  -2.51029  -8.46496 
 C                     2.27496  -3.63122  -9.63991 
 H                     1.28269  -4.05765  -9.54349 
 H                     2.25646  -2.91444  -10.45458 
 H                     2.96126  -4.42738  -9.90631 
 
 ITRead=  0  0  0  0  0  0  0  0  0  0  0  0  0  0  0  0  0  0  0  0
 ITRead=  0  0  0  0  0  0  0  0  0  0  0  0  0  0  0  0  0  0  0  0
 ITRead=  0  0  0  0  0  0  0  0  0  0
 MicOpt= -1 -1 -1 -1 -1 -1 -1 -1 -1 -1 -1 -1 -1 -1 -1 -1 -1 -1 -1 -1
 MicOpt= -1 -1 -1 -1 -1 -1 -1 -1 -1 -1 -1 -1 -1 -1 -1 -1 -1 -1 -1 -1
 MicOpt= -1 -1 -1 -1 -1 -1 -1 -1 -1 -1
 NAtoms=     50 NQM=       50 NQMF=       0 NMMI=      0 NMMIF=      0
                NMic=       0 NMicF=      0.
                          Input orientation:                          
 ---------------------------------------------------------------------
 Center     Atomic      Atomic             Coordinates (Angstroms)
 Number     Number       Type             X           Y           Z
 ---------------------------------------------------------------------
      1          6           0       -1.719994    5.956717    5.612501
      2          1           0       -2.779280    5.729750    5.654571
      3          1           0       -1.301246    5.839177    6.607136
      4          1           0       -1.605742    6.990979    5.308710
      5          6           0       -1.020062    5.039007    4.629853
      6          1           0        0.045795    5.258349    4.597701
      7          1           0       -1.128126    4.001877    4.941338
      8          8           0       -1.583545    5.239426    3.363190
      9          6           0       -1.067090    4.454298    2.329413
     10          1           0       -0.016050    4.229179    2.491168
     11          1           0       -1.145316    5.026632    1.414057
     12          6           0       -1.852145    3.161963    2.174189
     13          1           0       -1.812162    2.572023    3.088103
     14          1           0       -2.896489    3.395016    1.977827
     15          8           0       -1.292952    2.451584    1.109970
     16          6           0       -1.934891    1.248100    0.807837
     17          1           0       -2.971074    1.438410    0.528113
     18          1           0       -1.936478    0.588902    1.673572
     19          6           0       -1.231269    0.563170   -0.346443
     20          1           0       -1.116151    1.264238   -1.168573
     21          1           0       -1.852453   -0.256566   -0.687795
     22          8           0        0.000000    0.000000    0.000000
     23          6           0        1.115600    0.845842    0.000000
     24          1           0        1.111959    1.477949    0.881682
     25          1           0        1.100086    1.490784   -0.873675
     26          6           0        2.376945    0.000000    0.000000
     27          1           0        2.365963   -0.684312    0.840149
     28          1           0        3.234088    0.652253    0.124037
     29         16           0        2.697263   -0.933631   -1.525569
     30          6           0        1.685458   -2.428230   -1.280865
     31          1           0        1.997430   -2.890386   -0.350196
     32          1           0        0.648245   -2.147998   -1.189969
     33          6           0        1.872224   -3.443734   -2.409278
     34          1           0        1.457758   -4.387431   -2.075446
     35          1           0        2.923244   -3.619195   -2.605132
     36         16           0        1.003649   -3.083156   -3.970102
     37          6           0        2.253687   -2.209249   -4.961143
     38          1           0        2.734029   -1.462226   -4.343632
     39          1           0        1.690516   -1.675488   -5.716028
     40          6           0        3.315146   -3.098429   -5.613129
     41          1           0        4.126920   -2.476461   -5.976493
     42          1           0        3.743562   -3.774267   -4.884123
     43         16           0        2.742900   -4.144673   -6.983227
     44          6           0        2.705838   -2.942232   -8.347938
     45          1           0        2.016657   -2.140664   -8.110649
     46          1           0        3.693245   -2.510287   -8.464958
     47          6           0        2.274963   -3.631224   -9.639913
     48          1           0        1.282686   -4.057653   -9.543490
     49          1           0        2.256458   -2.914437  -10.454582
     50          1           0        2.961263   -4.427380   -9.906310
 ---------------------------------------------------------------------
 Stoichiometry    C14H30O3S3
 Framework group  C1[X(C14H30O3S3)]
 Standard basis: 6-31G(d) (6D, 7F)
   372 basis functions,   752 primitive gaussians,   372 cartesian basis functions
    93 alpha electrons       93 beta electrons
 Requested convergence on RMS density matrix=1.00D-08 within  64 cycles.
 Requested convergence on MAX density matrix=1.00D-06.
 Requested convergence on             energy=1.00D-06.
 SCF Done:  E(RHF) =  -1964.69114406     A.U. after   13 cycles
            NFock= 13  Conv=0.56D-08     -V/T= 2.0006
 Mulliken charges:
     1  C   -0.488656
     2  H    0.173105
     3  H    0.157404
     4  H    0.176463
     5  C    0.017011
     6  H    0.142822
     7  H    0.136207
     8  O   -0.631333
     9  C    0.002674
    10  H    0.150187
    11  H    0.181933
    12  C    0.011508
    13  H    0.142461
    14  H    0.154062
    15  O   -0.641433
    16  C    0.008560
    17  H    0.141744
    18  H    0.153242
    19  C   -0.001991
    20  H    0.162694
    21  H    0.174985
    22  O   -0.635351
    23  C    0.038800
    24  H    0.166276
    25  H    0.156601
    26  C   -0.502588
    27  H    0.199573
    28  H    0.196745
    29  S    0.097410
    30  C   -0.444509
    31  H    0.183870
    32  H    0.235628
    33  C   -0.502868
    34  H    0.210184
    35  H    0.201730
    36  S    0.134182
    37  C   -0.483686
    38  H    0.226881
    39  H    0.201403
    40  C   -0.475381
    41  H    0.192061
    42  H    0.202508
    43  S    0.133066
    44  C   -0.458957
    45  H    0.184014
    46  H    0.183234
    47  C   -0.495256
    48  H    0.181121
    49  H    0.170284
    50  H    0.179378
 Sum of Mulliken charges =  -0.00000
 Dipole moment (field-independent basis, Debye):
    X=              0.2661    Y=              2.1090    Z=              2.6315  Tot=              3.3828
 Quadrupole moment (field-independent basis, Debye-Ang):
   XX=           -145.3900   YY=           -167.7797   ZZ=           -138.8380
   XY=              6.5431   XZ=             -0.9963   YZ=            -15.0107
 Traceless Quadrupole moment (field-independent basis, Debye-Ang):
   XX=              5.2793   YY=            -17.1105   ZZ=             11.8312
   XY=              6.5431   XZ=             -0.9963   YZ=            -15.0107
 Octapole moment (field-independent basis, Debye-Ang**2):
  XXX=           -398.6680  YYY=            142.9995  ZZZ=            704.9797  XYY=           -114.6084
  XXY=             43.6488  XXZ=            244.9047  XZZ=            -94.2713  YZZ=            160.3654
  YYZ=            361.7769  XYZ=             -9.0291
 Hexadecapole moment (field-independent basis, Debye-Ang**3):
 XXXX=          -3960.9370 YYYY=         -10252.3082 ZZZZ=         -16338.1978 XXXY=           2347.3476
 XXXZ=           3305.9445 YYYX=           2638.8367 YYYZ=          -6293.0672 ZZZX=           2934.4803
 ZZZY=          -5743.0252 XXYY=          -2374.6042 XXZZ=          -3589.9677 YYZZ=          -5201.8963
 XXYZ=          -1969.5111 YYXZ=           1421.2542 ZZXY=            938.4413
 Merz-Kollman atomic radii used.
 Atom Element Radius
    1     6    1.50
    2     1    1.20
    3     1    1.20
    4     1    1.20
    5     6    1.50
    6     1    1.20
    7     1    1.20
    8     8    1.40
    9     6    1.50
   10     1    1.20
   11     1    1.20
   12     6    1.50
   13     1    1.20
   14     1    1.20
   15     8    1.40
   16     6    1.50
   17     1    1.20
   18     1    1.20
   19     6    1.50
   20     1    1.20
   21     1    1.20
   22     8    1.40
   23     6    1.50
   24     1    1.20
   25     1    1.20
   26     6    1.50
   27     1    1.20
   28     1    1.20
   29    16    1.75
   30     6    1.50
   31     1    1.20
   32     1    1.20
   33     6    1.50
   34     1    1.20
   35     1    1.20
   36    16    1.75
   37     6    1.50
   38     1    1.20
   39     1    1.20
   40     6    1.50
   41     1    1.20
   42     1    1.20
   43    16    1.75
   44     6    1.50
   45     1    1.20
   46     1    1.20
   47     6    1.50
   48     1    1.20
   49     1    1.20
   50     1    1.20
 Generate VDW surfaces: Layer= 4 Dens= 1 Start= 1.400 Inc= 0.200
            Electrostatic Properties Using The SCF Density.


       Atomic Center    1 is at  -1.719994  5.956717  5.612501
       Atomic Center    2 is at  -2.779280  5.729750  5.654571
       Atomic Center    3 is at  -1.301246  5.839177  6.607136
       Atomic Center    4 is at  -1.605742  6.990979  5.308710
       Atomic Center    5 is at  -1.020062  5.039007  4.629853
       Atomic Center    6 is at   0.045795  5.258349  4.597701
       Atomic Center    7 is at  -1.128126  4.001877  4.941338
       Atomic Center    8 is at  -1.583545  5.239426  3.363190
       Atomic Center    9 is at  -1.067090  4.454298  2.329413
       Atomic Center   10 is at  -0.016050  4.229179  2.491168
       Atomic Center   11 is at  -1.145316  5.026632  1.414057
       Atomic Center   12 is at  -1.852145  3.161963  2.174189
       Atomic Center   13 is at  -1.812162  2.572023  3.088103
       Atomic Center   14 is at  -2.896489  3.395016  1.977827
       Atomic Center   15 is at  -1.292952  2.451584  1.109970
       Atomic Center   16 is at  -1.934891  1.248100  0.807837
       Atomic Center   17 is at  -2.971074  1.438410  0.528113
       Atomic Center   18 is at  -1.936478  0.588902  1.673572
       Atomic Center   19 is at  -1.231269  0.563170 -0.346443
       Atomic Center   20 is at  -1.116151  1.264238 -1.168573
       Atomic Center   21 is at  -1.852453 -0.256566 -0.687795
       Atomic Center   22 is at   0.000000  0.000000  0.000000
       Atomic Center   23 is at   1.115600  0.845842  0.000000
       Atomic Center   24 is at   1.111959  1.477949  0.881682
       Atomic Center   25 is at   1.100086  1.490784 -0.873675
       Atomic Center   26 is at   2.376945  0.000000  0.000000
       Atomic Center   27 is at   2.365963 -0.684312  0.840149
       Atomic Center   28 is at   3.234088  0.652253  0.124037
       Atomic Center   29 is at   2.697263 -0.933631 -1.525569
       Atomic Center   30 is at   1.685458 -2.428230 -1.280865
       Atomic Center   31 is at   1.997430 -2.890386 -0.350196
       Atomic Center   32 is at   0.648245 -2.147998 -1.189969
       Atomic Center   33 is at   1.872224 -3.443734 -2.409278
       Atomic Center   34 is at   1.457758 -4.387431 -2.075446
       Atomic Center   35 is at   2.923244 -3.619195 -2.605132
       Atomic Center   36 is at   1.003649 -3.083156 -3.970102
       Atomic Center   37 is at   2.253687 -2.209249 -4.961143
       Atomic Center   38 is at   2.734029 -1.462226 -4.343632
       Atomic Center   39 is at   1.690516 -1.675488 -5.716028
       Atomic Center   40 is at   3.315146 -3.098429 -5.613129
       Atomic Center   41 is at   4.126920 -2.476461 -5.976493
       Atomic Center   42 is at   3.743562 -3.774267 -4.884123
       Atomic Center   43 is at   2.742900 -4.144673 -6.983227
       Atomic Center   44 is at   2.705838 -2.942232 -8.347938
       Atomic Center   45 is at   2.016657 -2.140664 -8.110649
       Atomic Center   46 is at   3.693245 -2.510287 -8.464958
       Atomic Center   47 is at   2.274963 -3.631224 -9.639913
       Atomic Center   48 is at   1.282686 -4.057653 -9.543490
       Atomic Center   49 is at   2.256458 -2.914437-10.454582
       Atomic Center   50 is at   2.961263 -4.427380 -9.906310
      ESP Fit Center   51 is at  -2.769994  5.956717  7.431154
      ESP Fit Center   52 is at  -2.910959  7.331163  6.662501
      ESP Fit Center   53 is at  -1.978815  4.156575  6.662501
      ESP Fit Center   54 is at   0.139464  6.932636  5.612501
      ESP Fit Center   55 is at  -3.291867  7.349275  5.612501
      ESP Fit Center   56 is at  -3.578167  6.310176  7.013720
      ESP Fit Center   57 is at  -3.578167  5.149324  7.013720
      ESP Fit Center   58 is at  -3.578167  7.113464  6.173720
      ESP Fit Center   59 is at  -4.280697  6.276221  6.173720
      ESP Fit Center   60 is at  -4.280697  5.183279  6.173720
      ESP Fit Center   61 is at  -3.578167  4.346036  6.173720
      ESP Fit Center   62 is at  -3.578167  7.113464  5.135422
      ESP Fit Center   63 is at  -4.280697  6.276221  5.135422
      ESP Fit Center   64 is at  -4.280697  5.183279  5.135422
      ESP Fit Center   65 is at  -3.578167  4.346036  5.135422
      ESP Fit Center   66 is at  -3.578167  6.310176  4.295422
      ESP Fit Center   67 is at  -3.578167  5.149324  4.295422
      ESP Fit Center   68 is at  -1.301246  5.839177  8.287136
      ESP Fit Center   69 is at  -0.313767  5.839177  7.966285
      ESP Fit Center   70 is at  -0.996098  6.778326  7.966285
      ESP Fit Center   71 is at  -2.100133  6.419603  7.966285
      ESP Fit Center   72 is at  -2.100133  5.258751  7.966285
      ESP Fit Center   73 is at  -0.996098  4.900028  7.966285
      ESP Fit Center   74 is at   0.296529  5.839177  7.126285
      ESP Fit Center   75 is at  -0.077279  6.866207  7.126285
      ESP Fit Center   76 is at  -1.023795  7.412678  7.126285
      ESP Fit Center   77 is at  -2.100133  4.455463  7.126285
      ESP Fit Center   78 is at  -1.023795  4.265676  7.126285
      ESP Fit Center   79 is at  -0.077279  4.812147  7.126285
      ESP Fit Center   80 is at  -1.300594  7.930128  6.667859
      ESP Fit Center   81 is at  -0.381775  8.018009  5.827859
      ESP Fit Center   82 is at  -1.328291  8.564480  5.827859
      ESP Fit Center   83 is at  -2.404629  8.374693  5.827859
      ESP Fit Center   84 is at  -3.107159  7.537450  5.827859
      ESP Fit Center   85 is at  -0.007967  6.990979  4.789561
      ESP Fit Center   86 is at  -0.381775  8.018009  4.789561
      ESP Fit Center   87 is at  -1.328291  8.564480  4.789561
      ESP Fit Center   88 is at  -2.404629  8.374693  4.789561
      ESP Fit Center   89 is at  -3.107159  7.537450  4.789561
      ESP Fit Center   90 is at  -0.618263  6.990979  3.949561
      ESP Fit Center   91 is at  -1.300594  7.930128  3.949561
      ESP Fit Center   92 is at  -2.404629  7.571405  3.949561
      ESP Fit Center   93 is at   0.509887  4.055769  5.679853
      ESP Fit Center   94 is at  -0.264566  6.693312  3.579853
      ESP Fit Center   95 is at   1.033274  5.258349  5.956850
      ESP Fit Center   96 is at   0.350943  6.197498  5.956850
      ESP Fit Center   97 is at   1.643570  5.258349  5.116850
      ESP Fit Center   98 is at   1.269762  6.285379  5.116850
      ESP Fit Center   99 is at   0.323246  6.831850  5.116850
      ESP Fit Center  100 is at   1.269762  4.231319  5.116850
      ESP Fit Center  101 is at   1.643570  5.258349  4.078552
      ESP Fit Center  102 is at   1.269762  6.285379  4.078552
      ESP Fit Center  103 is at   0.323246  6.831850  4.078552
      ESP Fit Center  104 is at   1.269762  4.231319  4.078552
      ESP Fit Center  105 is at   0.350943  6.197498  3.238552
      ESP Fit Center  106 is at  -1.128126  4.001877  6.621338
      ESP Fit Center  107 is at  -0.140647  4.001877  6.300487
      ESP Fit Center  108 is at  -1.927013  3.421451  6.300487
      ESP Fit Center  109 is at  -0.822978  3.062728  6.300487
      ESP Fit Center  110 is at  -2.629543  3.455406  5.460487
      ESP Fit Center  111 is at  -1.927013  2.618163  5.460487
      ESP Fit Center  112 is at  -0.850675  2.428376  5.460487
      ESP Fit Center  113 is at   0.095841  2.974847  5.460487
      ESP Fit Center  114 is at  -2.629543  3.455406  4.422189
      ESP Fit Center  115 is at   0.095841  2.974847  4.422189
      ESP Fit Center  116 is at  -2.956778  4.241714  4.343190
      ESP Fit Center  117 is at  -0.603545  6.936836  3.363190
      ESP Fit Center  118 is at  -1.583545  7.199426  3.363190
      ESP Fit Center  119 is at  -2.563545  6.936836  3.363190
      ESP Fit Center  120 is at  -3.280955  6.219426  3.363190
      ESP Fit Center  121 is at  -3.543545  5.239426  3.363190
      ESP Fit Center  122 is at  -1.059017  6.853759  2.383190
      ESP Fit Center  123 is at  -2.108073  6.853759  2.383190
      ESP Fit Center  124 is at  -2.956778  6.237138  2.383190
      ESP Fit Center  125 is at  -3.280955  5.239426  2.383190
      ESP Fit Center  126 is at   0.125846  6.182564  2.329413
      ESP Fit Center  127 is at   0.289098  3.290030  3.850317
      ESP Fit Center  128 is at   1.581725  4.229179  3.010317
      ESP Fit Center  129 is at   1.207917  5.256209  3.010317
      ESP Fit Center  130 is at   0.261401  2.655678  3.010317
      ESP Fit Center  131 is at   1.207917  3.202149  3.010317
      ESP Fit Center  132 is at   1.581725  4.229179  1.972019
      ESP Fit Center  133 is at   1.207917  5.256209  1.972019
      ESP Fit Center  134 is at   1.207917  3.202149  1.972019
      ESP Fit Center  135 is at   0.971429  4.229179  1.132019
      ESP Fit Center  136 is at  -0.867865  6.600133  1.933206
      ESP Fit Center  137 is at   0.452459  5.026632  0.894908
      ESP Fit Center  138 is at   0.078651  6.053662  0.894908
      ESP Fit Center  139 is at  -0.867865  6.600133  0.894908
      ESP Fit Center  140 is at  -1.944203  6.410346  0.894908
      ESP Fit Center  141 is at  -2.646733  5.573103  0.894908
      ESP Fit Center  142 is at  -0.157837  5.026632  0.054908
      ESP Fit Center  143 is at  -0.840168  5.965781  0.054908
      ESP Fit Center  144 is at  -1.944203  5.607058  0.054908
      ESP Fit Center  145 is at  -1.944203  4.446206  0.054908
      ESP Fit Center  146 is at  -0.840168  4.087483  0.054908
      ESP Fit Center  147 is at  -1.145316  5.026632 -0.265943
      ESP Fit Center  148 is at  -2.377145  4.071290  0.355536
      ESP Fit Center  149 is at  -2.611049  3.152449  4.447252
      ESP Fit Center  150 is at  -2.611049  1.991597  4.447252
      ESP Fit Center  151 is at  -1.507014  1.632874  4.447252
      ESP Fit Center  152 is at  -0.214387  2.572023  3.607252
      ESP Fit Center  153 is at  -3.313579  2.025552  3.607252
      ESP Fit Center  154 is at  -2.611049  1.188309  3.607252
      ESP Fit Center  155 is at  -1.534711  0.998522  3.607252
      ESP Fit Center  156 is at  -0.588195  1.544993  3.607252
      ESP Fit Center  157 is at  -3.695376  3.975442  3.336976
      ESP Fit Center  158 is at  -3.695376  2.814590  3.336976
      ESP Fit Center  159 is at  -3.695376  4.778730  2.496976
      ESP Fit Center  160 is at  -4.397906  3.941487  2.496976
      ESP Fit Center  161 is at  -4.397906  2.848545  2.496976
      ESP Fit Center  162 is at  -3.695376  2.011302  2.496976
      ESP Fit Center  163 is at  -3.695376  4.778730  1.458678
      ESP Fit Center  164 is at  -4.397906  3.941487  1.458678
      ESP Fit Center  165 is at  -4.397906  2.848545  1.458678
      ESP Fit Center  166 is at  -3.695376  3.975442  0.618678
      ESP Fit Center  167 is at  -2.896489  3.395016  0.297827
      ESP Fit Center  168 is at   0.404458  2.451584  2.089970
      ESP Fit Center  169 is at   0.080281  3.449296  0.129970
      ESP Fit Center  170 is at  -1.817480  4.065917  0.129970
      ESP Fit Center  171 is at  -2.666185  3.449296  0.129970
      ESP Fit Center  172 is at  -0.802952  3.300289 -0.587440
      ESP Fit Center  173 is at  -1.782952  3.300289 -0.587440
      ESP Fit Center  174 is at  -3.506764 -0.144458  0.807837
      ESP Fit Center  175 is at  -2.679561 -0.715434  0.807837
      ESP Fit Center  176 is at  -3.769961  0.857984  1.887262
      ESP Fit Center  177 is at  -4.472491  1.984881  1.047262
      ESP Fit Center  178 is at  -4.472491  0.891939  1.047262
      ESP Fit Center  179 is at  -3.769961  0.054696  1.047262
      ESP Fit Center  180 is at  -3.769961  2.822124  0.008964
      ESP Fit Center  181 is at  -4.472491  1.984881  0.008964
      ESP Fit Center  182 is at  -4.472491  0.891939  0.008964
      ESP Fit Center  183 is at  -3.769961  0.054696  0.008964
      ESP Fit Center  184 is at  -2.665926  2.377559 -0.831036
      ESP Fit Center  185 is at  -3.769961  2.018836 -0.831036
      ESP Fit Center  186 is at  -3.769961  0.857984 -0.831036
      ESP Fit Center  187 is at  -2.971074  1.438410 -1.151887
      ESP Fit Center  188 is at  -1.936478  0.588902  3.353572
      ESP Fit Center  189 is at  -0.948999  0.588902  3.032721
      ESP Fit Center  190 is at  -2.735365  1.169328  3.032721
      ESP Fit Center  191 is at  -2.735365  0.008476  3.032721
      ESP Fit Center  192 is at  -1.631330 -0.350247  3.032721
      ESP Fit Center  193 is at  -0.338703  0.588902  2.192721
      ESP Fit Center  194 is at  -3.437895  0.042431  2.192721
      ESP Fit Center  195 is at  -2.735365 -0.794812  2.192721
      ESP Fit Center  196 is at  -1.659027 -0.984599  2.192721
      ESP Fit Center  197 is at  -0.712511 -0.438128  2.192721
      ESP Fit Center  198 is at  -2.735365 -0.794812  1.154423
      ESP Fit Center  199 is at  -1.659027 -0.984599  1.154423
      ESP Fit Center  200 is at  -1.490090 -1.236972  0.703557
      ESP Fit Center  201 is at  -2.976254  1.075544 -1.396443
      ESP Fit Center  202 is at  -2.281269  0.563170 -2.165096
      ESP Fit Center  203 is at  -0.706269 -0.346157 -2.165096
      ESP Fit Center  204 is at  -0.838700  2.837739 -1.687722
      ESP Fit Center  205 is at  -1.915038  2.647952 -1.687722
      ESP Fit Center  206 is at  -2.617568  1.810709 -1.687722
      ESP Fit Center  207 is at  -0.128672  1.264238 -2.527722
      ESP Fit Center  208 is at  -0.811003  2.203387 -2.527722
      ESP Fit Center  209 is at  -1.915038  1.844664 -2.527722
      ESP Fit Center  210 is at  -1.915038  0.683812 -2.527722
      ESP Fit Center  211 is at  -0.811003  0.325089 -2.527722
      ESP Fit Center  212 is at  -1.116151  1.264238 -2.848573
      ESP Fit Center  213 is at  -2.651340 -0.836992  0.671354
      ESP Fit Center  214 is at  -3.353870 -0.803037 -0.168646
      ESP Fit Center  215 is at  -2.651340 -1.640280 -0.168646
      ESP Fit Center  216 is at  -1.575002 -1.830067 -0.168646
      ESP Fit Center  217 is at  -3.353870  0.289905 -1.206944
      ESP Fit Center  218 is at  -3.353870 -0.803037 -1.206944
      ESP Fit Center  219 is at  -2.651340 -1.640280 -1.206944
      ESP Fit Center  220 is at  -1.575002 -1.830067 -1.206944
      ESP Fit Center  221 is at  -2.651340  0.323860 -2.046944
      ESP Fit Center  222 is at  -2.651340 -0.836992 -2.046944
      ESP Fit Center  223 is at  -1.547305 -1.195715 -2.046944
      ESP Fit Center  224 is at  -1.852453 -0.256566 -2.367795
      ESP Fit Center  225 is at   0.000000  0.000000  1.960000
      ESP Fit Center  226 is at  -0.490000 -0.848705  1.697410
      ESP Fit Center  227 is at   0.490000 -0.848705  1.697410
      ESP Fit Center  228 is at  -0.524528 -1.614333  0.980000
      ESP Fit Center  229 is at   0.524528 -1.614333  0.980000
      ESP Fit Center  230 is at  -0.980000 -1.697410  0.000000
      ESP Fit Center  231 is at   0.000000  0.000000 -1.960000
      ESP Fit Center  232 is at   2.308536  2.574108  0.000000
      ESP Fit Center  233 is at   1.368727  2.930531  0.000000
      ESP Fit Center  234 is at   0.370930  2.809376  0.000000
      ESP Fit Center  235 is at   1.111959  1.477949  2.561682
      ESP Fit Center  236 is at   2.099438  1.477949  2.240831
      ESP Fit Center  237 is at   1.417107  2.417098  2.240831
      ESP Fit Center  238 is at   0.313072  2.058375  2.240831
      ESP Fit Center  239 is at   0.313072  0.897523  2.240831
      ESP Fit Center  240 is at   1.417107  0.538800  2.240831
      ESP Fit Center  241 is at   2.335926  2.504979  1.400831
      ESP Fit Center  242 is at   1.389410  3.051450  1.400831
      ESP Fit Center  243 is at   1.389410  3.051450  0.362533
      ESP Fit Center  244 is at   1.377537  3.064285 -0.354526
      ESP Fit Center  245 is at   0.301199  2.874498 -0.354526
      ESP Fit Center  246 is at   2.324053  2.517814 -1.392824
      ESP Fit Center  247 is at   1.377537  3.064285 -1.392824
      ESP Fit Center  248 is at   0.301199  2.874498 -1.392824
      ESP Fit Center  249 is at   2.087565  1.490784 -2.232824
      ESP Fit Center  250 is at   1.405234  2.429933 -2.232824
      ESP Fit Center  251 is at   0.301199  2.071210 -2.232824
      ESP Fit Center  252 is at   0.301199  0.910358 -2.232824
      ESP Fit Center  253 is at   1.100086  1.490784 -2.553675
      ESP Fit Center  254 is at   2.901945  0.909327  1.818653
      ESP Fit Center  255 is at   2.365963 -0.684312  2.520149
      ESP Fit Center  256 is at   3.353442 -0.684312  2.199298
      ESP Fit Center  257 is at   2.671111  0.254837  2.199298
      ESP Fit Center  258 is at   1.567076 -0.103886  2.199298
      ESP Fit Center  259 is at   1.567076 -1.264738  2.199298
      ESP Fit Center  260 is at   2.671111 -1.623461  2.199298
      ESP Fit Center  261 is at   3.963738 -0.684312  1.359298
      ESP Fit Center  262 is at   0.864546 -1.230783  1.359298
      ESP Fit Center  263 is at   1.567076 -2.068026  1.359298
      ESP Fit Center  264 is at   2.643414 -2.257813  1.359298
      ESP Fit Center  265 is at   3.589930 -1.711342  1.359298
      ESP Fit Center  266 is at   3.234088  0.652253  1.804037
      ESP Fit Center  267 is at   4.221567  0.652253  1.483186
      ESP Fit Center  268 is at   3.539236  1.591402  1.483186
      ESP Fit Center  269 is at   4.831863  0.652253  0.643186
      ESP Fit Center  270 is at   4.458055  1.679283  0.643186
      ESP Fit Center  271 is at   3.511539  2.225754  0.643186
      ESP Fit Center  272 is at   4.458055 -0.374777  0.643186
      ESP Fit Center  273 is at   4.831863  0.652253 -0.395112
      ESP Fit Center  274 is at   4.458055  1.679283 -0.395112
      ESP Fit Center  275 is at   3.511539  2.225754 -0.395112
      ESP Fit Center  276 is at   3.539236  1.591402 -1.235112
      ESP Fit Center  277 is at   4.612750 -0.933631  0.001981
      ESP Fit Center  278 is at   4.308673 -1.969222  0.001981
      ESP Fit Center  279 is at   5.085836 -0.933631 -0.980393
      ESP Fit Center  280 is at   4.849293  0.102732 -0.980393
      ESP Fit Center  281 is at   4.186514 -2.801093 -0.980393
      ESP Fit Center  282 is at   4.849293 -1.969994 -0.980393
      ESP Fit Center  283 is at   5.085836 -0.933631 -2.070745
      ESP Fit Center  284 is at   4.849293  0.102732 -2.070745
      ESP Fit Center  285 is at   4.186514  0.933831 -2.070745
      ESP Fit Center  286 is at   3.228771  1.395056 -2.070745
      ESP Fit Center  287 is at   0.545233  0.102732 -2.070745
      ESP Fit Center  288 is at   4.849293 -1.969994 -2.070745
      ESP Fit Center  289 is at   4.612750 -0.933631 -3.053119
      ESP Fit Center  290 is at   4.308673  0.101960 -3.053119
      ESP Fit Center  291 is at   3.492985  0.808757 -3.053119
      ESP Fit Center  292 is at   2.424661  0.962359 -3.053119
      ESP Fit Center  293 is at   1.442886  0.513998 -3.053119
      ESP Fit Center  294 is at   0.859367 -0.393976 -3.053119
      ESP Fit Center  295 is at   4.308673 -1.969222 -3.053119
      ESP Fit Center  296 is at   0.635458 -2.428230  0.537788
      ESP Fit Center  297 is at   0.494493 -3.802676 -0.230865
      ESP Fit Center  298 is at   1.997430 -2.890386  1.329804
      ESP Fit Center  299 is at   2.984909 -2.890386  1.008953
      ESP Fit Center  300 is at   1.198543 -2.309960  1.008953
      ESP Fit Center  301 is at   1.198543 -3.470812  1.008953
      ESP Fit Center  302 is at   2.302578 -3.829535  1.008953
      ESP Fit Center  303 is at   3.595205 -2.890386  0.168953
      ESP Fit Center  304 is at   0.496013 -3.436857  0.168953
      ESP Fit Center  305 is at   1.198543 -4.274100  0.168953
      ESP Fit Center  306 is at   2.274881 -4.463887  0.168953
      ESP Fit Center  307 is at   3.221397 -3.917416  0.168953
      ESP Fit Center  308 is at   3.221397 -3.917416 -0.869345
      ESP Fit Center  309 is at  -0.150642 -2.728424  0.169180
      ESP Fit Center  310 is at  -0.853172 -2.694469 -0.670820
      ESP Fit Center  311 is at  -0.150642 -3.531712 -0.670820
      ESP Fit Center  312 is at  -0.853172 -1.601527 -1.709118
      ESP Fit Center  313 is at  -0.853172 -2.694469 -1.709118
      ESP Fit Center  314 is at  -0.150642 -3.531712 -1.709118
      ESP Fit Center  315 is at   2.627720 -5.098039 -3.459278
      ESP Fit Center  316 is at   0.658871 -4.967857 -0.716297
      ESP Fit Center  317 is at   1.762906 -5.326580 -0.716297
      ESP Fit Center  318 is at  -0.043659 -3.840960 -1.556297
      ESP Fit Center  319 is at  -0.043659 -4.933902 -1.556297
      ESP Fit Center  320 is at   0.658871 -5.771145 -1.556297
      ESP Fit Center  321 is at   1.735209 -5.960932 -1.556297
      ESP Fit Center  322 is at   2.681725 -5.414461 -1.556297
      ESP Fit Center  323 is at  -0.043659 -4.933902 -2.594595
      ESP Fit Center  324 is at   0.658871 -5.771145 -2.594595
      ESP Fit Center  325 is at   1.735209 -5.960932 -2.594595
      ESP Fit Center  326 is at   2.681725 -5.414461 -2.594595
      ESP Fit Center  327 is at   3.910723 -3.619195 -1.245983
      ESP Fit Center  328 is at   3.228392 -4.558344 -1.245983
      ESP Fit Center  329 is at   4.521019 -3.619195 -2.085983
      ESP Fit Center  330 is at   3.200695 -5.192696 -2.085983
      ESP Fit Center  331 is at   4.147211 -4.646225 -2.085983
      ESP Fit Center  332 is at   4.521019 -3.619195 -3.124281
      ESP Fit Center  333 is at   4.147211 -2.592165 -3.124281
      ESP Fit Center  334 is at   3.200695 -5.192696 -3.124281
      ESP Fit Center  335 is at   4.147211 -4.646225 -3.124281
      ESP Fit Center  336 is at  -0.834247 -2.543501 -2.442552
      ESP Fit Center  337 is at  -0.834247 -3.622811 -2.442552
      ESP Fit Center  338 is at  -0.250728 -4.530785 -2.442552
      ESP Fit Center  339 is at   0.472141 -0.754469 -3.424926
      ESP Fit Center  340 is at  -0.485602 -1.215694 -3.424926
      ESP Fit Center  341 is at  -1.148381 -2.046793 -3.424926
      ESP Fit Center  342 is at  -1.384924 -3.083156 -3.424926
      ESP Fit Center  343 is at  -1.148381 -4.119519 -3.424926
      ESP Fit Center  344 is at  -0.485602 -4.950618 -3.424926
      ESP Fit Center  345 is at   0.472141 -5.411843 -3.424926
      ESP Fit Center  346 is at   1.535157 -5.411843 -3.424926
      ESP Fit Center  347 is at   0.472141 -0.754469 -4.515278
      ESP Fit Center  348 is at  -0.485602 -1.215694 -4.515278
      ESP Fit Center  349 is at  -1.148381 -2.046793 -4.515278
      ESP Fit Center  350 is at  -1.384924 -3.083156 -4.515278
      ESP Fit Center  351 is at  -1.148381 -4.119519 -4.515278
      ESP Fit Center  352 is at  -0.485602 -4.950618 -4.515278
      ESP Fit Center  353 is at   0.472141 -5.411843 -4.515278
      ESP Fit Center  354 is at   1.535157 -5.411843 -4.515278
      ESP Fit Center  355 is at   2.492900 -4.950618 -4.515278
      ESP Fit Center  356 is at  -0.250728 -1.635527 -5.497652
      ESP Fit Center  357 is at  -0.834247 -2.543501 -5.497652
      ESP Fit Center  358 is at  -0.834247 -3.622811 -5.497652
      ESP Fit Center  359 is at  -0.250728 -4.530785 -5.497652
      ESP Fit Center  360 is at   0.731047 -4.979146 -5.497652
      ESP Fit Center  361 is at  -0.059366 -3.083156 -6.177476
      ESP Fit Center  362 is at   3.009183 -0.554944 -6.011143
      ESP Fit Center  363 is at   4.331804 -1.462226 -3.824483
      ESP Fit Center  364 is at   3.957996 -0.435196 -3.824483
      ESP Fit Center  365 is at   3.011480  0.111275 -3.824483
      ESP Fit Center  366 is at   1.935142 -0.078512 -3.824483
      ESP Fit Center  367 is at   3.957996 -0.435196 -4.862781
      ESP Fit Center  368 is at   3.011480  0.111275 -4.862781
      ESP Fit Center  369 is at   1.935142 -0.078512 -4.862781
      ESP Fit Center  370 is at   1.967967 -0.101987 -5.196879
      ESP Fit Center  371 is at   0.891629 -0.291774 -5.196879
      ESP Fit Center  372 is at   2.914483 -0.648458 -6.235177
      ESP Fit Center  373 is at   1.967967 -0.101987 -6.235177
      ESP Fit Center  374 is at   0.891629 -0.291774 -6.235177
      ESP Fit Center  375 is at   0.189099 -1.129017 -6.235177
      ESP Fit Center  376 is at   0.189099 -2.221959 -6.235177
      ESP Fit Center  377 is at   1.995664 -0.736339 -7.075177
      ESP Fit Center  378 is at   0.891629 -1.095062 -7.075177
      ESP Fit Center  379 is at   5.114399 -2.476461 -4.617344
      ESP Fit Center  380 is at   4.432068 -1.537312 -4.617344
      ESP Fit Center  381 is at   5.724695 -2.476461 -5.457344
      ESP Fit Center  382 is at   5.350887 -1.449431 -5.457344
      ESP Fit Center  383 is at   4.404371 -0.902960 -5.457344
      ESP Fit Center  384 is at   5.724695 -2.476461 -6.495642
      ESP Fit Center  385 is at   5.350887 -1.449431 -6.495642
      ESP Fit Center  386 is at   4.404371 -0.902960 -6.495642
      ESP Fit Center  387 is at   3.328033 -1.092747 -6.495642
      ESP Fit Center  388 is at   5.350887 -3.503491 -6.495642
      ESP Fit Center  389 is at   5.114399 -2.476461 -7.335642
      ESP Fit Center  390 is at   4.731041 -3.774267 -3.524974
      ESP Fit Center  391 is at   4.048710 -4.713416 -3.524974
      ESP Fit Center  392 is at   5.341337 -3.774267 -4.364974
      ESP Fit Center  393 is at   4.967529 -2.747237 -4.364974
      ESP Fit Center  394 is at   2.944675 -5.157981 -4.364974
      ESP Fit Center  395 is at   4.021013 -5.347768 -4.364974
      ESP Fit Center  396 is at   4.967529 -4.801297 -4.364974
      ESP Fit Center  397 is at   5.341337 -3.774267 -5.403272
      ESP Fit Center  398 is at   4.967529 -4.801297 -5.403272
      ESP Fit Center  399 is at   2.211392 -5.065271 -4.775853
      ESP Fit Center  400 is at   1.488523 -5.592302 -5.455677
      ESP Fit Center  401 is at   2.470298 -6.040663 -5.455677
      ESP Fit Center  402 is at   3.538622 -5.887061 -5.455677
      ESP Fit Center  403 is at   5.131473 -4.144673 -6.438051
      ESP Fit Center  404 is at   0.590870 -3.108310 -6.438051
      ESP Fit Center  405 is at   0.354327 -4.144673 -6.438051
      ESP Fit Center  406 is at   0.590870 -5.181036 -6.438051
      ESP Fit Center  407 is at   1.253649 -6.012135 -6.438051
      ESP Fit Center  408 is at   2.211392 -6.473360 -6.438051
      ESP Fit Center  409 is at   3.274408 -6.473360 -6.438051
      ESP Fit Center  410 is at   4.232151 -6.012135 -6.438051
      ESP Fit Center  411 is at   4.894930 -5.181036 -6.438051
      ESP Fit Center  412 is at   5.131473 -4.144673 -7.528403
      ESP Fit Center  413 is at   0.590870 -3.108310 -7.528403
      ESP Fit Center  414 is at   0.354327 -4.144673 -7.528403
      ESP Fit Center  415 is at   0.590870 -5.181036 -7.528403
      ESP Fit Center  416 is at   1.253649 -6.012135 -7.528403
      ESP Fit Center  417 is at   2.211392 -6.473360 -7.528403
      ESP Fit Center  418 is at   3.274408 -6.473360 -7.528403
      ESP Fit Center  419 is at   4.232151 -6.012135 -7.528403
      ESP Fit Center  420 is at   4.894930 -5.181036 -7.528403
      ESP Fit Center  421 is at   4.658387 -4.144673 -8.510777
      ESP Fit Center  422 is at   1.488523 -5.592302 -8.510777
      ESP Fit Center  423 is at   2.470298 -6.040663 -8.510777
      ESP Fit Center  424 is at   3.538622 -5.887061 -8.510777
      ESP Fit Center  425 is at   4.354310 -5.180264 -8.510777
      ESP Fit Center  426 is at   3.461334 -1.287927 -7.297938
      ESP Fit Center  427 is at   2.447017 -1.142090 -9.397938
      ESP Fit Center  428 is at   2.294108 -0.567163 -7.591500
      ESP Fit Center  429 is at   1.217770 -0.756950 -7.591500
      ESP Fit Center  430 is at   0.515240 -1.594193 -7.591500
      ESP Fit Center  431 is at   0.515240 -2.687135 -7.591500
      ESP Fit Center  432 is at   2.294108 -0.567163 -8.629798
      ESP Fit Center  433 is at   1.217770 -0.756950 -8.629798
      ESP Fit Center  434 is at   0.515240 -1.594193 -8.629798
      ESP Fit Center  435 is at   0.515240 -2.687135 -8.629798
      ESP Fit Center  436 is at   2.321805 -1.201515 -9.469798
      ESP Fit Center  437 is at   1.217770 -1.560238 -9.469798
      ESP Fit Center  438 is at   5.291020 -2.510287 -7.945809
      ESP Fit Center  439 is at   4.917212 -1.483257 -7.945809
      ESP Fit Center  440 is at   3.970696 -0.936786 -7.945809
      ESP Fit Center  441 is at   4.917212 -3.537317 -7.945809
      ESP Fit Center  442 is at   5.291020 -2.510287 -8.984107
      ESP Fit Center  443 is at   4.917212 -1.483257 -8.984107
      ESP Fit Center  444 is at   3.970696 -0.936786 -8.984107
      ESP Fit Center  445 is at   4.917212 -3.537317 -8.984107
      ESP Fit Center  446 is at   4.680724 -2.510287 -9.824107
      ESP Fit Center  447 is at   3.998393 -1.571138 -9.824107
      ESP Fit Center  448 is at   0.703090 -2.238666 -9.639913
      ESP Fit Center  449 is at   1.749963 -4.540551-11.458566
      ESP Fit Center  450 is at   0.483799 -3.477227 -8.184341
      ESP Fit Center  451 is at   0.483799 -4.638079 -8.184341
      ESP Fit Center  452 is at   0.483799 -2.673939 -9.024341
      ESP Fit Center  453 is at  -0.218731 -3.511182 -9.024341
      ESP Fit Center  454 is at  -0.218731 -4.604124 -9.024341
      ESP Fit Center  455 is at   0.483799 -5.441367 -9.024341
      ESP Fit Center  456 is at   1.560137 -5.631154 -9.024341
      ESP Fit Center  457 is at  -0.218731 -3.511182-10.062639
      ESP Fit Center  458 is at  -0.218731 -4.604124-10.062639
      ESP Fit Center  459 is at   0.483799 -5.441367-10.062639
      ESP Fit Center  460 is at   1.560137 -5.631154-10.062639
      ESP Fit Center  461 is at   0.483799 -3.477227-10.902639
      ESP Fit Center  462 is at   0.483799 -4.638079-10.902639
      ESP Fit Center  463 is at   2.533909 -1.340936 -9.935433
      ESP Fit Center  464 is at   1.457571 -1.530723 -9.935433
      ESP Fit Center  465 is at   3.854233 -2.914437-10.973731
      ESP Fit Center  466 is at   3.480425 -1.887407-10.973731
      ESP Fit Center  467 is at   2.533909 -1.340936-10.973731
      ESP Fit Center  468 is at   1.457571 -1.530723-10.973731
      ESP Fit Center  469 is at   0.755041 -2.367966-10.973731
      ESP Fit Center  470 is at   3.243937 -2.914437-11.813731
      ESP Fit Center  471 is at   2.561606 -1.975288-11.813731
      ESP Fit Center  472 is at   1.457571 -2.334011-11.813731
      ESP Fit Center  473 is at   1.457571 -3.494863-11.813731
      ESP Fit Center  474 is at   2.561606 -3.853586-11.813731
      ESP Fit Center  475 is at   2.256458 -2.914437-12.134582
      ESP Fit Center  476 is at   4.559038 -4.427380 -9.387161
      ESP Fit Center  477 is at   2.162376 -5.811094 -9.387161
      ESP Fit Center  478 is at   3.238714 -6.000881 -9.387161
      ESP Fit Center  479 is at   4.185230 -5.454410 -9.387161
      ESP Fit Center  480 is at   4.559038 -4.427380-10.425459
      ESP Fit Center  481 is at   2.162376 -5.811094-10.425459
      ESP Fit Center  482 is at   3.238714 -6.000881-10.425459
      ESP Fit Center  483 is at   4.185230 -5.454410-10.425459
      ESP Fit Center  484 is at   3.948742 -4.427380-11.265459
      ESP Fit Center  485 is at   2.162376 -5.007806-11.265459
      ESP Fit Center  486 is at   3.266411 -5.366529-11.265459
      ESP Fit Center  487 is at   2.961263 -4.427380-11.586310
      ESP Fit Center  488 is at  -0.940511  7.663546  7.108877
      ESP Fit Center  489 is at  -1.987033  7.814014  7.108877
      ESP Fit Center  490 is at  -2.948772  7.374802  7.108877
      ESP Fit Center  491 is at  -1.987033  4.099420  7.108877
      ESP Fit Center  492 is at   0.388117  6.971930  6.146551
      ESP Fit Center  493 is at  -3.178852  7.786067  6.146551
      ESP Fit Center  494 is at  -3.739280  5.729750  7.317340
      ESP Fit Center  495 is at  -3.259280  4.898366  7.317340
      ESP Fit Center  496 is at  -4.124488  6.707101  6.614571
      ESP Fit Center  497 is at  -4.442049  5.729750  6.614571
      ESP Fit Center  498 is at  -4.124488  4.752399  6.614571
      ESP Fit Center  499 is at  -3.293104  4.148363  6.614571
      ESP Fit Center  500 is at  -3.739280  7.392519  5.654571
      ESP Fit Center  501 is at  -4.442049  6.689750  5.654571
      ESP Fit Center  502 is at  -4.699280  5.729750  5.654571
      ESP Fit Center  503 is at  -4.442049  4.769750  5.654571
      ESP Fit Center  504 is at  -3.739280  4.066981  5.654571
      ESP Fit Center  505 is at  -4.124488  6.707101  4.694571
      ESP Fit Center  506 is at  -4.442049  5.729750  4.694571
      ESP Fit Center  507 is at  -4.124488  4.752399  4.694571
      ESP Fit Center  508 is at  -3.293104  4.148363  4.694571
      ESP Fit Center  509 is at  -3.739280  5.729750  3.991802
      ESP Fit Center  510 is at  -1.301246  5.839177  8.527136
      ESP Fit Center  511 is at  -0.341246  5.839177  8.269905
      ESP Fit Center  512 is at  -0.821246  6.670561  8.269905
      ESP Fit Center  513 is at  -1.781246  6.670561  8.269905
      ESP Fit Center  514 is at  -2.261246  5.839177  8.269905
      ESP Fit Center  515 is at  -1.781246  5.007793  8.269905
      ESP Fit Center  516 is at  -0.821246  5.007793  8.269905
      ESP Fit Center  517 is at   0.361523  5.839177  7.567136
      ESP Fit Center  518 is at   0.043962  6.816528  7.567136
      ESP Fit Center  519 is at  -0.787422  7.420564  7.567136
      ESP Fit Center  520 is at  -1.815070  7.420564  7.567136
      ESP Fit Center  521 is at  -2.646454  4.861826  7.567136
      ESP Fit Center  522 is at  -1.815070  4.257790  7.567136
      ESP Fit Center  523 is at  -0.787422  4.257790  7.567136
      ESP Fit Center  524 is at   0.043962  4.861826  7.567136
      ESP Fit Center  525 is at   0.618754  5.839177  6.607136
      ESP Fit Center  526 is at   0.361523  6.799177  6.607136
      ESP Fit Center  527 is at   0.361523  4.879177  6.607136
      ESP Fit Center  528 is at  -0.260534  7.968330  6.268710
      ESP Fit Center  529 is at  -1.091918  8.572366  6.268710
      ESP Fit Center  530 is at  -2.119566  8.572366  6.268710
      ESP Fit Center  531 is at  -2.950950  7.968330  6.268710
      ESP Fit Center  532 is at   0.057027  7.950979  5.308710
      ESP Fit Center  533 is at  -0.645742  8.653748  5.308710
      ESP Fit Center  534 is at  -1.605742  8.910979  5.308710
      ESP Fit Center  535 is at  -2.565742  8.653748  5.308710
      ESP Fit Center  536 is at  -3.268511  7.950979  5.308710
      ESP Fit Center  537 is at  -0.260534  7.968330  4.348710
      ESP Fit Center  538 is at  -1.091918  8.572366  4.348710
      ESP Fit Center  539 is at  -2.119566  8.572366  4.348710
      ESP Fit Center  540 is at  -2.950950  7.968330  4.348710
      ESP Fit Center  541 is at  -1.125742  7.822363  3.645941
      ESP Fit Center  542 is at  -2.085742  7.822363  3.645941
      ESP Fit Center  543 is at   0.558462  4.024551  6.126229
      ESP Fit Center  544 is at   0.438796  3.209657  4.095803
      ESP Fit Center  545 is at   1.005795  5.258349  6.260470
      ESP Fit Center  546 is at   1.708564  5.258349  5.557701
      ESP Fit Center  547 is at   1.391003  6.235700  5.557701
      ESP Fit Center  548 is at   0.559619  6.839736  5.557701
      ESP Fit Center  549 is at   1.391003  4.280998  5.557701
      ESP Fit Center  550 is at   1.965795  5.258349  4.597701
      ESP Fit Center  551 is at   1.708564  6.218349  4.597701
      ESP Fit Center  552 is at   1.005795  6.921118  4.597701
      ESP Fit Center  553 is at   1.005795  3.595580  4.597701
      ESP Fit Center  554 is at   1.708564  4.298349  4.597701
      ESP Fit Center  555 is at   1.708564  5.258349  3.637701
      ESP Fit Center  556 is at   1.391003  6.235700  3.637701
      ESP Fit Center  557 is at   0.559619  6.839736  3.637701
      ESP Fit Center  558 is at  -1.608126  3.170493  6.604107
      ESP Fit Center  559 is at  -0.648126  3.170493  6.604107
      ESP Fit Center  560 is at  -2.473334  3.024526  5.901338
      ESP Fit Center  561 is at  -1.641950  2.420490  5.901338
      ESP Fit Center  562 is at  -0.614302  2.420490  5.901338
      ESP Fit Center  563 is at   0.217082  3.024526  5.901338
      ESP Fit Center  564 is at  -2.790895  3.041877  4.941338
      ESP Fit Center  565 is at  -1.128126  2.081877  4.941338
      ESP Fit Center  566 is at  -0.168126  2.339108  4.941338
      ESP Fit Center  567 is at   0.534643  3.041877  4.941338
      ESP Fit Center  568 is at   0.217082  3.024526  3.981338
      ESP Fit Center  569 is at  -3.218172  6.687579  3.861637
      ESP Fit Center  570 is at  -3.703925  5.762053  3.861637
      ESP Fit Center  571 is at  -3.703925  4.716799  3.861637
      ESP Fit Center  572 is at  -0.342983  7.036690  2.864743
      ESP Fit Center  573 is at  -1.320312  7.407342  2.864743
      ESP Fit Center  574 is at  -2.357945  7.281350  2.864743
      ESP Fit Center  575 is at  -3.218172  6.687579  2.864743
      ESP Fit Center  576 is at  -3.703925  5.762053  2.864743
      ESP Fit Center  577 is at  -1.042363  6.905014  1.966573
      ESP Fit Center  578 is at  -2.124727  6.905014  1.966573
      ESP Fit Center  579 is at  -3.000379  6.268816  1.966573
      ESP Fit Center  580 is at   0.391768  6.283648  2.863463
      ESP Fit Center  581 is at   0.391768  6.283648  1.795363
      ESP Fit Center  582 is at  -3.175201  5.469511  1.795363
      ESP Fit Center  583 is at   1.646719  4.229179  3.451168
      ESP Fit Center  584 is at   0.497774  2.647792  3.451168
      ESP Fit Center  585 is at   1.329158  3.251828  3.451168
      ESP Fit Center  586 is at   1.903950  4.229179  2.491168
      ESP Fit Center  587 is at   1.646719  5.189179  2.491168
      ESP Fit Center  588 is at   0.943950  5.891948  2.491168
      ESP Fit Center  589 is at   0.943950  2.566410  2.491168
      ESP Fit Center  590 is at   1.646719  3.269179  2.491168
      ESP Fit Center  591 is at   1.646719  4.229179  1.531168
      ESP Fit Center  592 is at   1.329158  5.206530  1.531168
      ESP Fit Center  593 is at   0.943950  4.229179  0.828399
      ESP Fit Center  594 is at  -0.185316  6.689401  1.414057
      ESP Fit Center  595 is at  -1.145316  6.946632  1.414057
      ESP Fit Center  596 is at  -2.105316  6.689401  1.414057
      ESP Fit Center  597 is at  -2.808085  5.986632  1.414057
      ESP Fit Center  598 is at   0.517453  5.026632  0.454057
      ESP Fit Center  599 is at   0.199892  6.003983  0.454057
      ESP Fit Center  600 is at  -0.631492  6.608019  0.454057
      ESP Fit Center  601 is at  -1.659140  6.608019  0.454057
      ESP Fit Center  602 is at  -2.490524  6.003983  0.454057
      ESP Fit Center  603 is at  -2.808085  5.026632  0.454057
      ESP Fit Center  604 is at  -0.185316  5.026632 -0.248712
      ESP Fit Center  605 is at  -0.665316  5.858016 -0.248712
      ESP Fit Center  606 is at  -1.625316  5.858016 -0.248712
      ESP Fit Center  607 is at  -2.105316  5.026632 -0.248712
      ESP Fit Center  608 is at  -0.665316  4.195248 -0.248712
      ESP Fit Center  609 is at  -1.145316  5.026632 -0.505943
      ESP Fit Center  610 is at  -3.652533  2.633321  3.670565
      ESP Fit Center  611 is at   0.255966  2.146750  2.708239
      ESP Fit Center  612 is at  -2.772162  2.572023  4.750872
      ESP Fit Center  613 is at  -2.292162  1.740639  4.750872
      ESP Fit Center  614 is at  -1.332162  1.740639  4.750872
      ESP Fit Center  615 is at  -0.149393  2.572023  4.048103
      ESP Fit Center  616 is at  -3.474931  2.572023  4.048103
      ESP Fit Center  617 is at  -3.157370  1.594672  4.048103
      ESP Fit Center  618 is at  -2.325986  0.990636  4.048103
      ESP Fit Center  619 is at  -1.298338  0.990636  4.048103
      ESP Fit Center  620 is at  -0.466954  1.594672  4.048103
      ESP Fit Center  621 is at  -3.474931  1.612023  3.088103
      ESP Fit Center  622 is at  -0.149393  1.612023  3.088103
      ESP Fit Center  623 is at  -3.856489  3.395016  3.640596
      ESP Fit Center  624 is at  -4.241697  4.372367  2.937827
      ESP Fit Center  625 is at  -4.559258  3.395016  2.937827
      ESP Fit Center  626 is at  -4.241697  2.417665  2.937827
      ESP Fit Center  627 is at  -3.856489  5.057785  1.977827
      ESP Fit Center  628 is at  -4.559258  4.355016  1.977827
      ESP Fit Center  629 is at  -4.816489  3.395016  1.977827
      ESP Fit Center  630 is at  -4.559258  2.435016  1.977827
      ESP Fit Center  631 is at  -3.410313  4.976403  1.017827
      ESP Fit Center  632 is at  -4.241697  4.372367  1.017827
      ESP Fit Center  633 is at  -4.559258  3.395016  1.017827
      ESP Fit Center  634 is at  -3.376489  4.226400  0.315058
      ESP Fit Center  635 is at  -3.856489  3.395016  0.315058
      ESP Fit Center  636 is at   0.640741  3.466464  0.611523
      ESP Fit Center  637 is at   0.123882  3.480974 -0.286647
      ESP Fit Center  638 is at  -0.751770  4.117172 -0.286647
      ESP Fit Center  639 is at  -1.834134  4.117172 -0.286647
      ESP Fit Center  640 is at  -2.709786  3.480974 -0.286647
      ESP Fit Center  641 is at  -0.807002  3.293274 -0.908200
      ESP Fit Center  642 is at  -1.778902  3.293274 -0.908200
      ESP Fit Center  643 is at  -3.931074  1.438410  2.190882
      ESP Fit Center  644 is at  -4.633843  1.438410  1.488113
      ESP Fit Center  645 is at  -4.316282  0.461059  1.488113
      ESP Fit Center  646 is at  -4.633843  2.398410  0.528113
      ESP Fit Center  647 is at  -4.891074  1.438410  0.528113
      ESP Fit Center  648 is at  -4.633843  0.478410  0.528113
      ESP Fit Center  649 is at  -3.931074 -0.224359  0.528113
      ESP Fit Center  650 is at  -3.484898  3.019797 -0.431887
      ESP Fit Center  651 is at  -4.316282  2.415761 -0.431887
      ESP Fit Center  652 is at  -4.633843  1.438410 -0.431887
      ESP Fit Center  653 is at  -4.316282  0.461059 -0.431887
      ESP Fit Center  654 is at  -3.451074  2.269794 -1.134656
      ESP Fit Center  655 is at  -3.931074  1.438410 -1.134656
      ESP Fit Center  656 is at  -1.936478  0.588902  3.593572
      ESP Fit Center  657 is at  -0.976478  0.588902  3.336341
      ESP Fit Center  658 is at  -2.896478  0.588902  3.336341
      ESP Fit Center  659 is at  -2.416478 -0.242482  3.336341
      ESP Fit Center  660 is at  -1.456478 -0.242482  3.336341
      ESP Fit Center  661 is at  -0.273709  0.588902  2.633572
      ESP Fit Center  662 is at  -3.599247  0.588902  2.633572
      ESP Fit Center  663 is at  -3.281686 -0.388449  2.633572
      ESP Fit Center  664 is at  -2.450302 -0.992485  2.633572
      ESP Fit Center  665 is at  -1.422654 -0.992485  2.633572
      ESP Fit Center  666 is at  -0.591270 -0.388449  2.633572
      ESP Fit Center  667 is at  -3.599247 -0.371098  1.673572
      ESP Fit Center  668 is at  -2.896478 -1.073867  1.673572
      ESP Fit Center  669 is at  -1.936478 -1.331098  1.673572
      ESP Fit Center  670 is at  -1.498308 -1.294127  1.149933
      ESP Fit Center  671 is at  -3.031657  1.091812 -1.842819
      ESP Fit Center  672 is at  -0.710609 -0.338640 -2.508768
      ESP Fit Center  673 is at  -0.156151  2.927007 -1.168573
      ESP Fit Center  674 is at  -1.116151  3.184238 -1.168573
      ESP Fit Center  675 is at  -2.076151  2.927007 -1.168573
      ESP Fit Center  676 is at  -0.602327  2.845625 -2.128573
      ESP Fit Center  677 is at  -1.629975  2.845625 -2.128573
      ESP Fit Center  678 is at  -2.461359  2.241589 -2.128573
      ESP Fit Center  679 is at  -2.778920  1.264238 -2.128573
      ESP Fit Center  680 is at  -0.156151  1.264238 -2.831342
      ESP Fit Center  681 is at  -0.636151  2.095622 -2.831342
      ESP Fit Center  682 is at  -1.596151  2.095622 -2.831342
      ESP Fit Center  683 is at  -2.076151  1.264238 -2.831342
      ESP Fit Center  684 is at  -1.596151  0.432854 -2.831342
      ESP Fit Center  685 is at  -0.636151  0.432854 -2.831342
      ESP Fit Center  686 is at  -1.116151  1.264238 -3.088573
      ESP Fit Center  687 is at  -3.197661 -1.233917  0.272205
      ESP Fit Center  688 is at  -2.366277 -1.837953  0.272205
      ESP Fit Center  689 is at  -1.338629 -1.837953  0.272205
      ESP Fit Center  690 is at  -3.772453 -0.256566 -0.687795
      ESP Fit Center  691 is at  -3.515222 -1.216566 -0.687795
      ESP Fit Center  692 is at  -2.812453 -1.919335 -0.687795
      ESP Fit Center  693 is at  -1.852453 -2.176566 -0.687795
      ESP Fit Center  694 is at  -3.515222 -0.256566 -1.647795
      ESP Fit Center  695 is at  -3.197661 -1.233917 -1.647795
      ESP Fit Center  696 is at  -2.366277 -1.837953 -1.647795
      ESP Fit Center  697 is at  -1.338629 -1.837953 -1.647795
      ESP Fit Center  698 is at  -2.812453 -0.256566 -2.350564
      ESP Fit Center  699 is at  -2.332453 -1.087950 -2.350564
      ESP Fit Center  700 is at  -1.372453 -1.087950 -2.350564
      ESP Fit Center  701 is at  -1.852453 -0.256566 -2.607795
      ESP Fit Center  702 is at   0.000000  0.000000  2.240000
      ESP Fit Center  703 is at  -0.485950 -0.841690  2.018170
      ESP Fit Center  704 is at   0.485950 -0.841690  2.018170
      ESP Fit Center  705 is at  -0.541182 -1.665588  1.396617
      ESP Fit Center  706 is at   0.541182 -1.665588  1.396617
      ESP Fit Center  707 is at  -0.774400 -2.041924  0.498447
      ESP Fit Center  708 is at   0.594940 -0.055968  2.162325
      ESP Fit Center  709 is at   2.574458  2.675192  0.534050
      ESP Fit Center  710 is at   2.574458  2.675192 -0.534050
      ESP Fit Center  711 is at   1.111959  1.477949  2.801682
      ESP Fit Center  712 is at   2.071959  1.477949  2.544451
      ESP Fit Center  713 is at   1.591959  2.309333  2.544451
      ESP Fit Center  714 is at   0.631959  2.309333  2.544451
      ESP Fit Center  715 is at   0.151959  1.477949  2.544451
      ESP Fit Center  716 is at   0.631959  0.646565  2.544451
      ESP Fit Center  717 is at   1.591959  0.646565  2.544451
      ESP Fit Center  718 is at   2.457167  2.455300  1.841682
      ESP Fit Center  719 is at   1.625783  3.059336  1.841682
      ESP Fit Center  720 is at   2.774728  2.437949  0.881682
      ESP Fit Center  721 is at   2.071959  3.140718  0.881682
      ESP Fit Center  722 is at   1.111959  3.397949  0.881682
      ESP Fit Center  723 is at   2.762855  2.450784 -0.873675
      ESP Fit Center  724 is at   2.060086  3.153553 -0.873675
      ESP Fit Center  725 is at   1.100086  3.410784 -0.873675
      ESP Fit Center  726 is at   0.140086  3.153553 -0.873675
      ESP Fit Center  727 is at   2.445294  2.468135 -1.833675
      ESP Fit Center  728 is at   1.613910  3.072171 -1.833675
      ESP Fit Center  729 is at   0.586262  3.072171 -1.833675
      ESP Fit Center  730 is at   1.580086  2.322168 -2.536444
      ESP Fit Center  731 is at   0.620086  2.322168 -2.536444
      ESP Fit Center  732 is at   0.620086  0.659400 -2.536444
      ESP Fit Center  733 is at   1.100086  1.490784 -2.793675
      ESP Fit Center  734 is at   2.897605  0.901810  2.162325
      ESP Fit Center  735 is at   2.365963 -0.684312  2.760149
      ESP Fit Center  736 is at   3.325963 -0.684312  2.502918
      ESP Fit Center  737 is at   2.845963  0.147072  2.502918
      ESP Fit Center  738 is at   1.885963  0.147072  2.502918
      ESP Fit Center  739 is at   1.405963 -0.684312  2.502918
      ESP Fit Center  740 is at   1.885963 -1.515696  2.502918
      ESP Fit Center  741 is at   2.845963 -1.515696  2.502918
      ESP Fit Center  742 is at   4.028732 -0.684312  1.800149
      ESP Fit Center  743 is at   1.020755 -1.661663  1.800149
      ESP Fit Center  744 is at   1.852139 -2.265699  1.800149
      ESP Fit Center  745 is at   2.879787 -2.265699  1.800149
      ESP Fit Center  746 is at   3.711171 -1.661663  1.800149
      ESP Fit Center  747 is at   4.028732 -1.644312  0.840149
      ESP Fit Center  748 is at   4.194088  0.652253  1.786806
      ESP Fit Center  749 is at   3.714088  1.483637  1.786806
      ESP Fit Center  750 is at   4.896857  0.652253  1.084037
      ESP Fit Center  751 is at   4.579296  1.629604  1.084037
      ESP Fit Center  752 is at   3.747912  2.233640  1.084037
      ESP Fit Center  753 is at   4.579296 -0.325098  1.084037
      ESP Fit Center  754 is at   5.154088  0.652253  0.124037
      ESP Fit Center  755 is at   4.896857  1.612253  0.124037
      ESP Fit Center  756 is at   4.194088  2.315022  0.124037
      ESP Fit Center  757 is at   3.234088  2.572253  0.124037
      ESP Fit Center  758 is at   4.896857 -0.307747  0.124037
      ESP Fit Center  759 is at   4.579296  1.629604 -0.835963
      ESP Fit Center  760 is at   3.747912  2.233640 -0.835963
      ESP Fit Center  761 is at   4.677162 -0.933631  0.454330
      ESP Fit Center  762 is at   4.411906 -1.923580  0.454330
      ESP Fit Center  763 is at   5.284126 -0.933631 -0.454055
      ESP Fit Center  764 is at   5.060480  0.118541 -0.454055
      ESP Fit Center  765 is at   4.428212 -2.856045 -0.454055
      ESP Fit Center  766 is at   5.060480 -1.985803 -0.454055
      ESP Fit Center  767 is at   5.497263 -0.933631 -1.525569
      ESP Fit Center  768 is at   5.308185  0.077846 -1.525569
      ESP Fit Center  769 is at   4.766488  0.952717 -1.525569
      ESP Fit Center  770 is at   3.945330  1.572826 -1.525569
      ESP Fit Center  771 is at   2.955614  1.854425 -1.525569
      ESP Fit Center  772 is at   4.766488 -2.819979 -1.525569
      ESP Fit Center  773 is at   5.308185 -1.945108 -1.525569
      ESP Fit Center  774 is at   5.284126 -0.933631 -2.597083
      ESP Fit Center  775 is at   5.060480  0.118541 -2.597083
      ESP Fit Center  776 is at   4.428212  0.988783 -2.597083
      ESP Fit Center  777 is at   3.496648  1.526622 -2.597083
      ESP Fit Center  778 is at   2.426862  1.639061 -2.597083
      ESP Fit Center  779 is at   0.604447  0.586889 -2.597083
      ESP Fit Center  780 is at   0.166929 -0.395792 -2.597083
      ESP Fit Center  781 is at   5.060480 -1.985803 -2.597083
      ESP Fit Center  782 is at   4.677162 -0.933631 -3.505468
      ESP Fit Center  783 is at   4.411906  0.056318 -3.505468
      ESP Fit Center  784 is at   3.687212  0.781012 -3.505468
      ESP Fit Center  785 is at   2.697263  1.046268 -3.505468
      ESP Fit Center  786 is at   1.707314  0.781012 -3.505468
      ESP Fit Center  787 is at   0.982620  0.056318 -3.505468
      ESP Fit Center  788 is at   4.411906 -1.923580 -3.505468
      ESP Fit Center  789 is at   3.793569 -3.443443 -0.746815
      ESP Fit Center  790 is at   1.997430 -2.890386  1.569804
      ESP Fit Center  791 is at   2.957430 -2.890386  1.312573
      ESP Fit Center  792 is at   1.037430 -2.890386  1.312573
      ESP Fit Center  793 is at   1.517430 -3.721770  1.312573
      ESP Fit Center  794 is at   2.477430 -3.721770  1.312573
      ESP Fit Center  795 is at   3.660199 -2.890386  0.609804
      ESP Fit Center  796 is at   0.652222 -3.867737  0.609804
      ESP Fit Center  797 is at   1.483606 -4.471773  0.609804
      ESP Fit Center  798 is at   2.511254 -4.471773  0.609804
      ESP Fit Center  799 is at   3.342638 -3.867737  0.609804
      ESP Fit Center  800 is at   2.957430 -4.553155 -0.350196
      ESP Fit Center  801 is at   3.660199 -3.850386 -0.350196
      ESP Fit Center  802 is at  -1.014524 -2.147998 -0.229969
      ESP Fit Center  803 is at  -0.696963 -3.125349 -0.229969
      ESP Fit Center  804 is at  -1.271755 -2.147998 -1.189969
      ESP Fit Center  805 is at  -1.014524 -3.107998 -1.189969
      ESP Fit Center  806 is at  -0.311755 -3.810767 -1.189969
      ESP Fit Center  807 is at  -0.696963 -1.170647 -2.149969
      ESP Fit Center  808 is at  -1.014524 -2.147998 -2.149969
      ESP Fit Center  809 is at   3.450748 -4.458190 -0.912902
      ESP Fit Center  810 is at   0.497758 -4.387431 -0.412677
      ESP Fit Center  811 is at   0.977758 -5.218815 -0.412677
      ESP Fit Center  812 is at   1.937758 -5.218815 -0.412677
      ESP Fit Center  813 is at  -0.205011 -4.387431 -1.115446
      ESP Fit Center  814 is at   0.112550 -5.364782 -1.115446
      ESP Fit Center  815 is at   0.943934 -5.968818 -1.115446
      ESP Fit Center  816 is at   1.971582 -5.968818 -1.115446
      ESP Fit Center  817 is at   2.802966 -5.364782 -1.115446
      ESP Fit Center  818 is at  -0.205011 -5.347431 -2.075446
      ESP Fit Center  819 is at   0.497758 -6.050200 -2.075446
      ESP Fit Center  820 is at   1.457758 -6.307431 -2.075446
      ESP Fit Center  821 is at   2.417758 -6.050200 -2.075446
      ESP Fit Center  822 is at   0.943934 -5.968818 -3.035446
      ESP Fit Center  823 is at   1.971582 -5.968818 -3.035446
      ESP Fit Center  824 is at   3.883244 -3.619195 -0.942363
      ESP Fit Center  825 is at   4.586013 -3.619195 -1.645132
      ESP Fit Center  826 is at   3.437068 -5.200582 -1.645132
      ESP Fit Center  827 is at   4.268452 -4.596546 -1.645132
      ESP Fit Center  828 is at   4.843244 -3.619195 -2.605132
      ESP Fit Center  829 is at   3.883244 -5.281964 -2.605132
      ESP Fit Center  830 is at   4.586013 -4.579195 -2.605132
      ESP Fit Center  831 is at   3.437068 -5.200582 -3.565132
      ESP Fit Center  832 is at  -0.976250 -3.083156 -1.990203
      ESP Fit Center  833 is at  -0.710994 -4.073105 -1.990203
      ESP Fit Center  834 is at  -0.289782 -0.842867 -2.898588
      ESP Fit Center  835 is at  -1.089167 -1.562636 -2.898588
      ESP Fit Center  836 is at  -1.526685 -2.545317 -2.898588
      ESP Fit Center  837 is at  -1.526685 -3.620995 -2.898588
      ESP Fit Center  838 is at  -1.089167 -4.603676 -2.898588
      ESP Fit Center  839 is at  -0.289782 -5.323445 -2.898588
      ESP Fit Center  840 is at   0.237393 -0.390044 -3.970102
      ESP Fit Center  841 is at  -0.683728 -0.848708 -3.970102
      ESP Fit Center  842 is at  -1.376959 -1.609146 -3.970102
      ESP Fit Center  843 is at  -1.748676 -2.568657 -3.970102
      ESP Fit Center  844 is at  -1.748676 -3.597655 -3.970102
      ESP Fit Center  845 is at  -1.376959 -4.557166 -3.970102
      ESP Fit Center  846 is at  -0.683728 -5.317604 -3.970102
      ESP Fit Center  847 is at   0.237393 -5.776268 -3.970102
      ESP Fit Center  848 is at   1.262000 -5.871212 -3.970102
      ESP Fit Center  849 is at   2.251716 -5.589613 -3.970102
      ESP Fit Center  850 is at  -0.289782 -0.842867 -5.041616
      ESP Fit Center  851 is at  -1.089167 -1.562636 -5.041616
      ESP Fit Center  852 is at  -1.526685 -2.545317 -5.041616
      ESP Fit Center  853 is at  -1.526685 -3.620995 -5.041616
      ESP Fit Center  854 is at  -1.089167 -4.603676 -5.041616
      ESP Fit Center  855 is at  -0.289782 -5.323445 -5.041616
      ESP Fit Center  856 is at   0.733248 -5.655848 -5.041616
      ESP Fit Center  857 is at  -0.710994 -2.093207 -5.950001
      ESP Fit Center  858 is at  -0.976250 -3.083156 -5.950001
      ESP Fit Center  859 is at  -0.710994 -4.073105 -5.950001
      ESP Fit Center  860 is at   0.013700 -4.797799 -5.950001
      ESP Fit Center  861 is at  -0.067865 -3.083156 -6.556965
      ESP Fit Center  862 is at   3.033170 -0.502420 -6.457519
      ESP Fit Center  863 is at   4.654029 -1.462226 -4.343632
      ESP Fit Center  864 is at   4.396798 -0.502226 -4.343632
      ESP Fit Center  865 is at   3.694029  0.200543 -4.343632
      ESP Fit Center  866 is at   2.734029  0.457774 -4.343632
      ESP Fit Center  867 is at   1.774029  0.200543 -4.343632
      ESP Fit Center  868 is at   4.079237 -0.484875 -5.303632
      ESP Fit Center  869 is at   3.247853  0.119161 -5.303632
      ESP Fit Center  870 is at   1.690516  0.244512 -5.716028
      ESP Fit Center  871 is at   0.730516 -0.012719 -5.716028
      ESP Fit Center  872 is at   0.027747 -0.715488 -5.716028
      ESP Fit Center  873 is at   3.035724 -0.698137 -6.676028
      ESP Fit Center  874 is at   2.204340 -0.094101 -6.676028
      ESP Fit Center  875 is at   1.176692 -0.094101 -6.676028
      ESP Fit Center  876 is at   0.345308 -0.698137 -6.676028
      ESP Fit Center  877 is at   0.027747 -1.675488 -6.676028
      ESP Fit Center  878 is at   0.345308 -2.652839 -6.676028
      ESP Fit Center  879 is at   4.893670 -2.083973 -4.116753
      ESP Fit Center  880 is at   5.423257 -4.113642 -6.147179
      ESP Fit Center  881 is at   5.789689 -2.476461 -5.016493
      ESP Fit Center  882 is at   5.472128 -1.499110 -5.016493
      ESP Fit Center  883 is at   4.640744 -0.895074 -5.016493
      ESP Fit Center  884 is at   6.046920 -2.476461 -5.976493
      ESP Fit Center  885 is at   5.789689 -1.516461 -5.976493
      ESP Fit Center  886 is at   5.086920 -0.813692 -5.976493
      ESP Fit Center  887 is at   4.126920 -0.556461 -5.976493
      ESP Fit Center  888 is at   5.789689 -3.436461 -5.976493
      ESP Fit Center  889 is at   5.789689 -2.476461 -6.936493
      ESP Fit Center  890 is at   5.472128 -1.499110 -6.936493
      ESP Fit Center  891 is at   4.640744 -0.895074 -6.936493
      ESP Fit Center  892 is at   3.613096 -0.895074 -6.936493
      ESP Fit Center  893 is at   5.472128 -3.453812 -6.936493
      ESP Fit Center  894 is at   5.406331 -3.774267 -3.924123
      ESP Fit Center  895 is at   5.088770 -2.796916 -3.924123
      ESP Fit Center  896 is at   3.229738 -5.355654 -3.924123
      ESP Fit Center  897 is at   4.257386 -5.355654 -3.924123
      ESP Fit Center  898 is at   5.088770 -4.751618 -3.924123
      ESP Fit Center  899 is at   5.663562 -3.774267 -4.884123
      ESP Fit Center  900 is at   4.703562 -5.437036 -4.884123
      ESP Fit Center  901 is at   5.406331 -4.734267 -4.884123
      ESP Fit Center  902 is at   1.752951 -5.859316 -5.003328
      ESP Fit Center  903 is at   2.742900 -6.124572 -5.003328
      ESP Fit Center  904 is at   3.732849 -5.859316 -5.003328
      ESP Fit Center  905 is at   0.650084 -5.665193 -5.911713
      ESP Fit Center  906 is at   1.449469 -6.384962 -5.911713
      ESP Fit Center  907 is at   2.472499 -6.717365 -5.911713
      ESP Fit Center  908 is at   3.542285 -6.604926 -5.911713
      ESP Fit Center  909 is at   4.473849 -6.067087 -5.911713
      ESP Fit Center  910 is at   5.106117 -5.196845 -5.911713
      ESP Fit Center  911 is at   5.542900 -4.144673 -6.983227
      ESP Fit Center  912 is at   0.362292 -2.670663 -6.983227
      ESP Fit Center  913 is at  -0.009425 -3.630174 -6.983227
      ESP Fit Center  914 is at  -0.009425 -4.659172 -6.983227
      ESP Fit Center  915 is at   0.362292 -5.618683 -6.983227
      ESP Fit Center  916 is at   1.055523 -6.379121 -6.983227
      ESP Fit Center  917 is at   1.976644 -6.837785 -6.983227
      ESP Fit Center  918 is at   3.001251 -6.932729 -6.983227
      ESP Fit Center  919 is at   3.990967 -6.651130 -6.983227
      ESP Fit Center  920 is at   4.812125 -6.031021 -6.983227
      ESP Fit Center  921 is at   5.353822 -5.156150 -6.983227
      ESP Fit Center  922 is at   5.329763 -4.144673 -8.054741
      ESP Fit Center  923 is at   0.212566 -4.682512 -8.054741
      ESP Fit Center  924 is at   0.650084 -5.665193 -8.054741
      ESP Fit Center  925 is at   1.449469 -6.384962 -8.054741
      ESP Fit Center  926 is at   2.472499 -6.717365 -8.054741
      ESP Fit Center  927 is at   3.542285 -6.604926 -8.054741
      ESP Fit Center  928 is at   4.473849 -6.067087 -8.054741
      ESP Fit Center  929 is at   5.106117 -5.196845 -8.054741
      ESP Fit Center  930 is at   4.722799 -4.144673 -8.963126
      ESP Fit Center  931 is at   2.742900 -6.124572 -8.963126
      ESP Fit Center  932 is at   3.226498 -0.661069 -7.813888
      ESP Fit Center  933 is at   3.226498 -0.661069 -8.881988
      ESP Fit Center  934 is at   2.438799 -1.084935 -9.844314
      ESP Fit Center  935 is at   2.530481 -0.559277 -7.150649
      ESP Fit Center  936 is at   0.353888 -2.140664 -7.150649
      ESP Fit Center  937 is at   2.976657 -0.477895 -8.110649
      ESP Fit Center  938 is at   2.016657 -0.220664 -8.110649
      ESP Fit Center  939 is at   1.056657 -0.477895 -8.110649
      ESP Fit Center  940 is at   0.353888 -1.180664 -8.110649
      ESP Fit Center  941 is at   0.096657 -2.140664 -8.110649
      ESP Fit Center  942 is at   2.530481 -0.559277 -9.070649
      ESP Fit Center  943 is at   1.502833 -0.559277 -9.070649
      ESP Fit Center  944 is at   0.671449 -1.163313 -9.070649
      ESP Fit Center  945 is at   0.353888 -2.140664 -9.070649
      ESP Fit Center  946 is at   5.356014 -2.510287 -7.504958
      ESP Fit Center  947 is at   5.038453 -1.532936 -7.504958
      ESP Fit Center  948 is at   4.207069 -0.928900 -7.504958
      ESP Fit Center  949 is at   5.613245 -2.510287 -8.464958
      ESP Fit Center  950 is at   5.356014 -1.550287 -8.464958
      ESP Fit Center  951 is at   4.653245 -0.847518 -8.464958
      ESP Fit Center  952 is at   3.693245 -0.590287 -8.464958
      ESP Fit Center  953 is at   5.356014 -3.470287 -8.464958
      ESP Fit Center  954 is at   5.356014 -2.510287 -9.424958
      ESP Fit Center  955 is at   5.038453 -1.532936 -9.424958
      ESP Fit Center  956 is at   4.207069 -0.928900 -9.424958
      ESP Fit Center  957 is at   5.038453 -3.487638 -9.424958
      ESP Fit Center  958 is at   4.653245 -2.510287-10.127727
      ESP Fit Center  959 is at   4.173245 -1.678903-10.127727
      ESP Fit Center  960 is at   1.754303 -5.912387 -9.105863
      ESP Fit Center  961 is at   0.166852 -2.616011-10.173963
      ESP Fit Center  962 is at   1.754303 -5.912387-10.173963
      ESP Fit Center  963 is at   1.754303 -4.533034-11.802238
      ESP Fit Center  964 is at  -0.062522 -3.080302 -8.583490
      ESP Fit Center  965 is at  -0.380083 -4.057653 -8.583490
      ESP Fit Center  966 is at  -0.062522 -5.035004 -8.583490
      ESP Fit Center  967 is at   0.768862 -5.639040 -8.583490
      ESP Fit Center  968 is at  -0.380083 -3.097653 -9.543490
      ESP Fit Center  969 is at  -0.637314 -4.057653 -9.543490
      ESP Fit Center  970 is at  -0.380083 -5.017653 -9.543490
      ESP Fit Center  971 is at   0.322686 -5.720422 -9.543490
      ESP Fit Center  972 is at   1.282686 -5.977653 -9.543490
      ESP Fit Center  973 is at  -0.062522 -3.080302-10.503490
      ESP Fit Center  974 is at  -0.380083 -4.057653-10.503490
      ESP Fit Center  975 is at  -0.062522 -5.035004-10.503490
      ESP Fit Center  976 is at   0.768862 -5.639040-10.503490
      ESP Fit Center  977 is at   0.322686 -4.057653-11.206259
      ESP Fit Center  978 is at   0.802686 -4.889037-11.206259
      ESP Fit Center  979 is at   3.919227 -1.954437-10.454582
      ESP Fit Center  980 is at   3.216458 -1.251668-10.454582
      ESP Fit Center  981 is at   2.256458 -0.994437-10.454582
      ESP Fit Center  982 is at   1.296458 -1.251668-10.454582
      ESP Fit Center  983 is at   0.593689 -1.954437-10.454582
      ESP Fit Center  984 is at   3.919227 -2.914437-11.414582
      ESP Fit Center  985 is at   3.601666 -1.937086-11.414582
      ESP Fit Center  986 is at   2.770282 -1.333050-11.414582
      ESP Fit Center  987 is at   1.742634 -1.333050-11.414582
      ESP Fit Center  988 is at   0.911250 -1.937086-11.414582
      ESP Fit Center  989 is at   0.593689 -2.914437-11.414582
      ESP Fit Center  990 is at   3.216458 -2.914437-12.117351
      ESP Fit Center  991 is at   2.736458 -2.083053-12.117351
      ESP Fit Center  992 is at   1.776458 -2.083053-12.117351
      ESP Fit Center  993 is at   1.296458 -2.914437-12.117351
      ESP Fit Center  994 is at   1.776458 -3.745821-12.117351
      ESP Fit Center  995 is at   2.736458 -3.745821-12.117351
      ESP Fit Center  996 is at   2.256458 -2.914437-12.374582
      ESP Fit Center  997 is at   3.475087 -6.008767 -8.946310
      ESP Fit Center  998 is at   4.306471 -5.404731 -8.946310
      ESP Fit Center  999 is at   4.881263 -4.427380 -9.906310
      ESP Fit Center 1000 is at   2.001263 -6.090149 -9.906310
      ESP Fit Center 1001 is at   2.961263 -6.347380 -9.906310
      ESP Fit Center 1002 is at   3.921263 -6.090149 -9.906310
      ESP Fit Center 1003 is at   4.624032 -5.387380 -9.906310
      ESP Fit Center 1004 is at   4.624032 -4.427380-10.866310
      ESP Fit Center 1005 is at   2.447439 -6.008767-10.866310
      ESP Fit Center 1006 is at   3.475087 -6.008767-10.866310
      ESP Fit Center 1007 is at   4.306471 -5.404731-10.866310
      ESP Fit Center 1008 is at   3.921263 -4.427380-11.569079
      ESP Fit Center 1009 is at   2.481263 -5.258764-11.569079
      ESP Fit Center 1010 is at   3.441263 -5.258764-11.569079
      ESP Fit Center 1011 is at   2.961263 -4.427380-11.826310
      ESP Fit Center 1012 is at  -1.991700  7.846473  7.521689
      ESP Fit Center 1013 is at  -2.970246  7.399585  7.521689
      ESP Fit Center 1014 is at  -3.551847  6.494598  7.521689
      ESP Fit Center 1015 is at  -2.970246  4.513849  7.521689
      ESP Fit Center 1016 is at   0.527450  7.039029  6.645746
      ESP Fit Center 1017 is at  -0.164714  7.906976  6.645746
      ESP Fit Center 1018 is at  -3.275274  7.906976  6.645746
      ESP Fit Center 1019 is at  -3.629182  7.865905  5.612501
      ESP Fit Center 1020 is at  -3.859280  5.729750  7.525186
      ESP Fit Center 1021 is at  -3.319280  4.794443  7.525186
      ESP Fit Center 1022 is at  -4.004272  7.143466  6.734571
      ESP Fit Center 1023 is at  -4.574122  6.256763  6.734571
      ESP Fit Center 1024 is at  -4.574122  5.202737  6.734571
      ESP Fit Center 1025 is at  -4.004272  4.316034  6.734571
      ESP Fit Center 1026 is at  -3.045496  3.878175  6.734571
      ESP Fit Center 1027 is at  -4.396063  7.162095  5.654571
      ESP Fit Center 1028 is at  -4.876514  6.246672  5.654571
      ESP Fit Center 1029 is at  -4.876514  5.212828  5.654571
      ESP Fit Center 1030 is at  -4.396063  4.297405  5.654571
      ESP Fit Center 1031 is at  -3.545227  3.710115  5.654571
      ESP Fit Center 1032 is at  -4.004272  7.143466  4.574571
      ESP Fit Center 1033 is at  -4.574122  6.256763  4.574571
      ESP Fit Center 1034 is at  -4.574122  5.202737  4.574571
      ESP Fit Center 1035 is at  -4.004272  4.316034  4.574571
      ESP Fit Center 1036 is at  -1.301246  5.839177  8.767136
      ESP Fit Center 1037 is at  -0.221246  5.839177  8.477751
      ESP Fit Center 1038 is at  -0.761246  6.774484  8.477751
      ESP Fit Center 1039 is at  -1.841246  6.774484  8.477751
      ESP Fit Center 1040 is at  -2.381246  5.839177  8.477751
      ESP Fit Center 1041 is at  -1.841246  4.903870  8.477751
      ESP Fit Center 1042 is at  -0.761246  4.903870  8.477751
      ESP Fit Center 1043 is at   0.569369  5.839177  7.687136
      ESP Fit Center 1044 is at   0.272415  6.850508  7.687136
      ESP Fit Center 1045 is at  -0.524164  7.540748  7.687136
      ESP Fit Center 1046 is at  -1.567462  7.690752  7.687136
      ESP Fit Center 1047 is at  -2.526238  4.425461  7.687136
      ESP Fit Center 1048 is at  -1.567462  3.987602  7.687136
[...]
 1294 Fit      -0.006027
 1295 Fit      -0.008370
 1296 Fit      -0.011648
 1297 Fit      -0.015804
 1298 Fit      -0.021460
 1299 Fit       0.006133
 1300 Fit       0.007737
 1301 Fit       0.008105
 1302 Fit       0.001783
 1303 Fit       0.006268
 1304 Fit       0.007751
 1305 Fit       0.001672
 1306 Fit       0.005749
 1307 Fit       0.007903
 1308 Fit       0.007715
 1309 Fit       0.005645
 1310 Fit       0.007554
 1311 Fit       0.003077
 1312 Fit      -0.002652
 1313 Fit       0.001043
 1314 Fit      -0.001810
 1315 Fit       0.000154
 1316 Fit       0.006730
 1317 Fit       0.005378
 1318 Fit      -0.006279
 1319 Fit       0.008086
 1320 Fit       0.008779
 1321 Fit       0.004665
 1322 Fit       0.005343
 1323 Fit       0.005788
 1324 Fit       0.005909
 1325 Fit      -0.000173
 1326 Fit       0.000854
 1327 Fit       0.001656
 1328 Fit       0.002672
 1329 Fit      -0.008209
 1330 Fit      -0.004654
 1331 Fit      -0.000892
 1332 Fit       0.005202
 1333 Fit       0.004445
 1334 Fit       0.003752
 1335 Fit       0.005284
 1336 Fit       0.006525
 1337 Fit       0.000880
 1338 Fit      -0.013177
 1339 Fit      -0.011277
 1340 Fit      -0.008746
 1341 Fit      -0.005694
 1342 Fit      -0.021928
 1343 Fit      -0.020137
 1344 Fit      -0.018906
 1345 Fit      -0.017695
 1346 Fit      -0.016586
 1347 Fit      -0.016000
 1348 Fit      -0.015556
 1349 Fit      -0.014158
 1350 Fit      -0.010993
 1351 Fit      -0.014476
 1352 Fit      -0.017032
 1353 Fit      -0.018988
 1354 Fit      -0.020045
 1355 Fit      -0.020724
 1356 Fit      -0.021842
 1357 Fit      -0.023851
 1358 Fit      -0.026235
 1359 Fit      -0.027411
 1360 Fit      -0.024782
 1361 Fit      -0.012225
 1362 Fit      -0.016717
 1363 Fit      -0.020455
 1364 Fit      -0.024752
 1365 Fit      -0.030239
 1366 Fit      -0.036430
 1367 Fit      -0.009998
 1368 Fit      -0.018543
 1369 Fit      -0.028130
 1370 Fit       0.008151
 1371 Fit       0.004657
 1372 Fit      -0.000101
 1373 Fit      -0.003465
 1374 Fit      -0.007406
 1375 Fit      -0.011506
 1376 Fit       0.003124
 1377 Fit       0.001289
 1378 Fit      -0.000323
 1379 Fit      -0.003089
 1380 Fit       0.008301
 1381 Fit       0.006805
 1382 Fit       0.005032
 1383 Fit       0.001536
 1384 Fit      -0.005075
 1385 Fit       0.000481
 1386 Fit       0.002957
 1387 Fit      -0.002773
 1388 Fit       0.003273
 1389 Fit       0.004202
 1390 Fit       0.004934
 1391 Fit       0.003998
 1392 Fit       0.006472
 1393 Fit       0.007620
 1394 Fit       0.008219
 1395 Fit      -0.000428
 1396 Fit       0.005016
 1397 Fit       0.008814
 1398 Fit       0.010279
 1399 Fit       0.011079
 1400 Fit       0.004344
 1401 Fit       0.003142
 1402 Fit       0.000663
 1403 Fit       0.003698
 1404 Fit       0.004700
 1405 Fit       0.001569
 1406 Fit      -0.003237
 1407 Fit      -0.000540
 1408 Fit      -0.013230
 1409 Fit      -0.034638
 1410 Fit      -0.024878
 1411 Fit      -0.018790
 1412 Fit      -0.015007
 1413 Fit      -0.011506
 1414 Fit      -0.007910
 1415 Fit      -0.035699
 1416 Fit      -0.031845
 1417 Fit      -0.026940
 1418 Fit      -0.023345
 1419 Fit      -0.021612
 1420 Fit      -0.020807
 1421 Fit      -0.019155
 1422 Fit      -0.015072
 1423 Fit      -0.010681
 1424 Fit       0.000729
 1425 Fit      -0.012762
 1426 Fit      -0.021651
 1427 Fit      -0.025204
 1428 Fit      -0.025056
 1429 Fit      -0.023445
 1430 Fit      -0.022345
 1431 Fit      -0.022490
 1432 Fit      -0.023082
 1433 Fit      -0.022331
 1434 Fit      -0.018480
 1435 Fit      -0.008719
 1436 Fit      -0.016242
 1437 Fit      -0.017407
 1438 Fit      -0.018186
 1439 Fit      -0.019207
 1440 Fit      -0.019187
 1441 Fit      -0.016133
 1442 Fit       0.010291
 1443 Fit       0.006977
 1444 Fit       0.008040
 1445 Fit       0.007872
 1446 Fit       0.006187
 1447 Fit       0.002301
 1448 Fit      -0.003726
 1449 Fit       0.007027
 1450 Fit       0.006089
 1451 Fit       0.003676
 1452 Fit       0.011109
 1453 Fit       0.004613
 1454 Fit       0.007696
 1455 Fit       0.008323
 1456 Fit       0.007798
 1457 Fit      -0.002434
 1458 Fit       0.004629
 1459 Fit       0.006775
 1460 Fit       0.007199
 1461 Fit       0.000776
 1462 Fit       0.004697
 1463 Fit       0.006657
 1464 Fit       0.003303
 1465 Fit       0.003957
 1466 Fit       0.000315
 1467 Fit      -0.004918
 1468 Fit       0.000722
 1469 Fit      -0.001137
 1470 Fit      -0.002305
 1471 Fit      -0.002486
 1472 Fit      -0.001180
 1473 Fit      -0.000663
 1474 Fit      -0.007066
 1475 Fit      -0.010692
 1476 Fit      -0.014304
 1477 Fit      -0.000294
 1478 Fit      -0.002102
 1479 Fit      -0.003521
 1480 Fit      -0.005359
 1481 Fit      -0.007710
 1482 Fit      -0.000626
 1483 Fit      -0.001336
 1484 Fit      -0.002756
 1485 Fit      -0.004523
 1486 Fit      -0.000965
 1487 Fit      -0.002092
 1488 Fit       0.007172
 1489 Fit       0.007097
 1490 Fit       0.006081
 1491 Fit       0.003685
 1492 Fit       0.002212
 1493 Fit       0.004812
 1494 Fit       0.006152
 1495 Fit       0.005983
 1496 Fit       0.004350
 1497 Fit       0.001803
 1498 Fit       0.002647
 1499 Fit       0.004795
 1500 Fit       0.004432
 1501 Fit       0.002063
 1502 Fit       0.000262
 1503 Fit       0.000498
 1504 Fit       0.002817
 1505 Fit      -0.002061
 1506 Fit      -0.007913
 1507 Fit      -0.007002
 1508 Fit      -0.005927
 1509 Fit      -0.004531
 1510 Fit       0.000229
 1511 Fit      -0.003093
 1512 Fit      -0.001744
 1513 Fit      -0.000669
 1514 Fit       0.000250
 1515 Fit      -0.001652
 1516 Fit      -0.000403
 1517 Fit       0.002139
 1518 Fit       0.001571
 1519 Fit       0.002093
 1520 Fit       0.003304
 1521 Fit       0.004775
 1522 Fit       0.003572
 1523 Fit       0.002331
 1524 Fit       0.001360
 1525 Fit       0.000434
 1526 Fit       0.000477
 1527 Fit       0.006230
 1528 Fit       0.008908
 1529 Fit       0.006195
 1530 Fit       0.003699
 1531 Fit      -0.001029
 1532 Fit      -0.010098
 1533 Fit       0.002921
 1534 Fit       0.000907
 1535 Fit       0.002265
 1536 Fit       0.003563
 1537 Fit       0.004628
 1538 Fit      -0.000774
 1539 Fit       0.000699
 1540 Fit       0.002239
 1541 Fit       0.003575
 1542 Fit       0.004929
 1543 Fit       0.007015
 1544 Fit      -0.003840
 1545 Fit      -0.002070
 1546 Fit      -0.000245
 1547 Fit       0.001398
 1548 Fit       0.003254
 1549 Fit      -0.007571
 1550 Fit      -0.005554
 1551 Fit       0.006274
 1552 Fit       0.007330
 1553 Fit       0.005711
 1554 Fit       0.004495
 1555 Fit       0.004727
 1556 Fit       0.006342
 1557 Fit       0.007737
 1558 Fit       0.007979
 1559 Fit       0.006162
 1560 Fit       0.004360
 1561 Fit       0.003022
 1562 Fit       0.005590
 1563 Fit       0.007775
 1564 Fit       0.009135
 1565 Fit       0.009138
 1566 Fit       0.008799
 1567 Fit       0.006330
 1568 Fit       0.010705
 1569 Fit       0.002347
 1570 Fit       0.001474
 1571 Fit       0.003619
 1572 Fit       0.002625
 1573 Fit       0.001939
 1574 Fit       0.000903
 1575 Fit      -0.000574
 1576 Fit       0.002481
 1577 Fit       0.001402
 1578 Fit       0.000600
 1579 Fit      -0.000710
 1580 Fit      -0.002752
 1581 Fit      -0.002278
 1582 Fit      -0.002843
 1583 Fit      -0.004421
 1584 Fit      -0.007794
 1585 Fit       0.011244
 1586 Fit       0.005718
 1587 Fit       0.011170
 1588 Fit       0.010566
 1589 Fit       0.009362
 1590 Fit       0.008104
 1591 Fit       0.010386
 1592 Fit       0.008984
 1593 Fit       0.007609
 1594 Fit       0.005868
 1595 Fit       0.010938
 1596 Fit       0.010012
 1597 Fit       0.008854
 1598 Fit       0.006828
 1599 Fit       0.004259
 1600 Fit       0.000936
 1601 Fit       0.010572
 1602 Fit       0.005093
 1603 Fit      -0.000272
 1604 Fit       0.009620
 1605 Fit       0.010665
 1606 Fit       0.009538
 1607 Fit       0.010621
 1608 Fit       0.010822
 1609 Fit       0.011023
 1610 Fit       0.008138
 1611 Fit       0.011053
 1612 Fit       0.012282
 1613 Fit       0.011811
 1614 Fit       0.011217
 1615 Fit       0.011928
 1616 Fit      -0.007545
 1617 Fit      -0.017257
 1618 Fit      -0.016660
 1619 Fit      -0.013384
 1620 Fit      -0.011682
 1621 Fit      -0.015501
 1622 Fit      -0.017232
 1623 Fit      -0.016354
 1624 Fit      -0.012142
 1625 Fit      -0.009859
 1626 Fit       0.001559
 1627 Fit      -0.003525
 1628 Fit       0.002979
 1629 Fit      -0.000883
 1630 Fit       0.011702
 1631 Fit       0.011568
 1632 Fit       0.009806
 1633 Fit       0.008410
 1634 Fit       0.010580
 1635 Fit       0.008207
 1636 Fit       0.006287
 1637 Fit       0.003583
 1638 Fit       0.005275
 1639 Fit       0.003866
 1640 Fit      -0.000203
 1641 Fit      -0.003027
 1642 Fit      -0.005567
 1643 Fit      -0.006537
 1644 Fit      -0.004632
 1645 Fit       0.000593
 1646 Fit       0.001524
 1647 Fit       0.000727
 1648 Fit      -0.000407
 1649 Fit      -0.000785
 1650 Fit       0.000242
 1651 Fit      -0.000918
 1652 Fit       0.001033
 1653 Fit       0.000786
 1654 Fit      -0.000310
 1655 Fit      -0.001182
 1656 Fit       0.009464
 1657 Fit       0.010077
 1658 Fit       0.010251
 1659 Fit       0.001206
 1660 Fit       0.011627
 1661 Fit       0.008958
 1662 Fit       0.010408
 1663 Fit       0.010884
 1664 Fit       0.010610
 1665 Fit       0.011442
 1666 Fit       0.007203
 1667 Fit       0.008173
 1668 Fit       0.000922
 1669 Fit       0.005793
 1670 Fit      -0.008086
 1671 Fit       0.000531
 1672 Fit       0.004989
 1673 Fit       0.007959
 1674 Fit      -0.002058
 1675 Fit       0.002692
 1676 Fit       0.006223
 1677 Fit       0.009615
 1678 Fit       0.001866
 1679 Fit       0.005110
 1680 Fit       0.002055
 1681 Fit      -0.006532
 1682 Fit      -0.003279
 1683 Fit       0.010358
 1684 Fit       0.010731
 1685 Fit       0.010139
 1686 Fit       0.002253
 1687 Fit       0.010134
 1688 Fit       0.009293
 1689 Fit       0.009516
 1690 Fit       0.009999
 1691 Fit       0.007121
 1692 Fit       0.008401
 1693 Fit       0.009241
 1694 Fit       0.010016
 1695 Fit       0.011448
 1696 Fit       0.003118
 1697 Fit       0.006638
 1698 Fit       0.008403
 1699 Fit       0.009631
 1700 Fit       0.007417
 1701 Fit       0.009198
 1702 Fit       0.011241
 1703 Fit       0.009297
 1704 Fit       0.007785
 1705 Fit       0.003728
 1706 Fit       0.009958
 1707 Fit       0.008760
 1708 Fit       0.006673
 1709 Fit       0.003634
 1710 Fit       0.001942
 1711 Fit       0.010069
 1712 Fit       0.008641
 1713 Fit       0.005755
 1714 Fit       0.000110
 1715 Fit       0.006373
 1716 Fit       0.007883
 1717 Fit       0.009157
 1718 Fit       0.005299
 1719 Fit      -0.000098
 1720 Fit      -0.007816
 1721 Fit      -0.002186
 1722 Fit      -0.001434
 1723 Fit       0.002797
 1724 Fit       0.001481
 1725 Fit       0.001998
 1726 Fit       0.003713
 1727 Fit       0.005239
 1728 Fit      -0.006257
 1729 Fit       0.000089
 1730 Fit       0.001905
 1731 Fit       0.001218
 1732 Fit      -0.004576
 1733 Fit      -0.011570
 1734 Fit      -0.002389
 1735 Fit       0.008224
 1736 Fit       0.002144
 1737 Fit       0.009502
 1738 Fit       0.006129
 1739 Fit       0.002430
 1740 Fit       0.009729
 1741 Fit       0.006886
 1742 Fit       0.003724
 1743 Fit       0.000184
 1744 Fit       0.006890
 1745 Fit       0.004329
 1746 Fit       0.000295
 1747 Fit      -0.005934
 1748 Fit       0.000784
 1749 Fit      -0.005607
 1750 Fit      -0.003183
 1751 Fit      -0.005009
 1752 Fit      -0.007389
 1753 Fit      -0.004826
 1754 Fit      -0.007670
 1755 Fit       0.000370
 1756 Fit       0.007592
 1757 Fit       0.006278
 1758 Fit       0.007477
 1759 Fit       0.009232
 1760 Fit       0.009950
 1761 Fit       0.003320
 1762 Fit       0.007035
 1763 Fit       0.010577
 1764 Fit       0.009333
 1765 Fit       0.004863
 1766 Fit       0.002611
 1767 Fit      -0.000678
 1768 Fit       0.000229
 1769 Fit       0.001694
 1770 Fit       0.001285
 1771 Fit      -0.002720
 1772 Fit      -0.001047
 1773 Fit       0.009171
 1774 Fit       0.006474
 1775 Fit       0.010924
 1776 Fit       0.001526
 1777 Fit       0.007138
 1778 Fit       0.007221
 1779 Fit       0.008264
 1780 Fit       0.007216
 1781 Fit       0.004098
 1782 Fit       0.005735
 1783 Fit       0.007088
 1784 Fit       0.005647
 1785 Fit       0.002039
 1786 Fit       0.006717
 1787 Fit       0.006967
 1788 Fit       0.005527
 1789 Fit       0.007754
 1790 Fit       0.009880
 1791 Fit       0.006120
 1792 Fit       0.008558
 1793 Fit       0.010375
 1794 Fit       0.003754
 1795 Fit       0.007013
 1796 Fit       0.009019
 1797 Fit       0.010306
 1798 Fit       0.004970
 1799 Fit       0.007442
 1800 Fit       0.008810
 1801 Fit       0.005407
 1802 Fit       0.004412
 1803 Fit       0.000157
 1804 Fit      -0.004612
 1805 Fit      -0.003227
 1806 Fit      -0.006342
 1807 Fit      -0.008800
 1808 Fit      -0.003731
 1809 Fit      -0.001225
 1810 Fit      -0.007494
 1811 Fit      -0.010245
 1812 Fit      -0.010571
 1813 Fit      -0.007298
 1814 Fit      -0.002617
 1815 Fit       0.001779
 1816 Fit       0.004507
 1817 Fit      -0.007800
 1818 Fit      -0.011027
 1819 Fit      -0.009491
 1820 Fit      -0.007792
 1821 Fit      -0.004911
 1822 Fit      -0.002582
 1823 Fit      -0.001672
 1824 Fit      -0.002244
 1825 Fit      -0.008204
 1826 Fit      -0.005467
 1827 Fit      -0.006055
 1828 Fit      -0.005584
 1829 Fit      -0.005708
 1830 Fit      -0.006968
 1831 Fit      -0.009077
 1832 Fit      -0.012462
 1833 Fit      -0.001885
 1834 Fit      -0.004799
 1835 Fit      -0.007538
 1836 Fit      -0.010664
 1837 Fit      -0.003483
 1838 Fit       0.001912
 1839 Fit       0.005716
 1840 Fit       0.006759
 1841 Fit       0.007387
 1842 Fit       0.002094
 1843 Fit       0.005367
 1844 Fit       0.006622
 1845 Fit       0.003198
 1846 Fit       0.000495
 1847 Fit       0.004665
 1848 Fit       0.006424
 1849 Fit       0.006463
 1850 Fit       0.005159
 1851 Fit       0.007365
 1852 Fit       0.005734
 1853 Fit       0.002276
 1854 Fit      -0.003607
 1855 Fit      -0.000603
 1856 Fit       0.001757
 1857 Fit       0.007478
 1858 Fit       0.004780
 1859 Fit       0.002873
 1860 Fit      -0.000144
 1861 Fit       0.006982
 1862 Fit       0.007937
 1863 Fit       0.004175
 1864 Fit       0.004727
 1865 Fit       0.005150
 1866 Fit       0.005480
 1867 Fit       0.000631
 1868 Fit       0.001357
 1869 Fit       0.002001
 1870 Fit       0.002548
 1871 Fit       0.003346
 1872 Fit      -0.005128
 1873 Fit      -0.003636
 1874 Fit      -0.002118
 1875 Fit       0.003161
 1876 Fit      -0.000074
 1877 Fit       0.003958
 1878 Fit       0.003676
 1879 Fit       0.000727
 1880 Fit       0.004596
 1881 Fit      -0.006345
 1882 Fit      -0.005119
 1883 Fit      -0.002544
 1884 Fit      -0.011901
 1885 Fit      -0.011939
 1886 Fit      -0.011653
 1887 Fit      -0.010951
 1888 Fit      -0.010031
 1889 Fit      -0.008558
 1890 Fit      -0.015942
 1891 Fit      -0.014885
 1892 Fit      -0.014883
 1893 Fit      -0.015188
 1894 Fit      -0.015553
 1895 Fit      -0.015889
 1896 Fit      -0.016375
 1897 Fit      -0.017101
 1898 Fit      -0.017778
 1899 Fit      -0.017770
 1900 Fit      -0.016244
 1901 Fit      -0.012100
 1902 Fit      -0.009665
 1903 Fit      -0.012404
 1904 Fit      -0.014572
 1905 Fit      -0.016349
 1906 Fit      -0.018156
 1907 Fit      -0.020392
 1908 Fit      -0.023119
 1909 Fit      -0.025847
 1910 Fit      -0.027388
 1911 Fit      -0.008056
 1912 Fit      -0.012731
 1913 Fit      -0.016806
 1914 Fit      -0.021267
 1915 Fit      -0.026782
 1916 Fit      -0.007785
 1917 Fit      -0.015584
 1918 Fit      -0.024341
 1919 Fit      -0.010945
 1920 Fit      -0.000067
 1921 Fit       0.006042
 1922 Fit       0.003348
 1923 Fit       0.000357
 1924 Fit      -0.002312
 1925 Fit      -0.004851
 1926 Fit      -0.004313
 1927 Fit      -0.006841
 1928 Fit       0.003574
 1929 Fit       0.002173
 1930 Fit       0.000389
 1931 Fit      -0.002780
 1932 Fit       0.007058
 1933 Fit       0.005324
 1934 Fit       0.002169
 1935 Fit       0.001010
 1936 Fit       0.001876
 1937 Fit       0.002653
 1938 Fit       0.004115
 1939 Fit       0.004818
 1940 Fit       0.005222
 1941 Fit       0.003169
 1942 Fit       0.005766
 1943 Fit       0.007047
 1944 Fit       0.007671
 1945 Fit      -0.001773
 1946 Fit       0.004418
 1947 Fit       0.008137
 1948 Fit       0.003552
 1949 Fit       0.001099
 1950 Fit       0.003981
 1951 Fit       0.004432
 1952 Fit       0.001789
 1953 Fit      -0.003072
 1954 Fit      -0.000705
 1955 Fit       0.000864
 1956 Fit      -0.004371
 1957 Fit      -0.010129
 1958 Fit      -0.020847
 1959 Fit      -0.014859
 1960 Fit      -0.010752
 1961 Fit      -0.006883
 1962 Fit      -0.026753
 1963 Fit      -0.021960
 1964 Fit      -0.018617
 1965 Fit      -0.016523
 1966 Fit      -0.014874
 1967 Fit      -0.012635
 1968 Fit      -0.009082
 1969 Fit      -0.007177
 1970 Fit      -0.020283
 1971 Fit      -0.024841
 1972 Fit      -0.025419
 1973 Fit      -0.023830
 1974 Fit      -0.021650
 1975 Fit      -0.019894
 1976 Fit      -0.018932
 1977 Fit      -0.018501
 1978 Fit      -0.017864
 1979 Fit      -0.016143
 1980 Fit      -0.012672
 1981 Fit      -0.007585
 1982 Fit      -0.015443
 1983 Fit      -0.017699
 1984 Fit      -0.018205
 1985 Fit      -0.017865
 1986 Fit      -0.017652
 1987 Fit      -0.017839
 1988 Fit      -0.017878
 1989 Fit      -0.016745
 1990 Fit      -0.013471
 1991 Fit      -0.005158
 1992 Fit      -0.013223
 1993 Fit      -0.013616
 1994 Fit      -0.013720
 1995 Fit      -0.013078
 1996 Fit      -0.010547
 1997 Fit       0.006498
 1998 Fit       0.006381
 1999 Fit       0.006391
 2000 Fit       0.007745
 2001 Fit       0.007422
 2002 Fit       0.006158
 2003 Fit       0.002772
 2004 Fit      -0.003275
 2005 Fit       0.006604
 2006 Fit       0.006284
 2007 Fit       0.005259
 2008 Fit       0.003029
 2009 Fit      -0.000285
 2010 Fit       0.006172
 2011 Fit       0.005087
 2012 Fit       0.003835
 2013 Fit       0.007132
 2014 Fit       0.008019
 2015 Fit       0.007827
 2016 Fit       0.003426
 2017 Fit       0.005823
 2018 Fit       0.006656
 2019 Fit       0.006637
 2020 Fit      -0.001114
 2021 Fit       0.003665
 2022 Fit       0.005464
 2023 Fit       0.006164
 2024 Fit       0.000986
 2025 Fit       0.000728
 2026 Fit       0.000736
 2027 Fit       0.003547
 2028 Fit       0.000708
 2029 Fit      -0.007028
 2030 Fit       0.000873
 2031 Fit       0.002886
 2032 Fit      -0.000368
 2033 Fit      -0.003659
 2034 Fit       0.000740
 2035 Fit      -0.001054
 2036 Fit      -0.002029
 2037 Fit      -0.002165
 2038 Fit      -0.000904
 2039 Fit      -0.000518
 2040 Fit      -0.003276
 2041 Fit      -0.005590
 2042 Fit      -0.007548
 2043 Fit      -0.009695
 2044 Fit      -0.012048
 2045 Fit      -0.001162
 2046 Fit      -0.002299
 2047 Fit      -0.003474
 2048 Fit      -0.004952
 2049 Fit      -0.006554
 2050 Fit      -0.000810
 2051 Fit      -0.001623
 2052 Fit      -0.002740
 2053 Fit       0.004600
 2054 Fit       0.005686
 2055 Fit       0.005878
 2056 Fit       0.005298
 2057 Fit       0.003825
 2058 Fit       0.001691
 2059 Fit       0.001983
 2060 Fit       0.003894
 2061 Fit       0.004913
 2062 Fit       0.004771
 2063 Fit       0.003533
 2064 Fit       0.001637
 2065 Fit       0.002186
 2066 Fit       0.003707
 2067 Fit       0.003406
 2068 Fit       0.001665
 2069 Fit       0.000326
 2070 Fit       0.000570
 2071 Fit       0.002182
 2072 Fit      -0.005081
 2073 Fit      -0.011374
 2074 Fit      -0.011087
 2075 Fit      -0.010437
 2076 Fit      -0.008788
 2077 Fit      -0.001057
 2078 Fit      -0.005782
 2079 Fit      -0.004940
 2080 Fit      -0.003962
 2081 Fit      -0.002782
 2082 Fit       0.000035
 2083 Fit      -0.002752
 2084 Fit      -0.001777
 2085 Fit      -0.000849
 2086 Fit       0.000028
 2087 Fit      -0.000743
 Job cpu time:       0 days  0 hours  4 minutes 49.7 seconds.
 Normal termination of Gaussian 16 at Sat Jul  8 20:45:07 2023.
