 Copyright (c) 1988-2019, Gaussian, Inc.  All Rights Reserved.
  
 This is part of the Gaussian(R) 16 program.  It is based on
 the Gaussian(R) 09 system (copyright 2009, Gaussian, Inc.),
 the Gaussian(R) 03 system (copyright 2003, Gaussian, Inc.),
 the Gaussian(R) 98 system (copyright 1998, Gaussian, Inc.),
 the Gaussian(R) 94 system (copyright 1995, Gaussian, Inc.),
 the Gaussian 92(TM) system (copyright 1992, Gaussian, Inc.),
 the Gaussian 90(TM) system (copyright 1990, Gaussian, Inc.),
 the Gaussian 88(TM) system (copyright 1988, Gaussian, Inc.),
 the Gaussian 86(TM) system (copyright 1986, Carnegie Mellon
 University), and the Gaussian 82(TM) system (copyright 1983,
 Carnegie Mellon University). Gaussian is a federally registered
 trademark of Gaussian, Inc.
 Cite this work as:
 Gaussian 16, Revision C.01,
 M. J. Frisch, G. W. Trucks, H. B. Schlegel, G. E. Scuseria, 
 M. A. Robb, J. R. Cheeseman, G. Scalmani, V. Barone, 
 G. A. Petersson, H. Nakatsuji, X. Li, M. Caricato, A. V. Marenich, 
 J. Bloino, B. G. Janesko, R. Gomperts, B. Mennucci, H. P. Hratchian, 
 J. V. Ortiz, A. F. Izmaylov, J. L. Sonnenberg, D. Williams-Young, 
 F. Ding, F. Lipparini, F. Egidi, J. Goings, B. Peng, A. Petrone, 
 T. Henderson, D. Ranasinghe, V. G. Zakrzewski, J. Gao, N. Rega, 
 G. Zheng, W. Liang, M. Hada, M. Ehara, K. Toyota, R. Fukuda, 
 J. Hasegawa, M. Ishida, T. Nakajima, Y. Honda, O. Kitao, H. Nakai, 
 T. Vreven, K. Throssell, J. A. Montgomery, Jr., J. E. Peralta, 
 F. Ogliaro, M. J. Bearpark, J. J. Heyd, E. N. Brothers, K. N. Kudin, 
 V. N. Staroverov, T. A. Keith, R. Kobayashi, J. Normand, 
 K. Raghavachari, A. P. Rendell, J. C. Burant, S. S. Iyengar, 
 J. Tomasi, M. Cossi, J. M. Millam, M. Klene, C. Adamo, R. Cammi, 
 J. W. Ochterski, R. L. Martin, K. Morokuma, O. Farkas, 
 J. B. Foresman, and D. J. Fox, Gaussian, Inc., Wallingford CT, 2019.
 
 ******************************************
 Gaussian 16:  EM64L-G16RevC.01  3-Jul-2019
                 8-Jul-2023 
 ******************************************
 ----------------------------------------------------------------------
 #P HF/6-31G(d) SCF(Conver=8,XQC,MaxConventionalCycles=64,MaxCycle=128)
  NoSymm Test Pop=mk IOp(6/33=2) GFInput GFPrint
 ----------------------------------------------------------------------
 1/38=1,172=1/1;
 2/12=2,15=1,17=6,18=5,40=1/2;
 3/5=1,6=6,7=1,11=9,24=110,25=1,30=1/1,2,3;
 4//1;
 5/5=2,6=8,7=128,8=3,13=1,38=5,85=64/2,8;
 6/7=2,8=2,9=2,10=2,15=8,20=1,28=1,33=2/1,2;
 99/5=1,9=1/99;
 -------------------------------------------------
 MEP step - Input generated by PyRED DVE-DMDS-OPLS
 -------------------------------------------------
 Symbolic Z-matrix:
 Charge =  0 Multiplicity = 1
 C                    -2.47952  -4.44068   3.77991 
 H                    -3.56001  -4.50219   3.70319 
 H                    -2.09026  -5.45433   3.76481 
 H                    -2.23117  -3.99286   4.73617 
 C                    -1.86964  -3.63044   2.64319 
 H                    -0.78993  -3.6513    2.71948 
 H                    -2.13855  -4.06435   1.68155 
 O                    -2.22395  -2.27609   2.67194 
 C                    -3.52137  -1.96917   2.26193 
 H                    -4.25178  -2.2824    3.0053 
 H                    -3.75675  -2.46986   1.3253 
 C                    -3.63257  -0.47439   2.07002 
 H                    -4.67945  -0.20618   1.92619 
 H                    -3.27543   0.03045   2.96454 
 O                    -2.87843  -0.10057   0.9598 
 C                    -2.77922   1.27481   0.74449 
 H                    -2.44356   1.78012   1.64765 
 H                    -3.75156   1.68595   0.47014 
 C                    -1.79061   1.5385   -0.37348 
 H                    -1.85908   2.58113  -0.66005 
 H                    -2.04821   0.93345  -1.2382 
 O                    -0.4607    1.32342   0. 
 C                     0.        0.        0. 
 H                    -0.3717   -0.52625  -0.87429 
 H                    -0.35651  -0.5244    0.87863 
 C                     1.51932   0.        0. 
 H                     1.86172  -1.01356   0.17324 
 H                     1.89049   0.60905   0.81543 
 S                     2.30043   0.5425   -1.55656 
 C                     2.88483   2.22053  -1.17869 
 H                     3.3913    2.19567  -0.21939 
 H                     3.64698   2.42302  -1.92116 
 C                     1.8477    3.3426   -1.15137 
 H                     2.32743   4.24849  -0.79434 
 H                     1.058     3.09398  -0.45879 
 S                     0.9929    3.72631  -2.70777 
 C                     2.29847   4.5161   -3.70952 
 H                     3.07165   4.88056  -3.04454 
 H                     1.85426   5.38176  -4.18197 
 C                     2.87388   3.59347  -4.78378 
 H                     3.29844   2.69808  -4.35127 
 H                     2.08169   3.27029  -5.44657 
 S                     4.09878   4.40357  -5.85971 
 C                     5.60096   4.4054   -4.83111 
 H                     6.25937   5.11944  -5.31133 
 H                     5.36824   4.8081   -3.85238 
 C                     6.29656   3.05222  -4.71292 
 H                     6.57345   2.6746   -5.69013 
 H                     7.19856   3.14805  -4.11465 
 H                     5.66314   2.31174  -4.23705 
 
 ITRead=  0  0  0  0  0  0  0  0  0  0  0  0  0  0  0  0  0  0  0  0
 ITRead=  0  0  0  0  0  0  0  0  0  0  0  0  0  0  0  0  0  0  0  0
 ITRead=  0  0  0  0  0  0  0  0  0  0
 MicOpt= -1 -1 -1 -1 -1 -1 -1 -1 -1 -1 -1 -1 -1 -1 -1 -1 -1 -1 -1 -1
 MicOpt= -1 -1 -1 -1 -1 -1 -1 -1 -1 -1 -1 -1 -1 -1 -1 -1 -1 -1 -1 -1
 MicOpt= -1 -1 -1 -1 -1 -1 -1 -1 -1 -1
 NAtoms=     50 NQM=       50 NQMF=       0 NMMI=      0 NMMIF=      0
                NMic=       0 NMicF=      0.
                          Input orientation:                          
 ---------------------------------------------------------------------
 Center     Atomic      Atomic             Coordinates (Angstroms)
 Number     Number       Type             X           Y           Z
 ---------------------------------------------------------------------
      1          6           0       -2.479518   -4.440682    3.779905
      2          1           0       -3.560009   -4.502186    3.703185
      3          1           0       -2.090258   -5.454331    3.764807
      4          1           0       -2.231168   -3.992858    4.736171
      5          6           0       -1.869642   -3.630441    2.643188
      6          1           0       -0.789926   -3.651297    2.719475
      7          1           0       -2.138546   -4.064352    1.681545
      8          8           0       -2.223945   -2.276089    2.671935
      9          6           0       -3.521366   -1.969173    2.261933
     10          1           0       -4.251782   -2.282396    3.005302
     11          1           0       -3.756748   -2.469859    1.325295
     12          6           0       -3.632566   -0.474393    2.070019
     13          1           0       -4.679450   -0.206180    1.926194
     14          1           0       -3.275430    0.030453    2.964541
     15          8           0       -2.878426   -0.100571    0.959795
     16          6           0       -2.779216    1.274811    0.744492
     17          1           0       -2.443561    1.780123    1.647651
     18          1           0       -3.751562    1.685949    0.470138
     19          6           0       -1.790614    1.538495   -0.373478
     20          1           0       -1.859080    2.581134   -0.660050
     21          1           0       -2.048207    0.933454   -1.238200
     22          8           0       -0.460701    1.323420    0.000000
     23          6           0        0.000000    0.000000    0.000000
     24          1           0       -0.371699   -0.526251   -0.874286
     25          1           0       -0.356509   -0.524404    0.878626
     26          6           0        1.519322    0.000000    0.000000
     27          1           0        1.861716   -1.013560    0.173240
     28          1           0        1.890490    0.609052    0.815429
     29         16           0        2.300427    0.542498   -1.556560
     30          6           0        2.884831    2.220534   -1.178692
     31          1           0        3.391302    2.195674   -0.219392
     32          1           0        3.646981    2.423024   -1.921163
     33          6           0        1.847697    3.342601   -1.151372
     34          1           0        2.327431    4.248488   -0.794339
     35          1           0        1.058004    3.093979   -0.458785
     36         16           0        0.992900    3.726311   -2.707772
     37          6           0        2.298473    4.516097   -3.709519
     38          1           0        3.071654    4.880564   -3.044545
     39          1           0        1.854258    5.381763   -4.181973
     40          6           0        2.873880    3.593470   -4.783785
     41          1           0        3.298440    2.698080   -4.351268
     42          1           0        2.081686    3.270288   -5.446568
     43         16           0        4.098780    4.403571   -5.859709
     44          6           0        5.600964    4.405403   -4.831109
     45          1           0        6.259373    5.119444   -5.311335
     46          1           0        5.368239    4.808102   -3.852379
     47          6           0        6.296563    3.052218   -4.712915
     48          1           0        6.573452    2.674602   -5.690128
     49          1           0        7.198556    3.148051   -4.114655
     50          1           0        5.663138    2.311738   -4.237051
 ---------------------------------------------------------------------
 Stoichiometry    C14H30O3S3
 Framework group  C1[X(C14H30O3S3)]
 Standard basis: 6-31G(d) (6D, 7F)
   372 basis functions,   752 primitive gaussians,   372 cartesian basis functions
    93 alpha electrons       93 beta electrons
 Requested convergence on RMS density matrix=1.00D-08 within  64 cycles.
 Requested convergence on MAX density matrix=1.00D-06.
 Requested convergence on             energy=1.00D-06.
 SCF Done:  E(RHF) =  -1964.69111522     A.U. after   13 cycles
            NFock= 13  Conv=0.60D-08     -V/T= 2.0006
 Mulliken charges:
     1  C   -0.507213
     2  H    0.161457
     3  H    0.161693
     4  H    0.174592
     5  C    0.015703
     6  H    0.171171
     7  H    0.142784
     8  O   -0.621099
     9  C    0.009585
    10  H    0.142288
    11  H    0.153996
    12  C    0.016811
    13  H    0.139112
    14  H    0.157523
    15  O   -0.626616
    16  C    0.007324
    17  H    0.152534
    18  H    0.137543
    19  C   -0.002118
    20  H    0.177203
    21  H    0.164873
    22  O   -0.639621
    23  C    0.029571
    24  H    0.154714
    25  H    0.190596
    26  C   -0.500327
    27  H    0.196808
    28  H    0.196419
    29  S    0.127655
    30  C   -0.469498
    31  H    0.192260
    32  H    0.189570
    33  C   -0.481213
    34  H    0.183397
    35  H    0.248921
    36  S    0.127326
    37  C   -0.479186
    38  H    0.186400
    39  H    0.214544
    40  C   -0.472409
    41  H    0.203880
    42  H    0.215081
    43  S    0.108958
    44  C   -0.474950
    45  H    0.199610
    46  H    0.183989
    47  C   -0.474826
    48  H    0.181719
    49  H    0.164940
    50  H    0.166526
 Sum of Mulliken charges =  -0.00000
 Dipole moment (field-independent basis, Debye):
    X=             -1.2052    Y=             -1.2917    Z=              4.2068  Tot=              4.5627
 Quadrupole moment (field-independent basis, Debye-Ang):
   XX=           -127.6568   YY=           -143.7300   ZZ=           -168.1360
   XY=              8.8981   XZ=              0.9519   YZ=              7.0976
 Traceless Quadrupole moment (field-independent basis, Debye-Ang):
   XX=             18.8508   YY=              2.7776   ZZ=            -21.6284
   XY=              8.8981   XZ=              0.9519   YZ=              7.0976
 Octapole moment (field-independent basis, Debye-Ang**2):
  XXX=           -337.5842  YYY=           -652.7174  ZZZ=            666.0206  XYY=           -114.1301
  XXY=           -145.0642  XXZ=            187.0532  XZZ=           -187.5948  YZZ=           -281.9773
  YYZ=            243.7684  XYZ=             16.5591
 Hexadecapole moment (field-independent basis, Debye-Ang**3):
 XXXX=          -7850.2472 YYYY=          -8152.2665 ZZZZ=          -9782.7634 XXXY=          -2575.3752
 XXXZ=           3362.2938 YYYX=          -2905.5755 YYYZ=           3967.8999 ZZZX=           4236.3861
 ZZZY=           4364.2627 XXYY=          -2507.5908 XXZZ=          -2909.7146 YYZZ=          -3168.7200
 XXYZ=           1123.2638 YYXZ=           1291.8702 ZZXY=          -1226.9128
 Merz-Kollman atomic radii used.
 Atom Element Radius
    1     6    1.50
    2     1    1.20
    3     1    1.20
    4     1    1.20
    5     6    1.50
    6     1    1.20
    7     1    1.20
    8     8    1.40
    9     6    1.50
   10     1    1.20
   11     1    1.20
   12     6    1.50
   13     1    1.20
   14     1    1.20
   15     8    1.40
   16     6    1.50
   17     1    1.20
   18     1    1.20
   19     6    1.50
   20     1    1.20
   21     1    1.20
   22     8    1.40
   23     6    1.50
   24     1    1.20
   25     1    1.20
   26     6    1.50
   27     1    1.20
   28     1    1.20
   29    16    1.75
   30     6    1.50
   31     1    1.20
   32     1    1.20
   33     6    1.50
   34     1    1.20
   35     1    1.20
   36    16    1.75
   37     6    1.50
   38     1    1.20
   39     1    1.20
   40     6    1.50
   41     1    1.20
   42     1    1.20
   43    16    1.75
   44     6    1.50
   45     1    1.20
   46     1    1.20
   47     6    1.50
   48     1    1.20
   49     1    1.20
   50     1    1.20
 Generate VDW surfaces: Layer= 4 Dens= 1 Start= 1.400 Inc= 0.200
            Electrostatic Properties Using The SCF Density.


       Atomic Center    1 is at  -2.479518 -4.440682  3.779905
       Atomic Center    2 is at  -3.560009 -4.502186  3.703185
       Atomic Center    3 is at  -2.090258 -5.454331  3.764807
       Atomic Center    4 is at  -2.231168 -3.992858  4.736171
       Atomic Center    5 is at  -1.869642 -3.630441  2.643188
       Atomic Center    6 is at  -0.789926 -3.651297  2.719475
       Atomic Center    7 is at  -2.138546 -4.064352  1.681545
       Atomic Center    8 is at  -2.223945 -2.276089  2.671935
       Atomic Center    9 is at  -3.521366 -1.969173  2.261933
       Atomic Center   10 is at  -4.251782 -2.282396  3.005302
       Atomic Center   11 is at  -3.756748 -2.469859  1.325295
       Atomic Center   12 is at  -3.632566 -0.474393  2.070019
       Atomic Center   13 is at  -4.679450 -0.206180  1.926194
       Atomic Center   14 is at  -3.275430  0.030453  2.964541
       Atomic Center   15 is at  -2.878426 -0.100571  0.959795
       Atomic Center   16 is at  -2.779216  1.274811  0.744492
       Atomic Center   17 is at  -2.443561  1.780123  1.647651
       Atomic Center   18 is at  -3.751562  1.685949  0.470138
       Atomic Center   19 is at  -1.790614  1.538495 -0.373478
       Atomic Center   20 is at  -1.859080  2.581134 -0.660050
       Atomic Center   21 is at  -2.048207  0.933454 -1.238200
       Atomic Center   22 is at  -0.460701  1.323420  0.000000
       Atomic Center   23 is at   0.000000  0.000000  0.000000
       Atomic Center   24 is at  -0.371699 -0.526251 -0.874286
       Atomic Center   25 is at  -0.356509 -0.524404  0.878626
       Atomic Center   26 is at   1.519322  0.000000  0.000000
       Atomic Center   27 is at   1.861716 -1.013560  0.173240
       Atomic Center   28 is at   1.890490  0.609052  0.815429
       Atomic Center   29 is at   2.300427  0.542498 -1.556560
       Atomic Center   30 is at   2.884831  2.220534 -1.178692
       Atomic Center   31 is at   3.391302  2.195674 -0.219392
       Atomic Center   32 is at   3.646981  2.423024 -1.921163
       Atomic Center   33 is at   1.847697  3.342601 -1.151372
       Atomic Center   34 is at   2.327431  4.248488 -0.794339
       Atomic Center   35 is at   1.058004  3.093979 -0.458785
       Atomic Center   36 is at   0.992900  3.726311 -2.707772
       Atomic Center   37 is at   2.298473  4.516097 -3.709519
       Atomic Center   38 is at   3.071654  4.880564 -3.044545
       Atomic Center   39 is at   1.854258  5.381763 -4.181973
       Atomic Center   40 is at   2.873880  3.593470 -4.783785
       Atomic Center   41 is at   3.298440  2.698080 -4.351268
       Atomic Center   42 is at   2.081686  3.270288 -5.446568
       Atomic Center   43 is at   4.098780  4.403571 -5.859709
       Atomic Center   44 is at   5.600964  4.405403 -4.831109
       Atomic Center   45 is at   6.259373  5.119444 -5.311335
       Atomic Center   46 is at   5.368239  4.808102 -3.852379
       Atomic Center   47 is at   6.296563  3.052218 -4.712915
       Atomic Center   48 is at   6.573452  2.674602 -5.690128
       Atomic Center   49 is at   7.198556  3.148051 -4.114655
       Atomic Center   50 is at   5.663138  2.311738 -4.237051
      ESP Fit Center   51 is at  -3.004518 -5.350009  5.598558
      ESP Fit Center   52 is at  -3.670483 -3.066236  4.829905
      ESP Fit Center   53 is at  -3.670483 -5.815128  4.829905
      ESP Fit Center   54 is at  -4.358896 -3.921760  5.062334
      ESP Fit Center   55 is at  -4.358896 -5.082612  5.062334
      ESP Fit Center   56 is at  -5.061426 -3.955715  4.222334
      ESP Fit Center   57 is at  -5.061426 -5.048657  4.222334
      ESP Fit Center   58 is at  -4.358896 -5.885900  4.222334
      ESP Fit Center   59 is at  -5.061426 -3.955715  3.184036
      ESP Fit Center   60 is at  -5.061426 -5.048657  3.184036
      ESP Fit Center   61 is at  -4.358896 -5.885900  3.184036
      ESP Fit Center   62 is at  -4.358896 -3.921760  2.344036
      ESP Fit Center   63 is at  -4.358896 -5.082612  2.344036
      ESP Fit Center   64 is at  -1.102779 -5.454331  5.123956
      ESP Fit Center   65 is at  -2.889145 -6.034757  5.123956
      ESP Fit Center   66 is at  -1.785110 -6.393480  5.123956
      ESP Fit Center   67 is at  -0.492483 -5.454331  4.283956
      ESP Fit Center   68 is at  -2.889145 -6.838045  4.283956
      ESP Fit Center   69 is at  -1.812807 -7.027832  4.283956
      ESP Fit Center   70 is at  -0.866291 -6.481361  4.283956
      ESP Fit Center   71 is at  -0.492483 -5.454331  3.245658
      ESP Fit Center   72 is at  -2.889145 -6.838045  3.245658
      ESP Fit Center   73 is at  -1.812807 -7.027832  3.245658
      ESP Fit Center   74 is at  -0.866291 -6.481361  3.245658
      ESP Fit Center   75 is at  -2.889145 -6.034757  2.405658
      ESP Fit Center   76 is at  -1.785110 -6.393480  2.405658
      ESP Fit Center   77 is at  -2.231168 -3.992858  6.416171
      ESP Fit Center   78 is at  -1.243689 -3.992858  6.095320
      ESP Fit Center   79 is at  -1.926020 -3.053709  6.095320
      ESP Fit Center   80 is at  -3.030055 -3.412432  6.095320
      ESP Fit Center   81 is at  -3.030055 -4.573284  6.095320
      ESP Fit Center   82 is at  -1.926020 -4.932007  6.095320
      ESP Fit Center   83 is at  -0.633393 -3.992858  5.255320
      ESP Fit Center   84 is at  -1.007201 -2.965828  5.255320
      ESP Fit Center   85 is at  -1.953717 -2.419357  5.255320
      ESP Fit Center   86 is at  -3.030055 -2.609144  5.255320
      ESP Fit Center   87 is at  -3.732585 -3.446387  5.255320
      ESP Fit Center   88 is at  -1.007201 -5.019888  5.255320
      ESP Fit Center   89 is at  -0.676706 -5.358707  2.643188
      ESP Fit Center   90 is at  -1.344642 -2.721114  0.824535
      ESP Fit Center   91 is at   0.197553 -3.651297  4.078624
      ESP Fit Center   92 is at  -0.484778 -2.712148  4.078624
      ESP Fit Center   93 is at   0.807849 -3.651297  3.238624
      ESP Fit Center   94 is at   0.434041 -2.624267  3.238624
      ESP Fit Center   95 is at   0.434041 -4.678327  3.238624
      ESP Fit Center   96 is at   0.807849 -3.651297  2.200326
      ESP Fit Center   97 is at   0.434041 -2.624267  2.200326
      ESP Fit Center   98 is at  -0.512475 -5.224798  2.200326
      ESP Fit Center   99 is at   0.434041 -4.678327  2.200326
      ESP Fit Center  100 is at   0.197553 -3.651297  1.360326
      ESP Fit Center  101 is at  -0.484778 -4.590446  1.360326
      ESP Fit Center  102 is at  -3.639963 -4.610823  1.162396
      ESP Fit Center  103 is at  -2.937433 -5.448066  1.162396
      ESP Fit Center  104 is at  -1.861095 -5.637853  1.162396
      ESP Fit Center  105 is at  -0.914579 -5.091382  1.162396
      ESP Fit Center  106 is at  -1.151067 -4.064352  0.322396
      ESP Fit Center  107 is at  -1.833398 -3.125203  0.322396
      ESP Fit Center  108 is at  -2.937433 -4.644778  0.322396
      ESP Fit Center  109 is at  -1.833398 -5.003501  0.322396
      ESP Fit Center  110 is at  -2.138546 -4.064352  0.001545
      ESP Fit Center  111 is at  -2.223945 -2.276089  4.631935
      ESP Fit Center  112 is at  -1.243945 -2.276089  4.369345
      ESP Fit Center  113 is at  -1.733945 -1.427384  4.369345
      ESP Fit Center  114 is at  -2.713945 -1.427384  4.369345
      ESP Fit Center  115 is at  -3.203945 -2.276089  4.369345
      ESP Fit Center  116 is at  -0.526535 -2.276089  3.651935
      ESP Fit Center  117 is at  -0.850712 -1.278377  3.651935
      ESP Fit Center  118 is at  -1.699417 -0.661756  3.651935
      ESP Fit Center  119 is at  -0.526535 -1.296089  2.671935
      ESP Fit Center  120 is at  -1.243945 -0.578679  2.671935
      ESP Fit Center  121 is at  -0.526535 -2.276089  1.691935
      ESP Fit Center  122 is at  -1.243945 -2.276089  0.974525
      ESP Fit Center  123 is at  -4.266036 -3.932707  2.261933
      ESP Fit Center  124 is at  -4.251782 -2.282396  4.685302
      ESP Fit Center  125 is at  -3.264303 -2.282396  4.364451
      ESP Fit Center  126 is at  -3.946634 -1.343247  4.364451
      ESP Fit Center  127 is at  -5.050669 -1.701970  4.364451
      ESP Fit Center  128 is at  -5.050669 -2.862822  4.364451
      ESP Fit Center  129 is at  -5.753199 -1.735925  3.524451
      ESP Fit Center  130 is at  -5.753199 -2.828867  3.524451
      ESP Fit Center  131 is at  -5.050669 -3.666110  3.524451
      ESP Fit Center  132 is at  -5.753199 -1.735925  2.486153
      ESP Fit Center  133 is at  -5.753199 -2.828867  2.486153
      ESP Fit Center  134 is at  -5.050669 -3.666110  2.486153
      ESP Fit Center  135 is at  -4.555635 -3.853573  1.844444
      ESP Fit Center  136 is at  -5.258165 -1.923388  0.806146
      ESP Fit Center  137 is at  -5.258165 -3.016330  0.806146
      ESP Fit Center  138 is at  -4.555635 -3.853573  0.806146
      ESP Fit Center  139 is at  -2.769269 -2.469859 -0.033854
      ESP Fit Center  140 is at  -4.555635 -1.889433 -0.033854
      ESP Fit Center  141 is at  -4.555635 -3.050285 -0.033854
      ESP Fit Center  142 is at  -3.451600 -3.409008 -0.033854
      ESP Fit Center  143 is at  -3.756748 -2.469859 -0.354705
      ESP Fit Center  144 is at  -4.682566 -0.474393  3.888672
      ESP Fit Center  145 is at  -4.682566 -0.474393  0.251366
      ESP Fit Center  146 is at  -5.478337  0.374246  3.285343
      ESP Fit Center  147 is at  -5.478337 -0.786606  3.285343
      ESP Fit Center  148 is at  -5.478337  1.177534  2.445343
      ESP Fit Center  149 is at  -6.180867  0.340291  2.445343
      ESP Fit Center  150 is at  -6.180867 -0.752651  2.445343
      ESP Fit Center  151 is at  -5.478337  1.177534  1.407045
      ESP Fit Center  152 is at  -6.180867  0.340291  1.407045
      ESP Fit Center  153 is at  -6.180867 -0.752651  1.407045
      ESP Fit Center  154 is at  -5.478337 -1.589894  1.407045
      ESP Fit Center  155 is at  -5.478337  0.374246  0.567045
      ESP Fit Center  156 is at  -5.478337 -0.786606  0.567045
      ESP Fit Center  157 is at  -3.275430  0.030453  4.644541
      ESP Fit Center  158 is at  -2.287951  0.030453  4.323690
      ESP Fit Center  159 is at  -2.970282  0.969602  4.323690
      ESP Fit Center  160 is at  -4.074317  0.610879  4.323690
      ESP Fit Center  161 is at  -4.074317 -0.549973  4.323690
      ESP Fit Center  162 is at  -2.970282 -0.908696  4.323690
      ESP Fit Center  163 is at  -1.677655  0.030453  3.483690
      ESP Fit Center  164 is at  -2.051463  1.057483  3.483690
      ESP Fit Center  165 is at  -2.997979  1.603954  3.483690
      ESP Fit Center  166 is at  -4.074317  1.414167  3.483690
      ESP Fit Center  167 is at  -4.776847  0.576924  3.483690
      ESP Fit Center  168 is at  -4.575836 -0.100571 -0.020205
      ESP Fit Center  169 is at  -4.251659 -1.098283 -0.020205
      ESP Fit Center  170 is at  -2.353898 -1.714904 -0.020205
      ESP Fit Center  171 is at  -3.858426 -0.100571 -0.737615
      ESP Fit Center  172 is at  -3.368426 -0.949276 -0.737615
      ESP Fit Center  173 is at  -2.388426 -0.949276 -0.737615
      ESP Fit Center  174 is at  -2.526089  3.359500  0.744492
      ESP Fit Center  175 is at  -2.443561  1.780123  3.327651
      ESP Fit Center  176 is at  -1.456082  1.780123  3.006800
      ESP Fit Center  177 is at  -2.138413  2.719272  3.006800
      ESP Fit Center  178 is at  -3.242448  2.360549  3.006800
      ESP Fit Center  179 is at  -0.845786  1.780123  2.166800
      ESP Fit Center  180 is at  -1.219594  2.807153  2.166800
      ESP Fit Center  181 is at  -2.166110  3.353624  2.166800
      ESP Fit Center  182 is at  -3.242448  3.163837  2.166800
      ESP Fit Center  183 is at  -3.944978  2.326594  2.166800
      ESP Fit Center  184 is at  -1.219594  0.753093  2.166800
      ESP Fit Center  185 is at  -2.166110  3.353624  1.128502
      ESP Fit Center  186 is at  -4.550449  2.266375  1.829287
      ESP Fit Center  187 is at  -3.474111  3.259450  0.989287
      ESP Fit Center  188 is at  -4.550449  3.069663  0.989287
      ESP Fit Center  189 is at  -5.252979  2.232420  0.989287
      ESP Fit Center  190 is at  -5.252979  1.139478  0.989287
      ESP Fit Center  191 is at  -3.474111  3.259450 -0.049011
      ESP Fit Center  192 is at  -4.550449  3.069663 -0.049011
      ESP Fit Center  193 is at  -5.252979  2.232420 -0.049011
      ESP Fit Center  194 is at  -5.252979  1.139478 -0.049011
      ESP Fit Center  195 is at  -4.550449  0.302235 -0.049011
      ESP Fit Center  196 is at  -4.550449  2.266375 -0.889011
      ESP Fit Center  197 is at  -4.550449  1.105523 -0.889011
      ESP Fit Center  198 is at  -3.751562  1.685949 -1.209862
      ESP Fit Center  199 is at  -1.035118  3.192800  0.676522
      ESP Fit Center  200 is at  -3.535599  2.050869 -1.423478
      ESP Fit Center  201 is at  -0.740614  1.538495 -2.192131
      ESP Fit Center  202 is at  -1.553932  3.520283  0.699099
      ESP Fit Center  203 is at  -0.635113  3.608164 -0.140901
      ESP Fit Center  204 is at  -1.581629  4.154635 -0.140901
      ESP Fit Center  205 is at  -2.657967  3.964848 -0.140901
      ESP Fit Center  206 is at  -1.581629  4.154635 -1.179199
      ESP Fit Center  207 is at  -2.657967  3.964848 -1.179199
      ESP Fit Center  208 is at  -3.360497  3.127605 -1.179199
      ESP Fit Center  209 is at  -1.553932  3.520283 -2.019199
      ESP Fit Center  210 is at  -2.657967  3.161560 -2.019199
      ESP Fit Center  211 is at  -1.859080  2.581134 -2.340050
      ESP Fit Center  212 is at  -3.549624  1.479925 -1.757349
      ESP Fit Center  213 is at  -3.549624  0.386983 -1.757349
      ESP Fit Center  214 is at  -2.847094 -0.450260 -1.757349
      ESP Fit Center  215 is at  -1.060728  0.933454 -2.597349
      ESP Fit Center  216 is at  -1.743059  1.872603 -2.597349
      ESP Fit Center  217 is at  -2.847094  1.513880 -2.597349
      ESP Fit Center  218 is at  -2.847094  0.353028 -2.597349
      ESP Fit Center  219 is at  -1.743059 -0.005695 -2.597349
      ESP Fit Center  220 is at  -2.048207  0.933454 -2.918200
      ESP Fit Center  221 is at  -0.460701  1.323420  1.960000
      ESP Fit Center  222 is at   0.519299  1.323420  1.697410
      ESP Fit Center  223 is at   0.029299  2.172125  1.697410
      ESP Fit Center  224 is at   0.063827  2.937753  0.980000
      ESP Fit Center  225 is at  -0.985229  2.937753  0.980000
      ESP Fit Center  226 is at   0.525000  0.909327  1.818653
      ESP Fit Center  227 is at  -1.571873 -1.392558  0.000000
      ESP Fit Center  228 is at  -0.744670 -1.963534  0.000000
      ESP Fit Center  229 is at   0.253127 -2.084689  0.000000
      ESP Fit Center  230 is at  -1.170586 -1.909965 -0.355137
      ESP Fit Center  231 is at  -0.094248 -2.099752 -0.355137
      ESP Fit Center  232 is at  -1.873116 -1.072722 -1.393435
      ESP Fit Center  233 is at  -1.170586 -1.909965 -1.393435
      ESP Fit Center  234 is at  -0.094248 -2.099752 -1.393435
      ESP Fit Center  235 is at   0.852268 -1.553281 -1.393435
      ESP Fit Center  236 is at  -0.066551  0.412898 -2.233435
      ESP Fit Center  237 is at  -1.170586 -1.106677 -2.233435
      ESP Fit Center  238 is at  -0.066551 -1.465400 -2.233435
      ESP Fit Center  239 is at  -0.371699 -0.526251 -2.554286
      ESP Fit Center  240 is at  -0.356509 -0.524404  2.558626
      ESP Fit Center  241 is at   0.630970 -0.524404  2.237775
      ESP Fit Center  242 is at  -0.051361  0.414745  2.237775
      ESP Fit Center  243 is at  -1.155396  0.056022  2.237775
      ESP Fit Center  244 is at  -0.051361 -1.463553  2.237775
      ESP Fit Center  245 is at  -0.079058 -2.097905  1.397775
      ESP Fit Center  246 is at  -1.155396 -1.908118  0.359477
      ESP Fit Center  247 is at  -0.079058 -2.097905  0.359477
      ESP Fit Center  248 is at   0.994322 -0.909327  1.818653
      ESP Fit Center  249 is at   1.861716 -1.013560  1.853240
      ESP Fit Center  250 is at   2.849195 -1.013560  1.532389
      ESP Fit Center  251 is at   1.062829 -1.593986  1.532389
      ESP Fit Center  252 is at   2.166864 -1.952709  1.532389
      ESP Fit Center  253 is at   3.459491 -1.013560  0.692389
      ESP Fit Center  254 is at   1.062829 -2.397274  0.692389
      ESP Fit Center  255 is at   2.139167 -2.587061  0.692389
      ESP Fit Center  256 is at   3.085683 -2.040590  0.692389
      ESP Fit Center  257 is at   1.062829 -2.397274 -0.345909
      ESP Fit Center  258 is at   2.139167 -2.587061 -0.345909
      ESP Fit Center  259 is at   3.085683 -2.040590 -0.345909
      ESP Fit Center  260 is at   2.166864 -1.952709 -1.185909
      ESP Fit Center  261 is at   1.890490  0.609052  2.495429
      ESP Fit Center  262 is at   2.877969  0.609052  2.174578
      ESP Fit Center  263 is at   2.195638  1.548201  2.174578
      ESP Fit Center  264 is at   1.091603  1.189478  2.174578
      ESP Fit Center  265 is at   1.091603  0.028626  2.174578
      ESP Fit Center  266 is at   2.195638 -0.330097  2.174578
      ESP Fit Center  267 is at   3.488265  0.609052  1.334578
      ESP Fit Center  268 is at   2.167941  2.182553  1.334578
      ESP Fit Center  269 is at   1.091603  1.992766  1.334578
      ESP Fit Center  270 is at   3.114457 -0.417978  1.334578
      ESP Fit Center  271 is at   4.215914  0.542498 -0.029010
      ESP Fit Center  272 is at   3.911837 -0.493093 -0.029010
      ESP Fit Center  273 is at   4.689000  0.542498 -1.011384
      ESP Fit Center  274 is at   2.831935 -1.786189 -1.011384
      ESP Fit Center  275 is at   3.789678 -1.324964 -1.011384
      ESP Fit Center  276 is at   4.452457 -0.493865 -1.011384
      ESP Fit Center  277 is at   4.689000  0.542498 -2.101736
      ESP Fit Center  278 is at   0.811176 -1.324964 -2.101736
      ESP Fit Center  279 is at   1.768919 -1.786189 -2.101736
      ESP Fit Center  280 is at   2.831935 -1.786189 -2.101736
      ESP Fit Center  281 is at   3.789678 -1.324964 -2.101736
      ESP Fit Center  282 is at   4.452457 -0.493865 -2.101736
      ESP Fit Center  283 is at   4.215914  0.542498 -3.084110
      ESP Fit Center  284 is at   0.462531  1.082153 -3.084110
      ESP Fit Center  285 is at   0.462531  0.002843 -3.084110
      ESP Fit Center  286 is at   1.046050 -0.905131 -3.084110
      ESP Fit Center  287 is at   2.027825 -1.353492 -3.084110
      ESP Fit Center  288 is at   3.096149 -1.199890 -3.084110
      ESP Fit Center  289 is at   3.911837 -0.493093 -3.084110
      ESP Fit Center  290 is at   3.363442  0.542498 -3.763934
      ESP Fit Center  291 is at   1.768919  1.463096 -3.763934
      ESP Fit Center  292 is at   1.237412  0.542498 -3.763934
      ESP Fit Center  293 is at   1.768919 -0.378100 -3.763934
      ESP Fit Center  294 is at   2.831935 -0.378100 -3.763934
      ESP Fit Center  295 is at   2.300427  0.542498 -4.006560
      ESP Fit Center  296 is at   4.077767  3.948800 -1.178692
      ESP Fit Center  297 is at   4.744289  1.244615 -1.178692
      ESP Fit Center  298 is at   3.391302  2.195674  1.460608
      ESP Fit Center  299 is at   4.378781  2.195674  1.139757
      ESP Fit Center  300 is at   3.696450  3.134823  1.139757
      ESP Fit Center  301 is at   2.592415  2.776100  1.139757
      ESP Fit Center  302 is at   3.696450  1.256525  1.139757
      ESP Fit Center  303 is at   4.989077  2.195674  0.299757
      ESP Fit Center  304 is at   4.615269  3.222704  0.299757
      ESP Fit Center  305 is at   3.668753  3.769175  0.299757
      ESP Fit Center  306 is at   4.615269  1.168644  0.299757
      ESP Fit Center  307 is at   4.989077  2.195674 -0.738541
      ESP Fit Center  308 is at   5.244756  2.423024 -1.402014
      ESP Fit Center  309 is at   4.870948  3.450054 -1.402014
      ESP Fit Center  310 is at   4.870948  1.395994 -1.402014
      ESP Fit Center  311 is at   5.244756  2.423024 -2.440312
      ESP Fit Center  312 is at   4.870948  3.450054 -2.440312
      ESP Fit Center  313 is at   4.870948  1.395994 -2.440312
      ESP Fit Center  314 is at   3.952129  1.483875 -3.280312
      ESP Fit Center  315 is at   0.656732  4.717047 -0.101372
      ESP Fit Center  316 is at   2.327431  4.248488  0.885661
      ESP Fit Center  317 is at   3.314910  4.248488  0.564810
      ESP Fit Center  318 is at   2.632579  5.187637  0.564810
      ESP Fit Center  319 is at   1.528544  4.828914  0.564810
      ESP Fit Center  320 is at   3.925206  4.248488 -0.275190
      ESP Fit Center  321 is at   3.551398  5.275518 -0.275190
      ESP Fit Center  322 is at   2.604882  5.821989 -0.275190
      ESP Fit Center  323 is at   1.528544  5.632202 -0.275190
      ESP Fit Center  324 is at   3.925206  4.248488 -1.313488
      ESP Fit Center  325 is at   3.551398  5.275518 -1.313488
      ESP Fit Center  326 is at   2.604882  5.821989 -1.313488
      ESP Fit Center  327 is at   1.058004  3.093979  1.221215
      ESP Fit Center  328 is at   1.363152  4.033128  0.900364
      ESP Fit Center  329 is at   0.259117  3.674405  0.900364
      ESP Fit Center  330 is at   0.259117  4.477693  0.060364
      ESP Fit Center  331 is at  -0.443413  3.640450  0.060364
      ESP Fit Center  332 is at   0.720298  5.622301 -1.180222
      ESP Fit Center  333 is at  -0.261477  5.173940 -1.180222
      ESP Fit Center  334 is at  -0.844996  4.265966 -1.180222
      ESP Fit Center  335 is at   1.524408  6.054998 -2.162596
      ESP Fit Center  336 is at   0.461392  6.054998 -2.162596
      ESP Fit Center  337 is at  -0.496351  5.593773 -2.162596
      ESP Fit Center  338 is at  -1.159130  4.762674 -2.162596
      ESP Fit Center  339 is at  -1.395673  3.726311 -2.162596
      ESP Fit Center  340 is at  -0.496351  1.858849 -2.162596
      ESP Fit Center  341 is at   0.461392  6.054998 -3.252948
      ESP Fit Center  342 is at  -0.496351  5.593773 -3.252948
      ESP Fit Center  343 is at  -1.159130  4.762674 -3.252948
      ESP Fit Center  344 is at  -1.395673  3.726311 -3.252948
      ESP Fit Center  345 is at  -1.159130  2.689948 -3.252948
      ESP Fit Center  346 is at  -0.496351  1.858849 -3.252948
      ESP Fit Center  347 is at   0.461392  1.397624 -3.252948
      ESP Fit Center  348 is at  -0.261477  5.173940 -4.235322
      ESP Fit Center  349 is at  -0.844996  4.265966 -4.235322
      ESP Fit Center  350 is at  -0.844996  3.186656 -4.235322
      ESP Fit Center  351 is at  -0.261477  2.278682 -4.235322
      ESP Fit Center  352 is at   0.720298  1.830321 -4.235322
      ESP Fit Center  353 is at   0.461392  4.646909 -4.915146
      ESP Fit Center  354 is at  -0.070115  3.726311 -4.915146
      ESP Fit Center  355 is at   0.461392  2.805713 -4.915146
      ESP Fit Center  356 is at   2.039652  6.316239 -2.659519
      ESP Fit Center  357 is at   4.059133  4.880564 -1.685396
      ESP Fit Center  358 is at   3.376802  5.819713 -1.685396
      ESP Fit Center  359 is at   4.295621  5.907594 -2.525396
      ESP Fit Center  360 is at   3.349105  6.454065 -2.525396
      ESP Fit Center  361 is at   2.272767  6.264278 -2.525396
      ESP Fit Center  362 is at   4.295621  3.853534 -2.525396
      ESP Fit Center  363 is at   3.349105  6.454065 -3.563694
      ESP Fit Center  364 is at   2.131709  6.955264 -3.662824
      ESP Fit Center  365 is at   1.055371  6.765477 -3.662824
      ESP Fit Center  366 is at   0.352841  5.928234 -3.662824
      ESP Fit Center  367 is at   3.078225  6.408793 -4.701122
      ESP Fit Center  368 is at   2.131709  6.955264 -4.701122
      ESP Fit Center  369 is at   1.055371  6.765477 -4.701122
      ESP Fit Center  370 is at   0.352841  5.928234 -4.701122
      ESP Fit Center  371 is at   2.159406  6.320912 -5.541122
      ESP Fit Center  372 is at   1.055371  5.962189 -5.541122
      ESP Fit Center  373 is at   1.055371  4.801337 -5.541122
      ESP Fit Center  374 is at   1.682915  4.967916 -5.833785
      ESP Fit Center  375 is at   3.629376  1.939165 -5.833785
      ESP Fit Center  376 is at   3.575891  1.124579 -3.832119
      ESP Fit Center  377 is at   2.499553  1.314366 -4.870417
      ESP Fit Center  378 is at   3.575891  1.124579 -4.870417
      ESP Fit Center  379 is at   3.603588  1.758931 -5.710417
      ESP Fit Center  380 is at   0.580269  2.723817 -4.927419
      ESP Fit Center  381 is at   1.282799  1.886574 -4.927419
      ESP Fit Center  382 is at   1.282799  4.654002 -5.965717
      ESP Fit Center  383 is at   0.580269  3.816759 -5.965717
      ESP Fit Center  384 is at   0.580269  2.723817 -5.965717
      ESP Fit Center  385 is at   1.282799  1.886574 -5.965717
      ESP Fit Center  386 is at   2.359137  1.696787 -5.965717
      ESP Fit Center  387 is at   1.282799  3.850714 -6.805717
      ESP Fit Center  388 is at   1.282799  2.689862 -6.805717
      ESP Fit Center  389 is at   2.386834  2.331139 -6.805717
      ESP Fit Center  390 is at   2.081686  3.270288 -7.126568
      ESP Fit Center  391 is at   3.826178  6.299561 -4.332159
      ESP Fit Center  392 is at   4.630288  6.732258 -5.314533
      ESP Fit Center  393 is at   3.567272  6.732258 -5.314533
      ESP Fit Center  394 is at   5.588031  6.271033 -6.404885
      ESP Fit Center  395 is at   4.630288  6.732258 -6.404885
      ESP Fit Center  396 is at   3.567272  6.732258 -6.404885
      ESP Fit Center  397 is at   2.609529  6.271033 -6.404885
      ESP Fit Center  398 is at   1.946750  5.439934 -6.404885
      ESP Fit Center  399 is at   3.567272  2.074884 -6.404885
      ESP Fit Center  400 is at   4.630288  2.074884 -6.404885
      ESP Fit Center  401 is at   6.014267  4.403571 -7.387259
      ESP Fit Center  402 is at   5.710190  5.439162 -7.387259
      ESP Fit Center  403 is at   4.894502  6.145959 -7.387259
      ESP Fit Center  404 is at   3.826178  6.299561 -7.387259
      ESP Fit Center  405 is at   2.844403  5.851200 -7.387259
      ESP Fit Center  406 is at   2.260884  4.943226 -7.387259
      ESP Fit Center  407 is at   2.260884  3.863916 -7.387259
      ESP Fit Center  408 is at   2.844403  2.955942 -7.387259
      ESP Fit Center  409 is at   3.826178  2.507581 -7.387259
      ESP Fit Center  410 is at   4.894502  2.661183 -7.387259
      ESP Fit Center  411 is at   5.710190  3.367980 -7.387259
      ESP Fit Center  412 is at   5.161795  4.403571 -8.067083
      ESP Fit Center  413 is at   4.630288  5.324169 -8.067083
      ESP Fit Center  414 is at   3.567272  5.324169 -8.067083
      ESP Fit Center  415 is at   3.035765  4.403571 -8.067083
      ESP Fit Center  416 is at   3.567272  3.482973 -8.067083
      ESP Fit Center  417 is at   4.630288  3.482973 -8.067083
      ESP Fit Center  418 is at   4.098780  4.403571 -8.309709
      ESP Fit Center  419 is at   7.130913  5.388641 -3.781109
      ESP Fit Center  420 is at   6.564521  6.058593 -3.952186
      ESP Fit Center  421 is at   7.857148  5.119444 -4.792186
      ESP Fit Center  422 is at   7.483340  6.146474 -4.792186
      ESP Fit Center  423 is at   6.536824  6.692945 -4.792186
      ESP Fit Center  424 is at   5.460486  6.503158 -4.792186
      ESP Fit Center  425 is at   7.857148  5.119444 -5.830484
      ESP Fit Center  426 is at   7.483340  6.146474 -5.830484
      ESP Fit Center  427 is at   6.536824  6.692945 -5.830484
      ESP Fit Center  428 is at   5.460486  6.503158 -5.830484
      ESP Fit Center  429 is at   7.246852  5.119444 -6.670484
      ESP Fit Center  430 is at   6.564521  6.058593 -6.670484
      ESP Fit Center  431 is at   6.259373  5.119444 -6.991335
      ESP Fit Center  432 is at   5.368239  4.808102 -2.172379
      ESP Fit Center  433 is at   6.355718  4.808102 -2.493230
      ESP Fit Center  434 is at   5.673387  5.747251 -2.493230
      ESP Fit Center  435 is at   4.569352  4.227676 -2.493230
      ESP Fit Center  436 is at   5.673387  3.868953 -2.493230
      ESP Fit Center  437 is at   6.592206  5.835132 -3.333230
      ESP Fit Center  438 is at   5.645690  6.381603 -3.333230
      ESP Fit Center  439 is at   4.569352  6.191816 -3.333230
      ESP Fit Center  440 is at   6.296563  3.052218 -2.612915
      ESP Fit Center  441 is at   7.052059  1.397913 -3.662915
      ESP Fit Center  442 is at   7.489499  1.323952 -4.712915
      ESP Fit Center  443 is at   7.826512  4.035456 -5.762915
      ESP Fit Center  444 is at   5.105598  1.677772 -5.762915
      ESP Fit Center  445 is at   7.797419  1.647572 -5.170979
      ESP Fit Center  446 is at   8.171227  2.674602 -6.209277
      ESP Fit Center  447 is at   7.797419  3.701632 -6.209277
      ESP Fit Center  448 is at   5.072035  2.128131 -6.209277
      ESP Fit Center  449 is at   5.774565  1.290888 -6.209277
      ESP Fit Center  450 is at   6.850903  1.101101 -6.209277
      ESP Fit Center  451 is at   7.797419  1.647572 -6.209277
      ESP Fit Center  452 is at   7.560931  2.674602 -7.049277
      ESP Fit Center  453 is at   6.878600  3.613751 -7.049277
      ESP Fit Center  454 is at   5.774565  2.094176 -7.049277
      ESP Fit Center  455 is at   6.878600  1.735453 -7.049277
      ESP Fit Center  456 is at   6.573452  2.674602 -7.370128
      ESP Fit Center  457 is at   7.198556  3.148051 -2.434655
      ESP Fit Center  458 is at   8.186035  3.148051 -2.755506
      ESP Fit Center  459 is at   7.503704  4.087200 -2.755506
      ESP Fit Center  460 is at   7.503704  2.208902 -2.755506
      ESP Fit Center  461 is at   8.796331  3.148051 -3.595506
      ESP Fit Center  462 is at   8.422523  4.175081 -3.595506
      ESP Fit Center  463 is at   7.476007  4.721552 -3.595506
      ESP Fit Center  464 is at   7.476007  1.574550 -3.595506
      ESP Fit Center  465 is at   8.422523  2.121021 -3.595506
      ESP Fit Center  466 is at   8.796331  3.148051 -4.633804
      ESP Fit Center  467 is at   8.422523  4.175081 -4.633804
      ESP Fit Center  468 is at   8.422523  2.121021 -4.633804
      ESP Fit Center  469 is at   5.663138  2.311738 -2.557051
      ESP Fit Center  470 is at   4.864251  1.731312 -2.877902
      ESP Fit Center  471 is at   5.968286  1.372589 -2.877902
      ESP Fit Center  472 is at   4.864251  0.928024 -3.717902
      ESP Fit Center  473 is at   5.940589  0.738237 -3.717902
      ESP Fit Center  474 is at   6.887105  1.284708 -3.717902
      ESP Fit Center  475 is at   4.864251  0.928024 -4.756200
      ESP Fit Center  476 is at   5.940589  0.738237 -4.756200
      ESP Fit Center  477 is at   4.864251  1.731312 -5.596200
      ESP Fit Center  478 is at  -3.000178 -5.342492  5.942230
      ESP Fit Center  479 is at  -3.708296 -5.858767  5.276281
      ESP Fit Center  480 is at  -0.900994 -5.455138  5.276281
      ESP Fit Center  481 is at  -3.708296 -5.858767  2.283529
      ESP Fit Center  482 is at  -4.520009 -4.502186  5.365954
      ESP Fit Center  483 is at  -4.905217 -3.524835  4.663185
      ESP Fit Center  484 is at  -5.222778 -4.502186  4.663185
      ESP Fit Center  485 is at  -4.905217 -5.479537  4.663185
      ESP Fit Center  486 is at  -4.073833 -6.083573  4.663185
      ESP Fit Center  487 is at  -5.480009 -4.502186  3.703185
      ESP Fit Center  488 is at  -5.222778 -5.462186  3.703185
      ESP Fit Center  489 is at  -4.520009 -6.164955  3.703185
      ESP Fit Center  490 is at  -5.222778 -4.502186  2.743185
      ESP Fit Center  491 is at  -4.905217 -5.479537  2.743185
      ESP Fit Center  492 is at  -4.073833 -6.083573  2.743185
      ESP Fit Center  493 is at  -4.520009 -4.502186  2.040416
      ESP Fit Center  494 is at  -4.040009 -5.333570  2.040416
      ESP Fit Center  495 is at  -2.570258 -6.285715  5.427576
      ESP Fit Center  496 is at  -1.610258 -6.285715  5.427576
      ESP Fit Center  497 is at  -0.427489 -5.454331  4.724807
      ESP Fit Center  498 is at  -3.435466 -6.431682  4.724807
      ESP Fit Center  499 is at  -2.604082 -7.035718  4.724807
      ESP Fit Center  500 is at  -1.576434 -7.035718  4.724807
      ESP Fit Center  501 is at  -0.745050 -6.431682  4.724807
      ESP Fit Center  502 is at  -0.170258 -5.454331  3.764807
      ESP Fit Center  503 is at  -3.050258 -7.117100  3.764807
      ESP Fit Center  504 is at  -2.090258 -7.374331  3.764807
      ESP Fit Center  505 is at  -1.130258 -7.117100  3.764807
      ESP Fit Center  506 is at  -0.427489 -6.414331  3.764807
      ESP Fit Center  507 is at  -3.435466 -6.431682  2.804807
      ESP Fit Center  508 is at  -2.604082 -7.035718  2.804807
      ESP Fit Center  509 is at  -1.576434 -7.035718  2.804807
      ESP Fit Center  510 is at  -0.745050 -6.431682  2.804807
      ESP Fit Center  511 is at  -2.570258 -6.285715  2.102038
      ESP Fit Center  512 is at  -1.610258 -6.285715  2.102038
      ESP Fit Center  513 is at  -2.231168 -3.992858  6.656171
      ESP Fit Center  514 is at  -1.271168 -3.992858  6.398940
      ESP Fit Center  515 is at  -1.751168 -3.161474  6.398940
      ESP Fit Center  516 is at  -2.711168 -3.161474  6.398940
      ESP Fit Center  517 is at  -3.191168 -3.992858  6.398940
      ESP Fit Center  518 is at  -2.711168 -4.824242  6.398940
      ESP Fit Center  519 is at  -1.751168 -4.824242  6.398940
      ESP Fit Center  520 is at  -0.568399 -3.992858  5.696171
      ESP Fit Center  521 is at  -0.885960 -3.015507  5.696171
      ESP Fit Center  522 is at  -1.717344 -2.411471  5.696171
      ESP Fit Center  523 is at  -2.744992 -2.411471  5.696171
      ESP Fit Center  524 is at  -3.576376 -3.015507  5.696171
      ESP Fit Center  525 is at  -3.893937 -3.992858  5.696171
      ESP Fit Center  526 is at  -0.885960 -4.970209  5.696171
      ESP Fit Center  527 is at  -0.311168 -3.992858  4.736171
      ESP Fit Center  528 is at  -0.568399 -3.032858  4.736171
      ESP Fit Center  529 is at  -1.271168 -2.330089  4.736171
      ESP Fit Center  530 is at  -3.191168 -2.330089  4.736171
      ESP Fit Center  531 is at  -0.410784 -5.459791  2.109138
      ESP Fit Center  532 is at  -0.291118 -2.615985  1.146812
      ESP Fit Center  533 is at  -0.291118 -4.644897  1.146812
      ESP Fit Center  534 is at  -1.348982 -2.728631  0.480863
      ESP Fit Center  535 is at   0.170074 -3.651297  4.382244
      ESP Fit Center  536 is at  -0.309926 -2.819913  4.382244
      ESP Fit Center  537 is at   0.872843 -3.651297  3.679475
      ESP Fit Center  538 is at   0.555282 -2.673946  3.679475
      ESP Fit Center  539 is at   0.555282 -4.628648  3.679475
      ESP Fit Center  540 is at   1.130074 -3.651297  2.719475
      ESP Fit Center  541 is at   0.872843 -2.691297  2.719475
      ESP Fit Center  542 is at   0.170074 -1.988528  2.719475
      ESP Fit Center  543 is at   0.170074 -5.314066  2.719475
      ESP Fit Center  544 is at   0.872843 -4.611297  2.719475
      ESP Fit Center  545 is at   0.872843 -3.651297  1.759475
      ESP Fit Center  546 is at   0.555282 -2.673946  1.759475
      ESP Fit Center  547 is at  -0.276102 -5.232684  1.759475
      ESP Fit Center  548 is at   0.555282 -4.628648  1.759475
      ESP Fit Center  549 is at   0.170074 -3.651297  1.056706
      ESP Fit Center  550 is at  -3.801315 -5.024352  1.681545
      ESP Fit Center  551 is at  -3.098546 -5.727121  1.681545
      ESP Fit Center  552 is at  -2.138546 -5.984352  1.681545
      ESP Fit Center  553 is at  -1.178546 -5.727121  1.681545
      ESP Fit Center  554 is at  -0.475777 -4.064352  0.721545
      ESP Fit Center  555 is at  -3.483754 -5.041703  0.721545
      ESP Fit Center  556 is at  -2.652370 -5.645739  0.721545
      ESP Fit Center  557 is at  -1.624722 -5.645739  0.721545
      ESP Fit Center  558 is at  -0.793338 -5.041703  0.721545
      ESP Fit Center  559 is at  -1.178546 -4.064352  0.018776
      ESP Fit Center  560 is at  -1.658546 -3.232968  0.018776
      ESP Fit Center  561 is at  -3.098546 -4.064352  0.018776
      ESP Fit Center  562 is at  -2.618546 -4.895736  0.018776
      ESP Fit Center  563 is at  -1.658546 -4.895736  0.018776
      ESP Fit Center  564 is at  -2.138546 -4.064352 -0.238455
      ESP Fit Center  565 is at  -1.252045 -2.276089  4.690105
      ESP Fit Center  566 is at  -1.737995 -1.434399  4.690105
      ESP Fit Center  567 is at  -2.709895 -1.434399  4.690105
      ESP Fit Center  568 is at  -3.195845 -2.276089  4.690105
      ESP Fit Center  569 is at  -0.472642 -2.276089  4.068552
      ESP Fit Center  570 is at  -0.807111 -1.246699  4.068552
      ESP Fit Center  571 is at  -1.682763 -0.610501  4.068552
      ESP Fit Center  572 is at  -0.290252 -1.261209  3.170382
      ESP Fit Center  573 is at  -0.983383 -0.478825  3.170382
      ESP Fit Center  574 is at  -1.252045 -2.276089  0.653765
      ESP Fit Center  575 is at  -5.861193 -1.969173  1.727883
      ESP Fit Center  576 is at  -5.629477 -2.984386  1.727883
      ESP Fit Center  577 is at  -4.251782 -2.282396  4.925302
      ESP Fit Center  578 is at  -3.291782 -2.282396  4.668071
      ESP Fit Center  579 is at  -3.771782 -1.451012  4.668071
      ESP Fit Center  580 is at  -4.731782 -1.451012  4.668071
      ESP Fit Center  581 is at  -5.211782 -2.282396  4.668071
      ESP Fit Center  582 is at  -4.731782 -3.113780  4.668071
      ESP Fit Center  583 is at  -5.596990 -1.305045  3.965302
      ESP Fit Center  584 is at  -5.914551 -2.282396  3.965302
      ESP Fit Center  585 is at  -5.596990 -3.259747  3.965302
      ESP Fit Center  586 is at  -5.914551 -1.322396  3.005302
      ESP Fit Center  587 is at  -6.171782 -2.282396  3.005302
      ESP Fit Center  588 is at  -5.914551 -3.242396  3.005302
      ESP Fit Center  589 is at  -5.914551 -2.282396  2.045302
      ESP Fit Center  590 is at  -5.596990 -3.259747  2.045302
      ESP Fit Center  591 is at  -5.676748 -2.469859  1.325295
      ESP Fit Center  592 is at  -5.419517 -3.429859  1.325295
      ESP Fit Center  593 is at  -4.716748 -4.132628  1.325295
      ESP Fit Center  594 is at  -2.093979 -2.469859  0.365295
      ESP Fit Center  595 is at  -5.101956 -1.492508  0.365295
      ESP Fit Center  596 is at  -5.419517 -2.469859  0.365295
      ESP Fit Center  597 is at  -5.101956 -3.447210  0.365295
      ESP Fit Center  598 is at  -4.270572 -4.051246  0.365295
      ESP Fit Center  599 is at  -2.796748 -2.469859 -0.337474
      ESP Fit Center  600 is at  -4.236748 -1.638475 -0.337474
      ESP Fit Center  601 is at  -4.716748 -2.469859 -0.337474
      ESP Fit Center  602 is at  -4.236748 -3.301243 -0.337474
      ESP Fit Center  603 is at  -3.276748 -3.301243 -0.337474
      ESP Fit Center  604 is at  -3.756748 -2.469859 -0.594705
      ESP Fit Center  605 is at  -4.673887 -0.474393  4.232344
      ESP Fit Center  606 is at  -4.861344  0.943692  3.566395
      ESP Fit Center  607 is at  -5.159450  0.625204  3.588963
      ESP Fit Center  608 is at  -5.639450 -0.206180  3.588963
      ESP Fit Center  609 is at  -5.193274  1.375207  2.886194
      ESP Fit Center  610 is at  -6.024658  0.771171  2.886194
      ESP Fit Center  611 is at  -6.342219 -0.206180  2.886194
      ESP Fit Center  612 is at  -6.024658 -1.183531  2.886194
      ESP Fit Center  613 is at  -5.639450  1.456589  1.926194
      ESP Fit Center  614 is at  -6.342219  0.753820  1.926194
      ESP Fit Center  615 is at  -6.599450 -0.206180  1.926194
      ESP Fit Center  616 is at  -6.342219 -1.166180  1.926194
      ESP Fit Center  617 is at  -6.024658  0.771171  0.966194
      ESP Fit Center  618 is at  -6.342219 -0.206180  0.966194
      ESP Fit Center  619 is at  -6.024658 -1.183531  0.966194
      ESP Fit Center  620 is at  -5.639450 -0.206180  0.263425
      ESP Fit Center  621 is at  -5.159450 -1.037564  0.263425
      ESP Fit Center  622 is at  -3.275430  0.030453  4.884541
      ESP Fit Center  623 is at  -2.315430  0.030453  4.627310
      ESP Fit Center  624 is at  -2.795430  0.861837  4.627310
      ESP Fit Center  625 is at  -3.755430  0.861837  4.627310
      ESP Fit Center  626 is at  -4.235430  0.030453  4.627310
      ESP Fit Center  627 is at  -3.755430 -0.800931  4.627310
      ESP Fit Center  628 is at  -2.795430 -0.800931  4.627310
      ESP Fit Center  629 is at  -1.612661  0.030453  3.924541
      ESP Fit Center  630 is at  -1.930222  1.007804  3.924541
      ESP Fit Center  631 is at  -2.761606  1.611840  3.924541
      ESP Fit Center  632 is at  -3.789254  1.611840  3.924541
      ESP Fit Center  633 is at  -4.620638  1.007804  3.924541
      ESP Fit Center  634 is at  -1.355430  0.030453  2.964541
      ESP Fit Center  635 is at  -4.235430  1.693222  2.964541
      ESP Fit Center  636 is at  -1.637864 -1.897835  0.461348
      ESP Fit Center  637 is at  -4.629729 -0.100571 -0.436822
      ESP Fit Center  638 is at  -4.295260 -1.129961 -0.436822
      ESP Fit Center  639 is at  -3.419608 -1.766159 -0.436822
      ESP Fit Center  640 is at  -2.337244 -1.766159 -0.436822
      ESP Fit Center  641 is at  -3.850326 -0.100571 -1.058375
      ESP Fit Center  642 is at  -3.364376 -0.942261 -1.058375
      ESP Fit Center  643 is at  -4.579604  1.803453  2.240868
      ESP Fit Center  644 is at  -3.299876  3.555974  1.278542
      ESP Fit Center  645 is at  -3.299876  3.555974  0.210442
      ESP Fit Center  646 is at  -2.443561  1.780123  3.567651
      ESP Fit Center  647 is at  -1.483561  1.780123  3.310420
      ESP Fit Center  648 is at  -1.963561  2.611507  3.310420
      ESP Fit Center  649 is at  -2.923561  2.611507  3.310420
      ESP Fit Center  650 is at  -0.780792  1.780123  2.607651
      ESP Fit Center  651 is at  -1.098353  2.757474  2.607651
      ESP Fit Center  652 is at  -1.929737  3.361510  2.607651
      ESP Fit Center  653 is at  -2.957385  3.361510  2.607651
      ESP Fit Center  654 is at  -3.788769  2.757474  2.607651
      ESP Fit Center  655 is at  -1.098353  0.802772  2.607651
      ESP Fit Center  656 is at  -1.483561  3.442892  1.647651
      ESP Fit Center  657 is at  -2.443561  3.700123  1.647651
      ESP Fit Center  658 is at  -3.403561  3.442892  1.647651
      ESP Fit Center  659 is at  -4.265386  3.267336  1.430138
      ESP Fit Center  660 is at  -5.096770  2.663300  1.430138
      ESP Fit Center  661 is at  -5.414331  1.685949  1.430138
      ESP Fit Center  662 is at  -3.751562  3.605949  0.470138
      ESP Fit Center  663 is at  -4.711562  3.348718  0.470138
      ESP Fit Center  664 is at  -5.414331  2.645949  0.470138
      ESP Fit Center  665 is at  -5.671562  1.685949  0.470138
      ESP Fit Center  666 is at  -4.265386  3.267336 -0.489862
      ESP Fit Center  667 is at  -5.096770  2.663300 -0.489862
      ESP Fit Center  668 is at  -5.414331  1.685949 -0.489862
      ESP Fit Center  669 is at  -5.096770  0.708598 -0.489862
      ESP Fit Center  670 is at  -4.231562  2.517333 -1.192631
      ESP Fit Center  671 is at  -4.711562  1.685949 -1.192631
      ESP Fit Center  672 is at  -4.231562  0.854565 -1.192631
      ESP Fit Center  673 is at  -1.011131  3.245324  1.122898
      ESP Fit Center  674 is at  -3.591002  2.067137 -1.869854
      ESP Fit Center  675 is at  -0.749293  1.538495 -2.535803
      ESP Fit Center  676 is at  -2.311274  2.440305 -2.535803
      ESP Fit Center  677 is at  -1.345256  4.162521  0.299950
      ESP Fit Center  678 is at  -2.372904  4.162521  0.299950
      ESP Fit Center  679 is at  -0.899080  4.243903 -0.660050
      ESP Fit Center  680 is at  -1.859080  4.501134 -0.660050
      ESP Fit Center  681 is at  -2.819080  4.243903 -0.660050
      ESP Fit Center  682 is at  -3.521849  3.541134 -0.660050
      ESP Fit Center  683 is at  -2.372904  4.162521 -1.620050
      ESP Fit Center  684 is at  -3.204288  3.558485 -1.620050
      ESP Fit Center  685 is at  -2.339080  3.412518 -2.322819
      ESP Fit Center  686 is at  -2.819080  2.581134 -2.322819
      ESP Fit Center  687 is at  -1.859080  2.581134 -2.580050
      ESP Fit Center  688 is at  -3.710976 -0.026546 -1.238200
      ESP Fit Center  689 is at  -3.008207 -0.729315 -1.238200
      ESP Fit Center  690 is at  -3.393415  1.910805 -2.198200
      ESP Fit Center  691 is at  -3.710976  0.933454 -2.198200
      ESP Fit Center  692 is at  -3.393415 -0.043897 -2.198200
      ESP Fit Center  693 is at  -2.562031 -0.647933 -2.198200
      ESP Fit Center  694 is at  -1.088207  0.933454 -2.900969
      ESP Fit Center  695 is at  -1.568207  1.764838 -2.900969
      ESP Fit Center  696 is at  -2.528207  1.764838 -2.900969
      ESP Fit Center  697 is at  -3.008207  0.933454 -2.900969
      ESP Fit Center  698 is at  -2.528207  0.102070 -2.900969
      ESP Fit Center  699 is at  -1.568207  0.102070 -2.900969
      ESP Fit Center  700 is at  -2.048207  0.933454 -3.158200
      ESP Fit Center  701 is at  -0.460701  1.323420  2.240000
      ESP Fit Center  702 is at   0.511199  1.323420  2.018170
      ESP Fit Center  703 is at   0.025249  2.165110  2.018170
      ESP Fit Center  704 is at   0.956133  2.352810  1.396617
      ESP Fit Center  705 is at   0.080481  2.989008  1.396617
      ESP Fit Center  706 is at   0.520660  0.901810  2.162325
      ESP Fit Center  707 is at   0.520660 -2.281163 -0.534050
      ESP Fit Center  708 is at  -2.034468 -1.486251 -0.874286
      ESP Fit Center  709 is at  -1.331699 -2.189020 -0.874286
      ESP Fit Center  710 is at  -0.371699 -2.446251 -0.874286
      ESP Fit Center  711 is at   0.588301 -2.189020 -0.874286
      ESP Fit Center  712 is at  -1.716907 -1.503602 -1.834286
      ESP Fit Center  713 is at  -0.885523 -2.107638 -1.834286
      ESP Fit Center  714 is at   0.142125 -2.107638 -1.834286
      ESP Fit Center  715 is at  -1.331699 -0.526251 -2.537055
      ESP Fit Center  716 is at  -0.851699 -1.357635 -2.537055
      ESP Fit Center  717 is at   0.108301 -1.357635 -2.537055
      ESP Fit Center  718 is at  -0.371699 -0.526251 -2.794286
      ESP Fit Center  719 is at  -0.356509 -0.524404  2.798626
      ESP Fit Center  720 is at   0.603491 -0.524404  2.541395
      ESP Fit Center  721 is at   0.123491  0.306980  2.541395
      ESP Fit Center  722 is at  -0.836509  0.306980  2.541395
      ESP Fit Center  723 is at   0.123491 -1.355788  2.541395
      ESP Fit Center  724 is at   0.157315 -2.105791  1.838626
      ESP Fit Center  725 is at   0.988699 -1.501755  1.838626
      ESP Fit Center  726 is at  -0.356509 -2.444404  0.878626
      ESP Fit Center  727 is at   2.039982 -0.901810  2.162325
      ESP Fit Center  728 is at   2.821716 -1.013560  1.836009
      ESP Fit Center  729 is at   1.381716 -1.844944  1.836009
      ESP Fit Center  730 is at   2.341716 -1.844944  1.836009
      ESP Fit Center  731 is at   3.524485 -1.013560  1.133240
      ESP Fit Center  732 is at   1.347892 -2.594947  1.133240
      ESP Fit Center  733 is at   2.375540 -2.594947  1.133240
      ESP Fit Center  734 is at   3.206924 -1.990911  1.133240
      ESP Fit Center  735 is at   0.901716 -2.676329  0.173240
      ESP Fit Center  736 is at   1.861716 -2.933560  0.173240
      ESP Fit Center  737 is at   2.821716 -2.676329  0.173240
      ESP Fit Center  738 is at   3.524485 -1.973560  0.173240
      ESP Fit Center  739 is at   1.347892 -2.594947 -0.786760
      ESP Fit Center  740 is at   2.375540 -2.594947 -0.786760
      ESP Fit Center  741 is at   1.890490  0.609052  2.735429
      ESP Fit Center  742 is at   2.850490  0.609052  2.478198
      ESP Fit Center  743 is at   2.370490  1.440436  2.478198
      ESP Fit Center  744 is at   1.410490  1.440436  2.478198
      ESP Fit Center  745 is at   0.930490  0.609052  2.478198
      ESP Fit Center  746 is at   1.410490 -0.222332  2.478198
      ESP Fit Center  747 is at   2.370490 -0.222332  2.478198
      ESP Fit Center  748 is at   3.553259  0.609052  1.775429
      ESP Fit Center  749 is at   3.235698  1.586403  1.775429
      ESP Fit Center  750 is at   2.404314  2.190439  1.775429
      ESP Fit Center  751 is at   1.376666  2.190439  1.775429
      ESP Fit Center  752 is at   3.235698 -0.368299  1.775429
      ESP Fit Center  753 is at   3.810490  0.609052  0.815429
      ESP Fit Center  754 is at   4.280326  0.542498  0.423339
      ESP Fit Center  755 is at   4.015070 -0.447451  0.423339
      ESP Fit Center  756 is at   4.887290  0.542498 -0.485046
      ESP Fit Center  757 is at   4.031376 -1.379916 -0.485046
      ESP Fit Center  758 is at   4.663644 -0.509674 -0.485046
      ESP Fit Center  759 is at   5.100427  0.542498 -1.556560
      ESP Fit Center  760 is at   1.534171 -2.150614 -1.556560
      ESP Fit Center  761 is at   2.558778 -2.245558 -1.556560
      ESP Fit Center  762 is at   3.548494 -1.963959 -1.556560
      ESP Fit Center  763 is at   4.369652 -1.343850 -1.556560
      ESP Fit Center  764 is at   4.911349 -0.468979 -1.556560
      ESP Fit Center  765 is at   4.887290  0.542498 -2.628074
      ESP Fit Center  766 is at  -0.229907  1.080337 -2.628074
      ESP Fit Center  767 is at   1.006996 -1.697791 -2.628074
      ESP Fit Center  768 is at   2.030026 -2.030194 -2.628074
      ESP Fit Center  769 is at   3.099812 -1.917755 -2.628074
      ESP Fit Center  770 is at   4.031376 -1.379916 -2.628074
      ESP Fit Center  771 is at   4.663644 -0.509674 -2.628074
      ESP Fit Center  772 is at   4.280326  0.542498 -3.536459
      ESP Fit Center  773 is at   0.320528  0.542498 -3.536459
      ESP Fit Center  774 is at   0.585784 -0.447451 -3.536459
      ESP Fit Center  775 is at   1.310478 -1.172145 -3.536459
      ESP Fit Center  776 is at   2.300427 -1.437401 -3.536459
      ESP Fit Center  777 is at   3.290376 -1.172145 -3.536459
      ESP Fit Center  778 is at   4.015070 -0.447451 -3.536459
      ESP Fit Center  779 is at   3.371941  0.542498 -4.143423
      ESP Fit Center  780 is at   1.228913  0.542498 -4.143423
      ESP Fit Center  781 is at   1.764670 -0.385460 -4.143423
      ESP Fit Center  782 is at   2.836184 -0.385460 -4.143423
      ESP Fit Center  783 is at   2.300427  0.542498 -4.356560
      ESP Fit Center  784 is at   4.992942  3.235747 -0.644642
      ESP Fit Center  785 is at   4.343689  4.049884 -0.644642
      ESP Fit Center  786 is at   4.992942  1.205321 -0.644642
      ESP Fit Center  787 is at   3.391302  2.195674  1.700608
      ESP Fit Center  788 is at   4.351302  2.195674  1.443377
      ESP Fit Center  789 is at   3.871302  3.027058  1.443377
      ESP Fit Center  790 is at   2.911302  3.027058  1.443377
      ESP Fit Center  791 is at   3.871302  1.364290  1.443377
      ESP Fit Center  792 is at   5.054071  2.195674  0.740608
      ESP Fit Center  793 is at   4.736510  3.173025  0.740608
      ESP Fit Center  794 is at   3.905126  3.777061  0.740608
      ESP Fit Center  795 is at   3.905126  0.614287  0.740608
      ESP Fit Center  796 is at   4.736510  1.218323  0.740608
      ESP Fit Center  797 is at   5.311302  2.195674 -0.219392
      ESP Fit Center  798 is at   5.054071  3.155674 -0.219392
      ESP Fit Center  799 is at   5.054071  1.235674 -0.219392
      ESP Fit Center  800 is at   5.309750  2.423024 -0.961163
      ESP Fit Center  801 is at   4.992189  3.400375 -0.961163
      ESP Fit Center  802 is at   5.566981  2.423024 -1.921163
      ESP Fit Center  803 is at   5.309750  3.383024 -1.921163
      ESP Fit Center  804 is at   4.606981  4.085793 -1.921163
      ESP Fit Center  805 is at   5.309750  1.463024 -1.921163
      ESP Fit Center  806 is at   2.327431  4.248488  1.125661
      ESP Fit Center  807 is at   3.287431  4.248488  0.868430
      ESP Fit Center  808 is at   2.807431  5.079872  0.868430
      ESP Fit Center  809 is at   1.847431  5.079872  0.868430
      ESP Fit Center  810 is at   3.990200  4.248488  0.165661
      ESP Fit Center  811 is at   3.672639  5.225839  0.165661
      ESP Fit Center  812 is at   2.841255  5.829875  0.165661
      ESP Fit Center  813 is at   1.813607  5.829875  0.165661
      ESP Fit Center  814 is at   0.982223  5.225839  0.165661
      ESP Fit Center  815 is at   4.247431  4.248488 -0.794339
      ESP Fit Center  816 is at   3.990200  5.208488 -0.794339
      ESP Fit Center  817 is at   3.287431  5.911257 -0.794339
      ESP Fit Center  818 is at   2.327431  6.168488 -0.794339
      ESP Fit Center  819 is at   1.367431  5.911257 -0.794339
      ESP Fit Center  820 is at   1.058004  3.093979  1.461215
      ESP Fit Center  821 is at   1.538004  3.925363  1.203984
      ESP Fit Center  822 is at   0.578004  3.925363  1.203984
      ESP Fit Center  823 is at   0.544180  4.675366  0.501215
      ESP Fit Center  824 is at  -0.287204  4.071330  0.501215
      ESP Fit Center  825 is at   0.992900  5.706210 -0.727873
      ESP Fit Center  826 is at   0.002951  5.440954 -0.727873
      ESP Fit Center  827 is at  -0.721743  4.716260 -0.727873
      ESP Fit Center  828 is at   1.792285  6.186564 -1.636258
      ESP Fit Center  829 is at   0.722499  6.299003 -1.636258
      ESP Fit Center  830 is at  -0.300531  5.966600 -1.636258
      ESP Fit Center  831 is at  -1.099916  5.246831 -1.636258
      ESP Fit Center  832 is at  -1.537434  4.264150 -1.636258
      ESP Fit Center  833 is at   1.251251  6.514367 -2.707772
      ESP Fit Center  834 is at   0.226644  6.419423 -2.707772
      ESP Fit Center  835 is at  -0.694477  5.960759 -2.707772
      ESP Fit Center  836 is at  -1.387708  5.200321 -2.707772
      ESP Fit Center  837 is at  -1.759425  4.240810 -2.707772
      ESP Fit Center  838 is at  -1.759425  3.211812 -2.707772
      ESP Fit Center  839 is at  -1.387708  2.252301 -2.707772
      ESP Fit Center  840 is at  -0.694477  1.491863 -2.707772
      ESP Fit Center  841 is at  -0.300531  5.966600 -3.779286
      ESP Fit Center  842 is at  -1.099916  5.246831 -3.779286
      ESP Fit Center  843 is at  -1.537434  4.264150 -3.779286
      ESP Fit Center  844 is at  -1.537434  3.188472 -3.779286
      ESP Fit Center  845 is at  -1.099916  2.205791 -3.779286
      ESP Fit Center  846 is at  -0.300531  1.486022 -3.779286
      ESP Fit Center  847 is at   0.002951  5.440954 -4.687671
      ESP Fit Center  848 is at  -0.721743  4.716260 -4.687671
      ESP Fit Center  849 is at  -0.986999  3.726311 -4.687671
      ESP Fit Center  850 is at  -0.721743  2.736362 -4.687671
      ESP Fit Center  851 is at   0.002951  2.011668 -4.687671
      ESP Fit Center  852 is at   0.992900  1.746412 -4.687671
      ESP Fit Center  853 is at   0.457143  4.654269 -5.294635
      ESP Fit Center  854 is at  -0.078614  3.726311 -5.294635
      ESP Fit Center  855 is at   2.031434  6.373394 -2.213143
      ESP Fit Center  856 is at   2.819133  6.797260 -3.175469
      ESP Fit Center  857 is at   3.551654  5.711948 -1.381776
      ESP Fit Center  858 is at   4.416862  5.857915 -2.084545
      ESP Fit Center  859 is at   3.585478  6.461951 -2.084545
      ESP Fit Center  860 is at   2.557830  6.461951 -2.084545
      ESP Fit Center  861 is at   4.031654  6.543333 -3.044545
      ESP Fit Center  862 is at   3.071654  6.800564 -3.044545
      ESP Fit Center  863 is at   2.368082  6.963150 -3.221973
      ESP Fit Center  864 is at   1.340434  6.963150 -3.221973
      ESP Fit Center  865 is at   2.814258  7.044532 -4.181973
      ESP Fit Center  866 is at   1.854258  7.301763 -4.181973
      ESP Fit Center  867 is at   0.894258  7.044532 -4.181973
      ESP Fit Center  868 is at   0.191489  6.341763 -4.181973
      ESP Fit Center  869 is at   2.368082  6.963150 -5.141973
      ESP Fit Center  870 is at   1.340434  6.963150 -5.141973
      ESP Fit Center  871 is at   0.509050  6.359114 -5.141973
      ESP Fit Center  872 is at   0.191489  5.381763 -5.141973
      ESP Fit Center  873 is at   1.374258  6.213147 -5.844742
      ESP Fit Center  874 is at   0.894258  5.381763 -5.844742
      ESP Fit Center  875 is at   2.353220  1.312307 -5.317835
      ESP Fit Center  876 is at   2.338440  1.035311 -4.351268
      ESP Fit Center  877 is at   3.298440  0.778080 -4.351268
      ESP Fit Center  878 is at   2.784616  1.116693 -5.311268
      ESP Fit Center  879 is at   3.812264  1.116693 -5.311268
      ESP Fit Center  880 is at   0.418917  4.230288 -5.446568
      ESP Fit Center  881 is at   0.161686  3.270288 -5.446568
      ESP Fit Center  882 is at   0.418917  2.310288 -5.446568
      ESP Fit Center  883 is at   1.121686  1.607519 -5.446568
      ESP Fit Center  884 is at   2.081686  1.350288 -5.446568
      ESP Fit Center  885 is at   0.736478  4.247639 -6.406568
      ESP Fit Center  886 is at   0.418917  3.270288 -6.406568
      ESP Fit Center  887 is at   0.736478  2.292937 -6.406568
      ESP Fit Center  888 is at   1.567862  1.688901 -6.406568
      ESP Fit Center  889 is at   2.595510  1.688901 -6.406568
      ESP Fit Center  890 is at   1.601686  4.101672 -7.109337
      ESP Fit Center  891 is at   1.121686  3.270288 -7.109337
      ESP Fit Center  892 is at   1.601686  2.438904 -7.109337
      ESP Fit Center  893 is at   4.098780  6.383470 -3.879810
      ESP Fit Center  894 is at   4.898165  6.863824 -4.788195
      ESP Fit Center  895 is at   3.828379  6.976263 -4.788195
      ESP Fit Center  896 is at   5.346847  6.910028 -5.859709
      ESP Fit Center  897 is at   4.357131  7.191627 -5.859709
      ESP Fit Center  898 is at   3.332524  7.096683 -5.859709
      ESP Fit Center  899 is at   2.411403  6.638019 -5.859709
      ESP Fit Center  900 is at   4.357131  1.615515 -5.859709
      ESP Fit Center  901 is at   5.829729  6.325985 -6.931223
      ESP Fit Center  902 is at   4.898165  6.863824 -6.931223
      ESP Fit Center  903 is at   3.828379  6.976263 -6.931223
      ESP Fit Center  904 is at   2.805349  6.643860 -6.931223
      ESP Fit Center  905 is at   2.005964  5.924091 -6.931223
      ESP Fit Center  906 is at   1.568446  4.941410 -6.931223
      ESP Fit Center  907 is at   2.805349  2.163282 -6.931223
      ESP Fit Center  908 is at   3.828379  1.830879 -6.931223
      ESP Fit Center  909 is at   4.898165  1.943318 -6.931223
      ESP Fit Center  910 is at   6.078679  4.403571 -7.839608
      ESP Fit Center  911 is at   5.813423  5.393520 -7.839608
      ESP Fit Center  912 is at   5.088729  6.118214 -7.839608
      ESP Fit Center  913 is at   4.098780  6.383470 -7.839608
      ESP Fit Center  914 is at   3.108831  6.118214 -7.839608
      ESP Fit Center  915 is at   2.384137  5.393520 -7.839608
      ESP Fit Center  916 is at   2.118881  4.403571 -7.839608
      ESP Fit Center  917 is at   2.384137  3.413622 -7.839608
      ESP Fit Center  918 is at   3.108831  2.688928 -7.839608
      ESP Fit Center  919 is at   4.098780  2.423672 -7.839608
      ESP Fit Center  920 is at   5.088729  2.688928 -7.839608
      ESP Fit Center  921 is at   5.813423  3.413622 -7.839608
      ESP Fit Center  922 is at   5.170294  4.403571 -8.446572
      ESP Fit Center  923 is at   4.634537  5.331529 -8.446572
      ESP Fit Center  924 is at   3.563023  5.331529 -8.446572
      ESP Fit Center  925 is at   3.027266  4.403571 -8.446572
      ESP Fit Center  926 is at   3.563023  3.475613 -8.446572
      ESP Fit Center  927 is at   4.634537  3.475613 -8.446572
      ESP Fit Center  928 is at   4.098780  4.403571 -8.659709
      ESP Fit Center  929 is at   7.179488  5.419859 -3.334733
      ESP Fit Center  930 is at   5.080304  6.686566 -4.297059
      ESP Fit Center  931 is at   7.922142  5.119444 -4.351335
      ESP Fit Center  932 is at   7.604581  6.096795 -4.351335
      ESP Fit Center  933 is at   6.773197  6.700831 -4.351335
      ESP Fit Center  934 is at   8.179373  5.119444 -5.311335
      ESP Fit Center  935 is at   7.922142  6.079444 -5.311335
      ESP Fit Center  936 is at   7.219373  6.782213 -5.311335
      ESP Fit Center  937 is at   6.259373  7.039444 -5.311335
      ESP Fit Center  938 is at   7.922142  5.119444 -6.271335
      ESP Fit Center  939 is at   7.604581  6.096795 -6.271335
      ESP Fit Center  940 is at   6.773197  6.700831 -6.271335
      ESP Fit Center  941 is at   5.745549  6.700831 -6.271335
      ESP Fit Center  942 is at   7.219373  5.119444 -6.974104
      ESP Fit Center  943 is at   6.739373  5.950828 -6.974104
      ESP Fit Center  944 is at   6.739373  4.288060 -6.974104
      ESP Fit Center  945 is at   5.368239  4.808102 -1.932379
      ESP Fit Center  946 is at   6.328239  4.808102 -2.189610
      ESP Fit Center  947 is at   5.848239  5.639486 -2.189610
      ESP Fit Center  948 is at   4.888239  5.639486 -2.189610
      ESP Fit Center  949 is at   4.888239  3.976718 -2.189610
      ESP Fit Center  950 is at   5.848239  3.976718 -2.189610
      ESP Fit Center  951 is at   7.031008  4.808102 -2.892379
      ESP Fit Center  952 is at   6.713447  5.785453 -2.892379
      ESP Fit Center  953 is at   5.882063  6.389489 -2.892379
      ESP Fit Center  954 is at   4.854415  6.389489 -2.892379
      ESP Fit Center  955 is at   5.368239  6.728102 -3.852379
      ESP Fit Center  956 is at   4.408239  6.470871 -3.852379
      ESP Fit Center  957 is at   6.296563  3.052218 -2.312915
      ESP Fit Center  958 is at   7.076046  1.345389 -3.216539
      ESP Fit Center  959 is at   6.817223  0.771055 -4.178865
      ESP Fit Center  960 is at   7.755421  1.222868 -4.178865
      ESP Fit Center  961 is at   6.817223  0.771055 -5.246965
      ESP Fit Center  962 is at   7.755421  1.222868 -5.246965
      ESP Fit Center  963 is at   8.404674  2.037005 -5.246965
      ESP Fit Center  964 is at   7.875087  4.066674 -6.209291
      ESP Fit Center  965 is at   8.493452  2.674602 -5.690128
      ESP Fit Center  966 is at   6.573452  0.754602 -5.690128
      ESP Fit Center  967 is at   7.533452  1.011833 -5.690128
      ESP Fit Center  968 is at   8.236221  1.714602 -5.690128
      ESP Fit Center  969 is at   8.236221  2.674602 -6.650128
      ESP Fit Center  970 is at   7.918660  3.651953 -6.650128
      ESP Fit Center  971 is at   5.228244  1.697251 -6.650128
      ESP Fit Center  972 is at   6.059628  1.093215 -6.650128
      ESP Fit Center  973 is at   7.087276  1.093215 -6.650128
      ESP Fit Center  974 is at   7.918660  1.697251 -6.650128
      ESP Fit Center  975 is at   7.533452  2.674602 -7.352897
      ESP Fit Center  976 is at   7.053452  3.505986 -7.352897
      ESP Fit Center  977 is at   6.093452  1.843218 -7.352897
      ESP Fit Center  978 is at   7.053452  1.843218 -7.352897
      ESP Fit Center  979 is at   6.573452  2.674602 -7.610128
      ESP Fit Center  980 is at   7.198556  3.148051 -2.194655
      ESP Fit Center  981 is at   8.158556  3.148051 -2.451886
      ESP Fit Center  982 is at   7.678556  3.979435 -2.451886
      ESP Fit Center  983 is at   6.718556  3.979435 -2.451886
      ESP Fit Center  984 is at   6.718556  2.316667 -2.451886
      ESP Fit Center  985 is at   7.678556  2.316667 -2.451886
      ESP Fit Center  986 is at   8.861325  3.148051 -3.154655
      ESP Fit Center  987 is at   8.543764  4.125402 -3.154655
      ESP Fit Center  988 is at   7.712380  4.729438 -3.154655
      ESP Fit Center  989 is at   7.712380  1.566664 -3.154655
      ESP Fit Center  990 is at   8.543764  2.170700 -3.154655
      ESP Fit Center  991 is at   9.118556  3.148051 -4.114655
      ESP Fit Center  992 is at   8.861325  4.108051 -4.114655
      ESP Fit Center  993 is at   8.158556  4.810820 -4.114655
      ESP Fit Center  994 is at   8.158556  1.485282 -4.114655
      ESP Fit Center  995 is at   8.861325  2.188051 -4.114655
      ESP Fit Center  996 is at   8.861325  3.148051 -5.074655
      ESP Fit Center  997 is at   8.543764  4.125402 -5.074655
      ESP Fit Center  998 is at   8.543764  2.170700 -5.074655
      ESP Fit Center  999 is at   5.663138  2.311738 -2.317051
      ESP Fit Center 1000 is at   6.143138  1.480354 -2.574282
      ESP Fit Center 1001 is at   5.149314  0.730351 -3.277051
      ESP Fit Center 1002 is at   6.176962  0.730351 -3.277051
      ESP Fit Center 1003 is at   4.703138  0.648969 -4.237051
      ESP Fit Center 1004 is at   5.663138  0.391738 -4.237051
      ESP Fit Center 1005 is at   6.623138  0.648969 -4.237051
      ESP Fit Center 1006 is at   5.149314  0.730351 -5.197051
      ESP Fit Center 1007 is at  -2.996141 -5.335499  6.274380
      ESP Fit Center 1008 is at  -4.311371 -3.902801  5.689093
      ESP Fit Center 1009 is at  -4.311371 -4.978563  5.689093
      ESP Fit Center 1010 is at  -3.729770 -5.883550  5.689093
      ESP Fit Center 1011 is at  -2.751224 -6.330438  5.689093
      ESP Fit Center 1012 is at  -0.873407 -5.472867  5.689093
      ESP Fit Center 1013 is at   0.014957 -4.440682  4.813150
      ESP Fit Center 1014 is at  -4.034798 -6.390941  4.813150
      ESP Fit Center 1015 is at  -4.034798 -6.390941  2.746660
      ESP Fit Center 1016 is at  -3.729770 -5.883550  1.870717
      ESP Fit Center 1017 is at  -2.751224 -6.330438  1.870717
      ESP Fit Center 1018 is at  -4.640009 -4.502186  5.573800
      ESP Fit Center 1019 is at  -5.354851 -3.975173  4.783185
      ESP Fit Center 1020 is at  -5.354851 -5.029199  4.783185
      ESP Fit Center 1021 is at  -4.785001 -5.915902  4.783185
      ESP Fit Center 1022 is at  -5.657243 -3.985264  3.703185
      ESP Fit Center 1023 is at  -5.657243 -5.019108  3.703185
      ESP Fit Center 1024 is at  -5.176792 -5.934531  3.703185
      ESP Fit Center 1025 is at  -4.325956 -6.521821  3.703185
      ESP Fit Center 1026 is at  -5.354851 -5.029199  2.623185
      ESP Fit Center 1027 is at  -4.785001 -5.915902  2.623185
      ESP Fit Center 1028 is at  -4.640009 -4.502186  1.832570
      ESP Fit Center 1029 is at  -4.100009 -5.437493  1.832570
      ESP Fit Center 1030 is at  -1.550258 -6.389638  5.635422
      ESP Fit Center 1031 is at  -3.315250 -6.868047  4.844807
      ESP Fit Center 1032 is at  -2.356474 -7.305906  4.844807
      ESP Fit Center 1033 is at  -1.313176 -7.155902  4.844807
      ESP Fit Center 1034 is at  -0.516597 -6.465662  4.844807
      ESP Fit Center 1035 is at   0.069742 -5.454331  3.764807
      ESP Fit Center 1036 is at  -3.707041 -6.886676  3.764807
      ESP Fit Center 1037 is at  -2.856205 -7.473966  3.764807
      ESP Fit Center 1038 is at  -1.829899 -7.598582  3.764807
      ESP Fit Center 1039 is at  -0.863238 -7.231976  3.764807
      ESP Fit Center 1040 is at  -0.177673 -6.458133  3.764807
      ESP Fit Center 1041 is at  -3.315250 -6.868047  2.684807
      ESP Fit Center 1042 is at  -2.356474 -7.305906  2.684807
      ESP Fit Center 1043 is at  -1.313176 -7.155902  2.684807
      ESP Fit Center 1044 is at  -0.516597 -6.465662  2.684807
      ESP Fit Center 1045 is at  -2.630258 -6.389638  1.894192
      ESP Fit Center 1046 is at  -1.550258 -6.389638  1.894192
      ESP Fit Center 1047 is at  -2.231168 -3.992858  6.896171
      ESP Fit Center 1048 is at  -1.151168 -3.992858  6.606786
[...]
 1247 Fit       0.011781
 1248 Fit       0.010778
 1249 Fit       0.002555
 1250 Fit       0.003931
 1251 Fit       0.002373
 1252 Fit      -0.002474
 1253 Fit      -0.004798
 1254 Fit      -0.009391
 1255 Fit      -0.010814
 1256 Fit      -0.008951
 1257 Fit      -0.012279
 1258 Fit      -0.017363
 1259 Fit      -0.016286
 1260 Fit      -0.008729
 1261 Fit      -0.003928
 1262 Fit      -0.006574
 1263 Fit      -0.011785
 1264 Fit      -0.017663
 1265 Fit      -0.020599
 1266 Fit      -0.017842
 1267 Fit      -0.005861
 1268 Fit      -0.029335
 1269 Fit      -0.019938
 1270 Fit      -0.015193
 1271 Fit      -0.013934
 1272 Fit      -0.015752
 1273 Fit      -0.019112
 1274 Fit      -0.020663
 1275 Fit      -0.017003
 1276 Fit      -0.005925
 1277 Fit      -0.034031
 1278 Fit      -0.025782
 1279 Fit      -0.021415
 1280 Fit      -0.020381
 1281 Fit      -0.020348
 1282 Fit      -0.016883
 1283 Fit      -0.011253
 1284 Fit      -0.029071
 1285 Fit      -0.024032
 1286 Fit      -0.019919
 1287 Fit      -0.020089
 1288 Fit       0.014383
 1289 Fit       0.017010
 1290 Fit      -0.002534
 1291 Fit       0.011411
 1292 Fit       0.010107
 1293 Fit       0.011002
 1294 Fit       0.010111
 1295 Fit       0.010053
 1296 Fit       0.008276
 1297 Fit       0.010577
 1298 Fit       0.012167
 1299 Fit       0.005048
 1300 Fit       0.006502
 1301 Fit       0.010454
 1302 Fit       0.000190
 1303 Fit       0.009024
 1304 Fit       0.014981
 1305 Fit       0.001785
 1306 Fit       0.004492
 1307 Fit       0.006361
 1308 Fit       0.010880
 1309 Fit       0.007883
 1310 Fit       0.003684
 1311 Fit       0.013612
 1312 Fit       0.011702
 1313 Fit       0.008775
 1314 Fit       0.004242
 1315 Fit      -0.001038
 1316 Fit       0.015490
 1317 Fit       0.011966
 1318 Fit       0.006238
 1319 Fit      -0.002199
 1320 Fit      -0.002909
 1321 Fit      -0.001903
 1322 Fit      -0.003170
 1323 Fit      -0.010527
 1324 Fit      -0.008296
 1325 Fit      -0.009425
 1326 Fit      -0.016041
 1327 Fit      -0.016968
 1328 Fit      -0.011318
 1329 Fit      -0.005960
 1330 Fit      -0.014152
 1331 Fit      -0.019218
 1332 Fit      -0.019872
 1333 Fit      -0.016160
 1334 Fit      -0.009698
 1335 Fit      -0.016044
 1336 Fit      -0.018670
 1337 Fit      -0.018194
 1338 Fit      -0.016709
 1339 Fit      -0.017224
 1340 Fit      -0.021580
 1341 Fit      -0.031904
 1342 Fit      -0.012961
 1343 Fit      -0.015683
 1344 Fit      -0.017364
 1345 Fit      -0.020161
 1346 Fit      -0.025197
 1347 Fit      -0.031957
 1348 Fit      -0.009483
 1349 Fit      -0.013604
 1350 Fit      -0.017621
 1351 Fit      -0.020877
 1352 Fit      -0.005829
 1353 Fit      -0.003273
 1354 Fit      -0.002728
 1355 Fit       0.015628
 1356 Fit       0.009809
 1357 Fit       0.004753
 1358 Fit       0.006835
 1359 Fit       0.002009
 1360 Fit      -0.003059
 1361 Fit      -0.006585
 1362 Fit      -0.003421
 1363 Fit      -0.002746
 1364 Fit      -0.005052
 1365 Fit      -0.005352
 1366 Fit      -0.002886
 1367 Fit      -0.003219
 1368 Fit      -0.006728
 1369 Fit      -0.001997
 1370 Fit      -0.021358
 1371 Fit      -0.010525
 1372 Fit      -0.007043
 1373 Fit      -0.015637
 1374 Fit      -0.015515
 1375 Fit      -0.001760
 1376 Fit      -0.002468
 1377 Fit      -0.004722
 1378 Fit      -0.006833
 1379 Fit      -0.008588
 1380 Fit      -0.003603
 1381 Fit      -0.006027
 1382 Fit      -0.008036
 1383 Fit      -0.012540
 1384 Fit      -0.016811
 1385 Fit      -0.013681
 1386 Fit      -0.006798
 1387 Fit      -0.015913
 1388 Fit      -0.020491
 1389 Fit      -0.019088
 1390 Fit      -0.012603
 1391 Fit      -0.005148
 1392 Fit      -0.013939
 1393 Fit      -0.014759
 1394 Fit      -0.002444
 1395 Fit      -0.001333
 1396 Fit      -0.005951
 1397 Fit      -0.013589
 1398 Fit      -0.019652
 1399 Fit      -0.021155
 1400 Fit      -0.017712
 1401 Fit      -0.011819
 1402 Fit      -0.006708
 1403 Fit      -0.016585
 1404 Fit      -0.020382
 1405 Fit      -0.018874
 1406 Fit      -0.012046
 1407 Fit      -0.011385
 1408 Fit      -0.015154
 1409 Fit      -0.019510
 1410 Fit      -0.020226
 1411 Fit      -0.017154
 1412 Fit      -0.014049
 1413 Fit      -0.014782
 1414 Fit      -0.019382
 1415 Fit      -0.023013
 1416 Fit      -0.021691
 1417 Fit      -0.016515
 1418 Fit      -0.018851
 1419 Fit      -0.018865
 1420 Fit      -0.020324
 1421 Fit      -0.019480
 1422 Fit      -0.021798
 1423 Fit      -0.022535
 1424 Fit      -0.021412
 1425 Fit       0.008302
 1426 Fit       0.004576
 1427 Fit       0.007253
 1428 Fit       0.005499
 1429 Fit       0.007078
 1430 Fit       0.006915
 1431 Fit       0.005524
 1432 Fit       0.002178
 1433 Fit       0.005427
 1434 Fit       0.005375
 1435 Fit       0.003128
 1436 Fit      -0.002909
 1437 Fit       0.002226
 1438 Fit       0.000783
 1439 Fit       0.016584
 1440 Fit       0.012161
 1441 Fit       0.012262
 1442 Fit       0.016395
 1443 Fit       0.014153
 1444 Fit       0.008914
 1445 Fit       0.008253
 1446 Fit       0.008645
 1447 Fit       0.002874
 1448 Fit      -0.000557
 1449 Fit       0.009274
 1450 Fit       0.004175
 1451 Fit       0.000631
 1452 Fit      -0.000117
 1453 Fit      -0.002442
 1454 Fit      -0.000794
 1455 Fit       0.001376
 1456 Fit       0.003970
 1457 Fit      -0.006235
 1458 Fit      -0.003408
 1459 Fit      -0.001415
 1460 Fit      -0.000178
 1461 Fit       0.000799
 1462 Fit       0.001780
 1463 Fit      -0.011532
 1464 Fit      -0.005109
 1465 Fit      -0.001731
 1466 Fit      -0.000009
 1467 Fit      -0.000983
 1468 Fit      -0.002740
 1469 Fit      -0.009055
 1470 Fit      -0.002684
 1471 Fit      -0.007157
 1472 Fit       0.007451
 1473 Fit       0.006812
 1474 Fit       0.008744
 1475 Fit       0.004401
 1476 Fit       0.006194
 1477 Fit       0.007581
 1478 Fit       0.008882
 1479 Fit       0.001685
 1480 Fit       0.004180
 1481 Fit       0.004697
 1482 Fit       0.006176
 1483 Fit       0.007910
 1484 Fit       0.000627
 1485 Fit       0.002855
 1486 Fit       0.002505
 1487 Fit       0.004739
 1488 Fit       0.001684
 1489 Fit      -0.004739
 1490 Fit      -0.001771
 1491 Fit      -0.005446
 1492 Fit      -0.003952
 1493 Fit      -0.006073
 1494 Fit      -0.005812
 1495 Fit       0.003612
 1496 Fit       0.004729
 1497 Fit       0.004381
 1498 Fit       0.003781
 1499 Fit       0.003786
 1500 Fit       0.003990
 1501 Fit       0.003896
 1502 Fit       0.004286
 1503 Fit       0.004488
 1504 Fit       0.004837
 1505 Fit       0.005529
 1506 Fit       0.007008
 1507 Fit       0.006464
 1508 Fit       0.007370
 1509 Fit       0.009386
 1510 Fit       0.008143
 1511 Fit       0.007043
 1512 Fit       0.005593
 1513 Fit       0.009981
 1514 Fit       0.008218
 1515 Fit       0.006609
 1516 Fit       0.011465
 1517 Fit       0.009296
 1518 Fit       0.007565
 1519 Fit       0.010734
 1520 Fit       0.008768
 1521 Fit       0.004312
 1522 Fit       0.005505
 1523 Fit       0.005879
 1524 Fit       0.005559
 1525 Fit       0.005673
 1526 Fit       0.006475
 1527 Fit       0.007077
 1528 Fit       0.007213
 1529 Fit       0.007035
 1530 Fit       0.006509
 1531 Fit       0.007218
 1532 Fit       0.007863
 1533 Fit       0.008196
 1534 Fit       0.008535
 1535 Fit       0.008038
 1536 Fit       0.008692
 1537 Fit       0.009514
 1538 Fit       0.004164
 1539 Fit       0.003918
 1540 Fit       0.003320
 1541 Fit       0.003725
 1542 Fit       0.004139
 1543 Fit       0.003903
 1544 Fit       0.003975
 1545 Fit       0.003493
 1546 Fit       0.001878
 1547 Fit       0.000071
 1548 Fit       0.000776
 1549 Fit       0.003237
 1550 Fit       0.004410
 1551 Fit       0.003883
 1552 Fit       0.003765
 1553 Fit       0.000436
 1554 Fit      -0.005652
 1555 Fit      -0.002954
 1556 Fit       0.007453
 1557 Fit       0.003022
 1558 Fit      -0.005931
 1559 Fit       0.003477
 1560 Fit       0.004363
 1561 Fit       0.000021
 1562 Fit       0.006447
 1563 Fit       0.005307
 1564 Fit       0.002260
 1565 Fit      -0.005086
 1566 Fit       0.008295
 1567 Fit       0.006881
 1568 Fit       0.005913
 1569 Fit       0.004247
 1570 Fit       0.008001
 1571 Fit       0.006828
 1572 Fit       0.005727
 1573 Fit       0.006175
 1574 Fit       0.010679
 1575 Fit       0.009259
 1576 Fit       0.008955
 1577 Fit       0.008943
 1578 Fit       0.009160
 1579 Fit       0.008161
 1580 Fit       0.007574
 1581 Fit       0.006763
 1582 Fit       0.005372
 1583 Fit       0.002302
 1584 Fit      -0.002186
 1585 Fit       0.005457
 1586 Fit       0.006024
 1587 Fit       0.004890
 1588 Fit       0.002820
 1589 Fit      -0.010067
 1590 Fit      -0.004758
 1591 Fit      -0.012896
 1592 Fit      -0.012989
 1593 Fit      -0.012497
 1594 Fit      -0.015559
 1595 Fit      -0.002426
 1596 Fit       0.006203
 1597 Fit       0.012232
 1598 Fit       0.011542
 1599 Fit       0.011824
 1600 Fit       0.005661
 1601 Fit       0.008514
 1602 Fit       0.009228
 1603 Fit       0.012159
 1604 Fit       0.011457
 1605 Fit       0.011055
 1606 Fit       0.013687
 1607 Fit       0.012257
 1608 Fit       0.011874
 1609 Fit       0.012916
 1610 Fit       0.012000
 1611 Fit       0.012551
 1612 Fit       0.010496
 1613 Fit       0.009880
 1614 Fit       0.009894
 1615 Fit       0.010623
 1616 Fit       0.005702
 1617 Fit       0.007142
 1618 Fit       0.007558
 1619 Fit       0.007742
 1620 Fit      -0.007394
 1621 Fit       0.002266
 1622 Fit       0.003949
 1623 Fit       0.001548
 1624 Fit      -0.002721
 1625 Fit       0.009800
 1626 Fit       0.011325
 1627 Fit       0.009964
 1628 Fit       0.003023
 1629 Fit       0.010547
 1630 Fit       0.011348
 1631 Fit       0.013055
 1632 Fit       0.010904
 1633 Fit       0.010393
 1634 Fit       0.010594
 1635 Fit       0.011327
 1636 Fit       0.012867
 1637 Fit       0.010471
 1638 Fit       0.009910
 1639 Fit       0.010169
 1640 Fit       0.011131
 1641 Fit       0.008267
 1642 Fit       0.008211
 1643 Fit       0.008989
 1644 Fit       0.004217
 1645 Fit       0.003965
 1646 Fit      -0.001460
 1647 Fit       0.004042
 1648 Fit       0.006965
 1649 Fit       0.008054
 1650 Fit       0.005064
 1651 Fit      -0.003418
 1652 Fit      -0.008279
 1653 Fit       0.000139
 1654 Fit       0.005141
 1655 Fit       0.007588
 1656 Fit       0.008876
 1657 Fit      -0.002159
 1658 Fit      -0.005625
 1659 Fit      -0.007780
 1660 Fit      -0.010563
 1661 Fit      -0.009184
 1662 Fit       0.008283
 1663 Fit       0.006071
 1664 Fit       0.007722
 1665 Fit       0.008041
 1666 Fit       0.002053
 1667 Fit       0.000981
 1668 Fit       0.004291
 1669 Fit       0.007104
 1670 Fit      -0.004614
 1671 Fit      -0.000428
 1672 Fit       0.003527
 1673 Fit       0.006102
 1674 Fit       0.007888
 1675 Fit      -0.008697
 1676 Fit      -0.000684
 1677 Fit       0.003993
 1678 Fit       0.006575
 1679 Fit       0.008992
 1680 Fit       0.010476
 1681 Fit       0.008075
 1682 Fit       0.008229
 1683 Fit       0.008885
 1684 Fit       0.010062
 1685 Fit       0.007563
 1686 Fit       0.007505
 1687 Fit       0.007746
 1688 Fit       0.007778
 1689 Fit       0.006963
 1690 Fit       0.006542
 1691 Fit       0.006274
 1692 Fit       0.004922
 1693 Fit       0.004663
 1694 Fit      -0.001520
 1695 Fit       0.003743
 1696 Fit       0.004888
 1697 Fit       0.000035
 1698 Fit      -0.011530
 1699 Fit      -0.001001
 1700 Fit       0.003791
 1701 Fit      -0.004211
 1702 Fit       0.000968
 1703 Fit       0.005643
 1704 Fit      -0.004331
 1705 Fit       0.001740
 1706 Fit       0.005959
 1707 Fit      -0.002967
 1708 Fit       0.001530
 1709 Fit       0.002800
 1710 Fit      -0.002664
 1711 Fit      -0.007370
 1712 Fit      -0.007843
 1713 Fit       0.000373
 1714 Fit      -0.000740
 1715 Fit      -0.002972
 1716 Fit      -0.004534
 1717 Fit      -0.022368
 1718 Fit      -0.008266
 1719 Fit      -0.003855
 1720 Fit      -0.005109
 1721 Fit      -0.010954
 1722 Fit      -0.010489
 1723 Fit      -0.008437
 1724 Fit      -0.007014
 1725 Fit      -0.006074
 1726 Fit      -0.005048
 1727 Fit      -0.010074
 1728 Fit       0.003229
 1729 Fit       0.002884
 1730 Fit      -0.011448
 1731 Fit      -0.010838
 1732 Fit      -0.005194
 1733 Fit      -0.001551
 1734 Fit       0.000370
 1735 Fit      -0.004235
 1736 Fit      -0.003522
 1737 Fit      -0.008430
 1738 Fit      -0.007829
 1739 Fit      -0.005257
 1740 Fit      -0.007528
 1741 Fit      -0.012874
 1742 Fit       0.002169
 1743 Fit       0.003320
 1744 Fit       0.002698
 1745 Fit       0.001136
 1746 Fit       0.002282
 1747 Fit       0.003806
 1748 Fit       0.005797
 1749 Fit       0.004732
 1750 Fit       0.002888
 1751 Fit       0.005810
 1752 Fit       0.004696
 1753 Fit       0.002312
 1754 Fit      -0.000916
 1755 Fit       0.003888
 1756 Fit       0.002124
 1757 Fit      -0.001541
 1758 Fit       0.002571
 1759 Fit       0.005250
 1760 Fit       0.005276
 1761 Fit       0.000749
 1762 Fit      -0.002427
 1763 Fit       0.003222
 1764 Fit       0.006189
 1765 Fit       0.008989
 1766 Fit       0.008073
 1767 Fit       0.002049
 1768 Fit       0.003878
 1769 Fit       0.004015
 1770 Fit      -0.001043
 1771 Fit      -0.004605
 1772 Fit      -0.005549
 1773 Fit      -0.004949
 1774 Fit      -0.007739
 1775 Fit      -0.011152
 1776 Fit      -0.010161
 1777 Fit      -0.006248
 1778 Fit      -0.001444
 1779 Fit      -0.005033
 1780 Fit      -0.009738
 1781 Fit      -0.013596
 1782 Fit      -0.014782
 1783 Fit      -0.012314
 1784 Fit      -0.007297
 1785 Fit      -0.009186
 1786 Fit      -0.012426
 1787 Fit      -0.015430
 1788 Fit      -0.016118
 1789 Fit      -0.012911
 1790 Fit      -0.026103
 1791 Fit      -0.018752
 1792 Fit      -0.015020
 1793 Fit      -0.013750
 1794 Fit      -0.014516
 1795 Fit      -0.016123
 1796 Fit      -0.016338
 1797 Fit      -0.012808
 1798 Fit      -0.027900
 1799 Fit      -0.021907
 1800 Fit      -0.018656
 1801 Fit      -0.017525
 1802 Fit      -0.016848
 1803 Fit      -0.013736
 1804 Fit      -0.023398
 1805 Fit      -0.020067
 1806 Fit      -0.016832
 1807 Fit      -0.016967
 1808 Fit       0.005769
 1809 Fit       0.010112
 1810 Fit       0.013436
 1811 Fit      -0.001095
 1812 Fit       0.009716
 1813 Fit       0.008805
 1814 Fit       0.009445
 1815 Fit       0.008653
 1816 Fit       0.008957
 1817 Fit       0.007562
 1818 Fit       0.009325
 1819 Fit       0.010363
 1820 Fit       0.005342
 1821 Fit       0.006239
 1822 Fit       0.009137
 1823 Fit       0.011451
 1824 Fit       0.002052
 1825 Fit       0.007212
 1826 Fit       0.011998
 1827 Fit       0.016528
 1828 Fit       0.003768
 1829 Fit       0.005698
 1830 Fit       0.001557
 1831 Fit      -0.003560
 1832 Fit       0.009395
 1833 Fit       0.006722
 1834 Fit       0.003392
 1835 Fit       0.009782
 1836 Fit       0.007246
 1837 Fit       0.003715
 1838 Fit      -0.000055
 1839 Fit       0.012484
 1840 Fit       0.009987
 1841 Fit       0.006197
 1842 Fit       0.001070
 1843 Fit      -0.002491
 1844 Fit      -0.001857
 1845 Fit      -0.002428
 1846 Fit      -0.006454
 1847 Fit      -0.004944
 1848 Fit      -0.005745
 1849 Fit      -0.010619
 1850 Fit      -0.010992
 1851 Fit      -0.002468
 1852 Fit      -0.009185
 1853 Fit      -0.013490
 1854 Fit      -0.014617
 1855 Fit      -0.012039
 1856 Fit      -0.005570
 1857 Fit      -0.010561
 1858 Fit      -0.014083
 1859 Fit      -0.015295
 1860 Fit      -0.014188
 1861 Fit      -0.011457
 1862 Fit      -0.009690
 1863 Fit      -0.012993
 1864 Fit      -0.014090
 1865 Fit      -0.013948
 1866 Fit      -0.014102
 1867 Fit      -0.015998
 1868 Fit      -0.020664
 1869 Fit      -0.009609
 1870 Fit      -0.012050
 1871 Fit      -0.013784
 1872 Fit      -0.016153
 1873 Fit      -0.019828
 1874 Fit      -0.024234
 1875 Fit      -0.007794
 1876 Fit      -0.010816
 1877 Fit      -0.013557
 1878 Fit      -0.015335
 1879 Fit      -0.001604
 1880 Fit      -0.001227
 1881 Fit       0.013878
 1882 Fit       0.009415
 1883 Fit       0.005027
 1884 Fit       0.008651
 1885 Fit       0.004116
 1886 Fit      -0.002715
 1887 Fit      -0.003416
 1888 Fit      -0.006272
 1889 Fit      -0.006668
 1890 Fit      -0.004062
 1891 Fit      -0.004042
 1892 Fit      -0.006040
 1893 Fit      -0.007627
 1894 Fit      -0.004440
 1895 Fit      -0.003908
 1896 Fit      -0.015770
 1897 Fit      -0.011027
 1898 Fit      -0.009046
 1899 Fit      -0.007450
 1900 Fit      -0.010359
 1901 Fit      -0.011913
 1902 Fit      -0.012131
 1903 Fit      -0.003837
 1904 Fit      -0.005220
 1905 Fit      -0.006943
 1906 Fit      -0.008890
 1907 Fit      -0.005474
 1908 Fit      -0.007490
 1909 Fit      -0.002723
 1910 Fit      -0.006326
 1911 Fit      -0.010085
 1912 Fit      -0.007352
 1913 Fit      -0.012630
 1914 Fit      -0.014784
 1915 Fit      -0.013096
 1916 Fit      -0.009697
 1917 Fit      -0.005858
 1918 Fit      -0.012147
 1919 Fit      -0.016072
 1920 Fit      -0.016563
 1921 Fit      -0.013733
 1922 Fit      -0.009265
 1923 Fit      -0.005137
 1924 Fit      -0.012089
 1925 Fit      -0.014370
 1926 Fit      -0.013662
 1927 Fit      -0.004701
 1928 Fit      -0.004200
 1929 Fit      -0.007119
 1930 Fit      -0.011992
 1931 Fit      -0.015975
 1932 Fit      -0.017098
 1933 Fit      -0.015118
 1934 Fit      -0.011584
 1935 Fit      -0.008618
 1936 Fit      -0.008018
 1937 Fit      -0.010973
 1938 Fit      -0.015177
 1939 Fit      -0.017385
 1940 Fit      -0.016042
 1941 Fit      -0.011352
 1942 Fit      -0.010999
 1943 Fit      -0.013410
 1944 Fit      -0.016206
 1945 Fit      -0.016801
 1946 Fit      -0.015099
 1947 Fit      -0.013377
 1948 Fit      -0.013956
 1949 Fit      -0.016722
 1950 Fit      -0.018742
 1951 Fit      -0.017640
 1952 Fit      -0.014224
 1953 Fit      -0.015921
 1954 Fit      -0.016014
 1955 Fit      -0.017061
 1956 Fit      -0.016708
 1957 Fit      -0.018067
 1958 Fit      -0.018273
 1959 Fit      -0.017731
 1960 Fit       0.007667
 1961 Fit       0.006559
 1962 Fit       0.000798
 1963 Fit       0.006698
 1964 Fit       0.006709
 1965 Fit       0.006119
 1966 Fit       0.004977
 1967 Fit       0.002753
 1968 Fit       0.005207
 1969 Fit       0.005152
 1970 Fit       0.004010
 1971 Fit       0.001252
 1972 Fit       0.003394
 1973 Fit       0.003183
 1974 Fit       0.000995
 1975 Fit       0.000050
 1976 Fit      -0.001405
 1977 Fit       0.015206
 1978 Fit       0.011394
 1979 Fit       0.011494
 1980 Fit       0.013326
 1981 Fit       0.008666
 1982 Fit       0.008270
 1983 Fit       0.009033
 1984 Fit       0.004598
 1985 Fit       0.003271
 1986 Fit       0.009057
 1987 Fit       0.004397
 1988 Fit       0.000895
 1989 Fit      -0.001542
 1990 Fit      -0.001925
 1991 Fit      -0.000061
 1992 Fit      -0.004180
 1993 Fit      -0.002344
 1994 Fit      -0.000816
 1995 Fit       0.000607
 1996 Fit       0.001103
 1997 Fit       0.002822
 1998 Fit      -0.009754
 1999 Fit       0.000718
 2000 Fit      -0.005819
 2001 Fit      -0.003155
 2002 Fit      -0.001338
 2003 Fit      -0.000181
 2004 Fit      -0.000006
 2005 Fit       0.000578
 2006 Fit      -0.012051
 2007 Fit      -0.005797
 2008 Fit      -0.002549
 2009 Fit      -0.000836
 2010 Fit      -0.002310
 2011 Fit      -0.004283
 2012 Fit      -0.009534
 2013 Fit      -0.003890
 2014 Fit      -0.007917
 2015 Fit       0.007079
 2016 Fit       0.006071
 2017 Fit       0.007975
 2018 Fit       0.004232
 2019 Fit       0.005483
 2020 Fit       0.006784
 2021 Fit       0.008160
 2022 Fit       0.001805
 2023 Fit       0.003797
 2024 Fit       0.004572
 2025 Fit       0.005778
 2026 Fit       0.007005
 2027 Fit       0.001241
 2028 Fit       0.003079
 2029 Fit       0.003197
 2030 Fit       0.004623
 2031 Fit       0.006645
 2032 Fit       0.001707
 2033 Fit       0.001596
 2034 Fit      -0.002143
 2035 Fit      -0.007863
 2036 Fit      -0.004274
 2037 Fit      -0.006785
 2038 Fit      -0.006420
 2039 Fit      -0.004505
 2040 Fit      -0.008861
 Job cpu time:       0 days  0 hours  5 minutes 24.6 seconds.
 Normal termination of Gaussian 16 at Sat Jul  8 20:38:27 2023.
