 Copyright (c) 1988-2019, Gaussian, Inc.  All Rights Reserved.
  
 This is part of the Gaussian(R) 16 program.  It is based on
 the Gaussian(R) 09 system (copyright 2009, Gaussian, Inc.),
 the Gaussian(R) 03 system (copyright 2003, Gaussian, Inc.),
 the Gaussian(R) 98 system (copyright 1998, Gaussian, Inc.),
 the Gaussian(R) 94 system (copyright 1995, Gaussian, Inc.),
 the Gaussian 92(TM) system (copyright 1992, Gaussian, Inc.),
 the Gaussian 90(TM) system (copyright 1990, Gaussian, Inc.),
 the Gaussian 88(TM) system (copyright 1988, Gaussian, Inc.),
 the Gaussian 86(TM) system (copyright 1986, Carnegie Mellon
 University), and the Gaussian 82(TM) system (copyright 1983,
 Carnegie Mellon University). Gaussian is a federally registered
 trademark of Gaussian, Inc.
 Cite this work as:
 Gaussian 16, Revision C.01,
 M. J. Frisch, G. W. Trucks, H. B. Schlegel, G. E. Scuseria, 
 M. A. Robb, J. R. Cheeseman, G. Scalmani, V. Barone, 
 G. A. Petersson, H. Nakatsuji, X. Li, M. Caricato, A. V. Marenich, 
 J. Bloino, B. G. Janesko, R. Gomperts, B. Mennucci, H. P. Hratchian, 
 J. V. Ortiz, A. F. Izmaylov, J. L. Sonnenberg, D. Williams-Young, 
 F. Ding, F. Lipparini, F. Egidi, J. Goings, B. Peng, A. Petrone, 
 T. Henderson, D. Ranasinghe, V. G. Zakrzewski, J. Gao, N. Rega, 
 G. Zheng, W. Liang, M. Hada, M. Ehara, K. Toyota, R. Fukuda, 
 J. Hasegawa, M. Ishida, T. Nakajima, Y. Honda, O. Kitao, H. Nakai, 
 T. Vreven, K. Throssell, J. A. Montgomery, Jr., J. E. Peralta, 
 F. Ogliaro, M. J. Bearpark, J. J. Heyd, E. N. Brothers, K. N. Kudin, 
 V. N. Staroverov, T. A. Keith, R. Kobayashi, J. Normand, 
 K. Raghavachari, A. P. Rendell, J. C. Burant, S. S. Iyengar, 
 J. Tomasi, M. Cossi, J. M. Millam, M. Klene, C. Adamo, R. Cammi, 
 J. W. Ochterski, R. L. Martin, K. Morokuma, O. Farkas, 
 J. B. Foresman, and D. J. Fox, Gaussian, Inc., Wallingford CT, 2019.
 
 ******************************************
 Gaussian 16:  EM64L-G16RevC.01  3-Jul-2019
                 8-Jul-2023 
 ******************************************
 ----------------------------------------------------------------------
 #P HF/6-31G(d) SCF(Conver=8,XQC,MaxConventionalCycles=64,MaxCycle=128)
  NoSymm Test Pop=mk IOp(6/33=2) GFInput GFPrint
 ----------------------------------------------------------------------
 1/38=1,172=1/1;
 2/12=2,15=1,17=6,18=5,40=1/2;
 3/5=1,6=6,7=1,11=9,24=110,25=1,30=1/1,2,3;
 4//1;
 5/5=2,6=8,7=128,8=3,13=1,38=5,85=64/2,8;
 6/7=2,8=2,9=2,10=2,15=8,20=1,28=1,33=2/1,2;
 99/5=1,9=1/99;
 -------------------------------------------------
 MEP step - Input generated by PyRED DVE-DMDS-OPLS
 -------------------------------------------------
 Symbolic Z-matrix:
 Charge =  0 Multiplicity = 1
 C                    -0.17385   2.38398   8.13662 
 H                     0.27003   2.6397    9.09409 
 H                     0.12667   3.14224   7.42143 
 H                    -1.25304   2.42057   8.23902 
 C                     0.26867   0.98984   7.71276 
 H                     1.34965   0.95578   7.58819 
 H                     0.00594   0.27389   8.48106 
 O                    -0.36077   0.53921   6.54476 
 C                     0.10273   1.07255   5.34231 
 H                     1.18422   0.97882   5.26572 
 H                    -0.14322   2.12794   5.25506 
 C                    -0.55301   0.28125   4.22231 
 H                    -0.25547  -0.75604   4.3007 
 H                    -1.63331   0.3261    4.32345 
 O                    -0.14298   0.74417   2.96469 
 C                    -0.93957   1.74067   2.38452 
 H                    -0.97918   2.61927   3.02592 
 H                    -1.95615   1.38062   2.24565 
 C                    -0.3541    2.14935   1.04576 
 H                     0.7086    2.33218   1.15914 
 H                    -0.81671   3.07954   0.74033 
 O                    -0.61315   1.25672   0. 
 C                     0.        0.        0. 
 H                    -0.36632  -0.48758  -0.89413 
 H                    -0.32541  -0.58954   0.84943 
 C                     1.52747   0.        0. 
 H                     1.85679  -1.02546  -0.12888 
 H                     1.90697   0.33095   0.95796 
 S                     2.37105   1.05412  -1.21876 
 C                     1.6935    0.47472  -2.80868 
 H                     2.51428   0.51358  -3.51277 
 H                     1.40683  -0.56486  -2.71581 
 C                     0.52076   1.31936  -3.30549 
 H                     0.82687   2.34979  -3.42925 
 H                    -0.28035   1.32036  -2.58078 
 S                    -0.21837   0.70144  -4.85133 
 C                     0.97668   1.23094  -6.1194 
 H                     0.74597   0.62336  -6.98501 
 H                     1.98292   0.97632  -5.81502 
 C                     0.88223   2.71517  -6.46703 
 H                    -0.12394   2.97022  -6.77046 
 H                     1.11362   3.32255  -5.60146 
 S                     2.07411   3.24852  -7.73481 
 C                     1.35769   2.59269  -9.27477 
 H                     2.15346   2.69382  -10.0032 
 H                     1.17026   1.53145  -9.16533 
 C                     0.10765   3.31887  -9.7628 
 H                     0.30645   4.37387  -9.91051 
 H                    -0.22102   2.89644  -10.70825 
 H                    -0.71296   3.2267   -9.06013 
 
 ITRead=  0  0  0  0  0  0  0  0  0  0  0  0  0  0  0  0  0  0  0  0
 ITRead=  0  0  0  0  0  0  0  0  0  0  0  0  0  0  0  0  0  0  0  0
 ITRead=  0  0  0  0  0  0  0  0  0  0
 MicOpt= -1 -1 -1 -1 -1 -1 -1 -1 -1 -1 -1 -1 -1 -1 -1 -1 -1 -1 -1 -1
 MicOpt= -1 -1 -1 -1 -1 -1 -1 -1 -1 -1 -1 -1 -1 -1 -1 -1 -1 -1 -1 -1
 MicOpt= -1 -1 -1 -1 -1 -1 -1 -1 -1 -1
 NAtoms=     50 NQM=       50 NQMF=       0 NMMI=      0 NMMIF=      0
                NMic=       0 NMicF=      0.
                          Input orientation:                          
 ---------------------------------------------------------------------
 Center     Atomic      Atomic             Coordinates (Angstroms)
 Number     Number       Type             X           Y           Z
 ---------------------------------------------------------------------
      1          6           0       -0.173849    2.383976    8.136623
      2          1           0        0.270026    2.639697    9.094095
      3          1           0        0.126674    3.142237    7.421431
      4          1           0       -1.253039    2.420568    8.239024
      5          6           0        0.268670    0.989840    7.712755
      6          1           0        1.349652    0.955777    7.588192
      7          1           0        0.005935    0.273889    8.481063
      8          8           0       -0.360769    0.539206    6.544758
      9          6           0        0.102730    1.072555    5.342310
     10          1           0        1.184223    0.978822    5.265721
     11          1           0       -0.143223    2.127938    5.255058
     12          6           0       -0.553014    0.281252    4.222308
     13          1           0       -0.255471   -0.756035    4.300703
     14          1           0       -1.633307    0.326101    4.323452
     15          8           0       -0.142982    0.744167    2.964685
     16          6           0       -0.939565    1.740671    2.384520
     17          1           0       -0.979183    2.619274    3.025920
     18          1           0       -1.956150    1.380623    2.245648
     19          6           0       -0.354102    2.149355    1.045759
     20          1           0        0.708598    2.332182    1.159138
     21          1           0       -0.816712    3.079545    0.740334
     22          8           0       -0.613146    1.256721    0.000000
     23          6           0        0.000000    0.000000    0.000000
     24          1           0       -0.366320   -0.487580   -0.894133
     25          1           0       -0.325407   -0.589539    0.849426
     26          6           0        1.527466    0.000000    0.000000
     27          1           0        1.856785   -1.025464   -0.128875
     28          1           0        1.906965    0.330948    0.957962
     29         16           0        2.371054    1.054120   -1.218761
     30          6           0        1.693503    0.474717   -2.808677
     31          1           0        2.514280    0.513582   -3.512771
     32          1           0        1.406832   -0.564860   -2.715814
     33          6           0        0.520758    1.319355   -3.305491
     34          1           0        0.826869    2.349792   -3.429245
     35          1           0       -0.280348    1.320360   -2.580776
     36         16           0       -0.218372    0.701444   -4.851327
     37          6           0        0.976680    1.230938   -6.119402
     38          1           0        0.745972    0.623355   -6.985007
     39          1           0        1.982923    0.976318   -5.815016
     40          6           0        0.882225    2.715165   -6.467029
     41          1           0       -0.123940    2.970223   -6.770464
     42          1           0        1.113619    3.322553   -5.601458
     43         16           0        2.074115    3.248522   -7.734812
     44          6           0        1.357685    2.592686   -9.274771
     45          1           0        2.153464    2.693816  -10.003203
     46          1           0        1.170264    1.531450   -9.165334
     47          6           0        0.107653    3.318871   -9.762801
     48          1           0        0.306447    4.373871   -9.910509
     49          1           0       -0.221022    2.896444  -10.708253
     50          1           0       -0.712962    3.226700   -9.060126
 ---------------------------------------------------------------------
 Stoichiometry    C14H30O3S3
 Framework group  C1[X(C14H30O3S3)]
 Standard basis: 6-31G(d) (6D, 7F)
   372 basis functions,   752 primitive gaussians,   372 cartesian basis functions
    93 alpha electrons       93 beta electrons
 Requested convergence on RMS density matrix=1.00D-08 within  64 cycles.
 Requested convergence on MAX density matrix=1.00D-06.
 Requested convergence on             energy=1.00D-06.
 SCF Done:  E(RHF) =  -1964.69035215     A.U. after   13 cycles
            NFock= 13  Conv=0.59D-08     -V/T= 2.0006
 Mulliken charges:
     1  C   -0.505940
     2  H    0.162148
     3  H    0.162553
     4  H    0.175175
     5  C    0.015438
     6  H    0.142118
     7  H    0.173877
     8  O   -0.634295
     9  C    0.010026
    10  H    0.149980
    11  H    0.141514
    12  C    0.000497
    13  H    0.182300
    14  H    0.160025
    15  O   -0.647053
    16  C   -0.012700
    17  H    0.142998
    18  H    0.161496
    19  C    0.002191
    20  H    0.167943
    21  H    0.176521
    22  O   -0.630932
    23  C    0.019763
    24  H    0.167687
    25  H    0.181660
    26  C   -0.519347
    27  H    0.193307
    28  H    0.215759
    29  S    0.117372
    30  C   -0.479987
    31  H    0.202162
    32  H    0.203498
    33  C   -0.483691
    34  H    0.201126
    35  H    0.242432
    36  S    0.106377
    37  C   -0.474569
    38  H    0.200572
    39  H    0.207440
    40  C   -0.475128
    41  H    0.209767
    42  H    0.203476
    43  S    0.111602
    44  C   -0.475644
    45  H    0.200259
    46  H    0.189057
    47  C   -0.475417
    48  H    0.180743
    49  H    0.167230
    50  H    0.166611
 Sum of Mulliken charges =  -0.00000
 Dipole moment (field-independent basis, Debye):
    X=             -0.7696    Y=             -0.1045    Z=              2.1974  Tot=              2.3307
 Quadrupole moment (field-independent basis, Debye-Ang):
   XX=           -159.6497   YY=           -150.3498   ZZ=           -121.8282
   XY=             -7.2487   XZ=              7.1192   YZ=             12.7864
 Traceless Quadrupole moment (field-independent basis, Debye-Ang):
   XX=            -15.7071   YY=             -6.4072   ZZ=             22.1143
   XY=             -7.2487   XZ=              7.1192   YZ=             12.7864
 Octapole moment (field-independent basis, Debye-Ang**2):
  XXX=           -293.2314  YYY=           -672.3206  ZZZ=            480.7791  XYY=           -111.5389
  XXY=           -241.1660  XXZ=            237.0054  XZZ=            -70.8111  YZZ=           -174.9655
  YYZ=            250.2730  XYZ=             33.6722
 Hexadecapole moment (field-independent basis, Debye-Ang**3):
 XXXX=          -1605.0448 YYYY=          -3271.0551 ZZZZ=         -23686.0474 XXXY=           -522.7132
 XXXZ=           1563.4927 YYYX=           -561.6118 YYYZ=           2279.5291 ZZZX=           1822.8212
 ZZZY=           2190.4132 XXYY=           -838.6936 XXZZ=          -5083.3104 YYZZ=          -5322.2598
 XXYZ=            810.4158 YYXZ=            632.1750 ZZXY=           -352.0426
 Merz-Kollman atomic radii used.
 Atom Element Radius
    1     6    1.50
    2     1    1.20
    3     1    1.20
    4     1    1.20
    5     6    1.50
    6     1    1.20
    7     1    1.20
    8     8    1.40
    9     6    1.50
   10     1    1.20
   11     1    1.20
   12     6    1.50
   13     1    1.20
   14     1    1.20
   15     8    1.40
   16     6    1.50
   17     1    1.20
   18     1    1.20
   19     6    1.50
   20     1    1.20
   21     1    1.20
   22     8    1.40
   23     6    1.50
   24     1    1.20
   25     1    1.20
   26     6    1.50
   27     1    1.20
   28     1    1.20
   29    16    1.75
   30     6    1.50
   31     1    1.20
   32     1    1.20
   33     6    1.50
   34     1    1.20
   35     1    1.20
   36    16    1.75
   37     6    1.50
   38     1    1.20
   39     1    1.20
   40     6    1.50
   41     1    1.20
   42     1    1.20
   43    16    1.75
   44     6    1.50
   45     1    1.20
   46     1    1.20
   47     6    1.50
   48     1    1.20
   49     1    1.20
   50     1    1.20
 Generate VDW surfaces: Layer= 4 Dens= 1 Start= 1.400 Inc= 0.200
            Electrostatic Properties Using The SCF Density.


       Atomic Center    1 is at  -0.173849  2.383976  8.136623
       Atomic Center    2 is at   0.270026  2.639697  9.094095
       Atomic Center    3 is at   0.126674  3.142237  7.421431
       Atomic Center    4 is at  -1.253039  2.420568  8.239024
       Atomic Center    5 is at   0.268670  0.989840  7.712755
       Atomic Center    6 is at   1.349652  0.955777  7.588192
       Atomic Center    7 is at   0.005935  0.273889  8.481063
       Atomic Center    8 is at  -0.360769  0.539206  6.544758
       Atomic Center    9 is at   0.102730  1.072555  5.342310
       Atomic Center   10 is at   1.184223  0.978822  5.265721
       Atomic Center   11 is at  -0.143223  2.127938  5.255058
       Atomic Center   12 is at  -0.553014  0.281252  4.222308
       Atomic Center   13 is at  -0.255471 -0.756035  4.300703
       Atomic Center   14 is at  -1.633307  0.326101  4.323452
       Atomic Center   15 is at  -0.142982  0.744167  2.964685
       Atomic Center   16 is at  -0.939565  1.740671  2.384520
       Atomic Center   17 is at  -0.979183  2.619274  3.025920
       Atomic Center   18 is at  -1.956150  1.380623  2.245648
       Atomic Center   19 is at  -0.354102  2.149355  1.045759
       Atomic Center   20 is at   0.708598  2.332182  1.159138
       Atomic Center   21 is at  -0.816712  3.079545  0.740334
       Atomic Center   22 is at  -0.613146  1.256721  0.000000
       Atomic Center   23 is at   0.000000  0.000000  0.000000
       Atomic Center   24 is at  -0.366320 -0.487580 -0.894133
       Atomic Center   25 is at  -0.325407 -0.589539  0.849426
       Atomic Center   26 is at   1.527466  0.000000  0.000000
       Atomic Center   27 is at   1.856785 -1.025464 -0.128875
       Atomic Center   28 is at   1.906965  0.330948  0.957962
       Atomic Center   29 is at   2.371054  1.054120 -1.218761
       Atomic Center   30 is at   1.693503  0.474717 -2.808677
       Atomic Center   31 is at   2.514280  0.513582 -3.512771
       Atomic Center   32 is at   1.406832 -0.564860 -2.715814
       Atomic Center   33 is at   0.520758  1.319355 -3.305491
       Atomic Center   34 is at   0.826869  2.349792 -3.429245
       Atomic Center   35 is at  -0.280348  1.320360 -2.580776
       Atomic Center   36 is at  -0.218372  0.701444 -4.851327
       Atomic Center   37 is at   0.976680  1.230938 -6.119402
       Atomic Center   38 is at   0.745972  0.623355 -6.985007
       Atomic Center   39 is at   1.982923  0.976318 -5.815016
       Atomic Center   40 is at   0.882225  2.715165 -6.467029
       Atomic Center   41 is at  -0.123940  2.970223 -6.770464
       Atomic Center   42 is at   1.113619  3.322553 -5.601458
       Atomic Center   43 is at   2.074115  3.248522 -7.734812
       Atomic Center   44 is at   1.357685  2.592686 -9.274771
       Atomic Center   45 is at   2.153464  2.693816-10.003203
       Atomic Center   46 is at   1.170264  1.531450 -9.165334
       Atomic Center   47 is at   0.107653  3.318871 -9.762801
       Atomic Center   48 is at   0.306447  4.373871 -9.910509
       Atomic Center   49 is at  -0.221022  2.896444-10.708253
       Atomic Center   50 is at  -0.712962  3.226700 -9.060126
      ESP Fit Center   51 is at  -1.223849  2.383976  9.955276
      ESP Fit Center   52 is at  -0.698849  1.474649  9.955276
      ESP Fit Center   53 is at  -0.432670  4.184118  9.186623
      ESP Fit Center   54 is at  -1.364814  1.009530  9.186623
      ESP Fit Center   55 is at   1.685609  3.359895  8.136623
      ESP Fit Center   56 is at  -0.918519  4.347510  8.136623
      ESP Fit Center   57 is at   0.270026  2.639697 10.774095
      ESP Fit Center   58 is at   1.257505  2.639697 10.453244
      ESP Fit Center   59 is at   0.575174  3.578846 10.453244
      ESP Fit Center   60 is at  -0.528861  3.220123 10.453244
      ESP Fit Center   61 is at  -0.528861  2.059271 10.453244
      ESP Fit Center   62 is at   0.575174  1.700548 10.453244
      ESP Fit Center   63 is at   1.867801  2.639697  9.613244
      ESP Fit Center   64 is at   1.493993  3.666727  9.613244
      ESP Fit Center   65 is at   0.547477  4.213198  9.613244
      ESP Fit Center   66 is at  -0.528861  4.023411  9.613244
      ESP Fit Center   67 is at   1.493993  1.612667  9.613244
      ESP Fit Center   68 is at   1.867801  2.639697  8.574946
      ESP Fit Center   69 is at   1.493993  3.666727  8.574946
      ESP Fit Center   70 is at   1.350641  4.169267  7.940580
      ESP Fit Center   71 is at   0.404125  4.715738  7.940580
      ESP Fit Center   72 is at  -0.672213  4.525951  7.940580
      ESP Fit Center   73 is at   1.724449  3.142237  6.902282
      ESP Fit Center   74 is at   1.350641  4.169267  6.902282
      ESP Fit Center   75 is at   0.404125  4.715738  6.902282
      ESP Fit Center   76 is at  -0.672213  4.525951  6.902282
      ESP Fit Center   77 is at  -1.374743  3.688708  6.902282
      ESP Fit Center   78 is at   1.114153  3.142237  6.062282
      ESP Fit Center   79 is at   0.431822  4.081386  6.062282
      ESP Fit Center   80 is at  -0.672213  3.722663  6.062282
      ESP Fit Center   81 is at  -2.051926  3.000994  9.598173
      ESP Fit Center   82 is at  -2.051926  1.840142  9.598173
      ESP Fit Center   83 is at  -2.051926  3.804282  8.758173
      ESP Fit Center   84 is at  -2.754456  2.967039  8.758173
      ESP Fit Center   85 is at  -2.754456  1.874097  8.758173
      ESP Fit Center   86 is at  -2.051926  1.036854  8.758173
      ESP Fit Center   87 is at  -2.051926  3.804282  7.719875
      ESP Fit Center   88 is at  -2.754456  2.967039  7.719875
      ESP Fit Center   89 is at  -2.754456  1.874097  7.719875
      ESP Fit Center   90 is at  -2.051926  1.036854  7.719875
      ESP Fit Center   91 is at  -2.051926  3.000994  6.879875
      ESP Fit Center   92 is at  -2.051926  1.840142  6.879875
      ESP Fit Center   93 is at   1.318670  0.989840  9.531408
      ESP Fit Center   94 is at   1.461606 -0.738426  7.712755
      ESP Fit Center   95 is at   2.337131  0.955777  8.947341
      ESP Fit Center   96 is at   2.947427  0.955777  8.107341
      ESP Fit Center   97 is at   2.573619  1.982807  8.107341
      ESP Fit Center   98 is at   1.627103 -0.617724  8.107341
      ESP Fit Center   99 is at   2.573619 -0.071253  8.107341
      ESP Fit Center  100 is at   2.947427  0.955777  7.069043
      ESP Fit Center  101 is at   2.573619  1.982807  7.069043
      ESP Fit Center  102 is at   1.627103 -0.617724  7.069043
      ESP Fit Center  103 is at   2.573619 -0.071253  7.069043
      ESP Fit Center  104 is at   0.005935  0.273889 10.161063
      ESP Fit Center  105 is at   0.993414  0.273889  9.840212
      ESP Fit Center  106 is at  -0.792952  0.854315  9.840212
      ESP Fit Center  107 is at  -0.792952 -0.306537  9.840212
      ESP Fit Center  108 is at   0.311083 -0.665260  9.840212
      ESP Fit Center  109 is at  -1.495482  0.820360  9.000212
      ESP Fit Center  110 is at  -1.495482 -0.272582  9.000212
      ESP Fit Center  111 is at  -0.792952 -1.109825  9.000212
      ESP Fit Center  112 is at   0.283386 -1.299612  9.000212
      ESP Fit Center  113 is at   1.229902 -0.753141  9.000212
      ESP Fit Center  114 is at  -1.495482 -0.272582  7.961914
      ESP Fit Center  115 is at  -0.792952 -1.109825  7.961914
      ESP Fit Center  116 is at   0.283386 -1.299612  7.961914
      ESP Fit Center  117 is at  -2.058179  0.539206  7.524758
      ESP Fit Center  118 is at  -1.734002 -0.458506  7.524758
      ESP Fit Center  119 is at  -0.885297 -1.075127  7.524758
      ESP Fit Center  120 is at  -2.058179  1.519206  6.544758
      ESP Fit Center  121 is at  -2.320769  0.539206  6.544758
      ESP Fit Center  122 is at  -2.058179 -0.440794  6.544758
      ESP Fit Center  123 is at  -1.340769 -1.158204  6.544758
      ESP Fit Center  124 is at  -0.360769 -1.420794  6.544758
      ESP Fit Center  125 is at   0.619231 -1.158204  6.544758
      ESP Fit Center  126 is at   1.336641 -0.440794  6.544758
      ESP Fit Center  127 is at   2.781998  0.978822  5.784870
      ESP Fit Center  128 is at   2.408190  2.005852  5.784870
      ESP Fit Center  129 is at   1.461674 -0.594679  5.784870
      ESP Fit Center  130 is at   2.408190 -0.048208  5.784870
      ESP Fit Center  131 is at   2.781998  0.978822  4.746572
      ESP Fit Center  132 is at   2.408190  2.005852  4.746572
      ESP Fit Center  133 is at   1.461674 -0.594679  4.746572
      ESP Fit Center  134 is at   2.408190 -0.048208  4.746572
      ESP Fit Center  135 is at   2.171702  0.978822  3.906572
      ESP Fit Center  136 is at   1.489371  1.917971  3.906572
      ESP Fit Center  137 is at   1.080744  3.154968  5.774207
      ESP Fit Center  138 is at   0.134228  3.701439  5.774207
      ESP Fit Center  139 is at  -0.942110  3.511652  5.774207
      ESP Fit Center  140 is at  -1.644640  2.674409  5.774207
      ESP Fit Center  141 is at   1.080744  3.154968  4.735909
      ESP Fit Center  142 is at   0.134228  3.701439  4.735909
      ESP Fit Center  143 is at  -0.942110  3.511652  4.735909
      ESP Fit Center  144 is at  -1.644640  2.674409  4.735909
      ESP Fit Center  145 is at  -1.743979 -1.093194  5.272308
      ESP Fit Center  146 is at  -1.743979 -1.093194  3.172308
      ESP Fit Center  147 is at  -1.054358 -1.336461  5.659852
      ESP Fit Center  148 is at   0.049677 -1.695184  5.659852
      ESP Fit Center  149 is at   1.342304 -0.756035  4.819852
      ESP Fit Center  150 is at  -1.054358 -2.139749  4.819852
      ESP Fit Center  151 is at   0.021980 -2.329536  4.819852
      ESP Fit Center  152 is at   0.968496 -1.783065  4.819852
      ESP Fit Center  153 is at   1.342304 -0.756035  3.781554
      ESP Fit Center  154 is at  -1.054358 -2.139749  3.781554
      ESP Fit Center  155 is at   0.021980 -2.329536  3.781554
      ESP Fit Center  156 is at   0.968496 -1.783065  3.781554
      ESP Fit Center  157 is at  -1.054358 -1.336461  2.941554
      ESP Fit Center  158 is at   0.049677 -1.695184  2.941554
      ESP Fit Center  159 is at  -2.432194  0.906527  5.682601
      ESP Fit Center  160 is at  -2.432194 -0.254325  5.682601
      ESP Fit Center  161 is at  -2.432194  1.709815  4.842601
      ESP Fit Center  162 is at  -3.134724  0.872572  4.842601
      ESP Fit Center  163 is at  -3.134724 -0.220370  4.842601
      ESP Fit Center  164 is at  -2.432194 -1.057613  4.842601
      ESP Fit Center  165 is at  -3.134724  0.872572  3.804303
      ESP Fit Center  166 is at  -3.134724 -0.220370  3.804303
      ESP Fit Center  167 is at  -2.432194 -1.057613  3.804303
      ESP Fit Center  168 is at  -2.432194 -0.254325  2.964303
      ESP Fit Center  169 is at   1.817018  0.744167  2.964685
      ESP Fit Center  170 is at   1.554428  1.724167  2.964685
      ESP Fit Center  171 is at   0.837018 -0.953243  2.964685
      ESP Fit Center  172 is at   1.554428 -0.235833  2.964685
      ESP Fit Center  173 is at  -2.511438  3.133229  2.384520
      ESP Fit Center  174 is at  -0.674035  3.558423  4.385069
      ESP Fit Center  175 is at  -1.778070  3.199700  4.385069
      ESP Fit Center  176 is at  -1.778070  2.038848  4.385069
      ESP Fit Center  177 is at   0.618592  2.619274  3.545069
      ESP Fit Center  178 is at   0.244784  3.646304  3.545069
      ESP Fit Center  179 is at  -0.701732  4.192775  3.545069
      ESP Fit Center  180 is at  -1.778070  4.002988  3.545069
      ESP Fit Center  181 is at  -2.480600  3.165745  3.545069
      ESP Fit Center  182 is at   0.244784  3.646304  2.506771
      ESP Fit Center  183 is at  -0.701732  4.192775  2.506771
      ESP Fit Center  184 is at  -1.778070  4.002988  2.506771
      ESP Fit Center  185 is at  -2.480600  3.165745  2.506771
      ESP Fit Center  186 is at  -2.755037  1.961049  3.604797
      ESP Fit Center  187 is at  -2.755037  2.764337  2.764797
      ESP Fit Center  188 is at  -3.457567  1.927094  2.764797
      ESP Fit Center  189 is at  -3.457567  0.834152  2.764797
      ESP Fit Center  190 is at  -2.755037 -0.003091  2.764797
      ESP Fit Center  191 is at  -2.755037  2.764337  1.726499
      ESP Fit Center  192 is at  -3.457567  1.927094  1.726499
      ESP Fit Center  193 is at  -3.457567  0.834152  1.726499
      ESP Fit Center  194 is at  -2.755037 -0.003091  1.726499
      ESP Fit Center  195 is at  -2.755037  1.961049  0.886499
      ESP Fit Center  196 is at  -2.755037  0.800197  0.886499
      ESP Fit Center  197 is at   0.401394  3.803660  2.095759
      ESP Fit Center  198 is at   0.170898  3.058682 -0.772894
      ESP Fit Center  199 is at   1.696077  2.332182  2.518287
      ESP Fit Center  200 is at   1.013746  3.271331  2.518287
      ESP Fit Center  201 is at   2.306373  2.332182  1.678287
      ESP Fit Center  202 is at   1.932565  3.359212  1.678287
      ESP Fit Center  203 is at   0.986049  3.905683  1.678287
      ESP Fit Center  204 is at   1.932565  3.359212  0.639989
      ESP Fit Center  205 is at   0.986049  3.905683  0.639989
      ESP Fit Center  206 is at   1.013746  3.271331 -0.200011
      ESP Fit Center  207 is at  -0.511564  4.018694  2.099483
      ESP Fit Center  208 is at   0.407255  4.106575  1.259483
      ESP Fit Center  209 is at  -0.539261  4.653046  1.259483
      ESP Fit Center  210 is at  -1.615599  4.463259  1.259483
      ESP Fit Center  211 is at  -2.318129  3.626016  1.259483
      ESP Fit Center  212 is at   0.407255  4.106575  0.221185
      ESP Fit Center  213 is at  -0.539261  4.653046  0.221185
      ESP Fit Center  214 is at  -1.615599  4.463259  0.221185
      ESP Fit Center  215 is at  -2.318129  3.626016  0.221185
      ESP Fit Center  216 is at  -2.318129  2.533074  0.221185
      ESP Fit Center  217 is at  -0.511564  4.018694 -0.618815
      ESP Fit Center  218 is at  -1.615599  3.659971 -0.618815
      ESP Fit Center  219 is at  -0.816712  3.079545 -0.939666
      ESP Fit Center  220 is at  -1.986379  0.259009  0.980000
      ESP Fit Center  221 is at  -2.310556  2.236721  0.000000
      ESP Fit Center  222 is at  -2.573146  1.256721  0.000000
      ESP Fit Center  223 is at  -2.310556  0.276721  0.000000
      ESP Fit Center  224 is at  -0.088618  2.871054 -0.980000
      ESP Fit Center  225 is at  -1.137674  2.871054 -0.980000
      ESP Fit Center  226 is at  -1.986379  2.254433 -0.980000
      ESP Fit Center  227 is at  -2.310556  1.256721 -0.980000
      ESP Fit Center  228 is at  -1.986379  0.259009 -0.980000
      ESP Fit Center  229 is at  -2.038978 -0.502563  0.000000
      ESP Fit Center  230 is at  -1.571873 -1.392558  0.000000
      ESP Fit Center  231 is at   0.253127 -2.084689  0.000000
      ESP Fit Center  232 is at  -1.867737 -1.034051 -0.374984
      ESP Fit Center  233 is at  -1.165207 -1.871294 -0.374984
      ESP Fit Center  234 is at  -1.867737  0.058891 -1.413282
      ESP Fit Center  235 is at  -1.867737 -1.034051 -1.413282
      ESP Fit Center  236 is at  -1.165207 -1.871294 -1.413282
      ESP Fit Center  237 is at  -0.088869 -2.061081 -1.413282
      ESP Fit Center  238 is at   0.857647 -1.514610 -1.413282
      ESP Fit Center  239 is at  -1.165207 -1.068006 -2.253282
      ESP Fit Center  240 is at  -0.061172 -1.426729 -2.253282
      ESP Fit Center  241 is at  -0.366320 -0.487580 -2.574133
      ESP Fit Center  242 is at  -1.124294 -1.169965  2.208575
      ESP Fit Center  243 is at  -0.020259 -1.528688  2.208575
      ESP Fit Center  244 is at  -1.826824 -1.136010  1.368575
      ESP Fit Center  245 is at  -1.124294 -1.973253  1.368575
      ESP Fit Center  246 is at  -0.047956 -2.163040  1.368575
      ESP Fit Center  247 is at   0.898560 -1.616569  1.368575
      ESP Fit Center  248 is at  -1.826824 -1.136010  0.330277
      ESP Fit Center  249 is at  -1.124294 -1.973253  0.330277
      ESP Fit Center  250 is at  -0.047956 -2.163040  0.330277
      ESP Fit Center  251 is at   3.057415 -0.983238  1.050000
      ESP Fit Center  252 is at   2.161933 -1.964613  1.230274
      ESP Fit Center  253 is at   3.454560 -1.025464  0.390274
      ESP Fit Center  254 is at   1.057898 -2.409178  0.390274
      ESP Fit Center  255 is at   2.134236 -2.598965  0.390274
      ESP Fit Center  256 is at   3.080752 -2.052494  0.390274
      ESP Fit Center  257 is at   1.057898 -2.409178 -0.648024
      ESP Fit Center  258 is at   2.134236 -2.598965 -0.648024
      ESP Fit Center  259 is at   3.080752 -2.052494 -0.648024
      ESP Fit Center  260 is at   2.161933 -1.964613 -1.488024
      ESP Fit Center  261 is at   1.906965  0.330948  2.637962
      ESP Fit Center  262 is at   2.894444  0.330948  2.317111
      ESP Fit Center  263 is at   2.212113  1.270097  2.317111
      ESP Fit Center  264 is at   2.212113 -0.608201  2.317111
      ESP Fit Center  265 is at   3.504740  0.330948  1.477111
      ESP Fit Center  266 is at   3.130932  1.357978  1.477111
      ESP Fit Center  267 is at   3.130932 -0.696082  1.477111
      ESP Fit Center  268 is at   3.434069  1.054120  0.988613
      ESP Fit Center  269 is at   2.902562  1.974718  0.988613
      ESP Fit Center  270 is at   4.286541  1.054120  0.308789
      ESP Fit Center  271 is at   3.982464  2.089711  0.308789
      ESP Fit Center  272 is at   3.166776  2.796508  0.308789
      ESP Fit Center  273 is at   2.098452  2.950110  0.308789
      ESP Fit Center  274 is at   3.982464  0.018529  0.308789
      ESP Fit Center  275 is at   4.759627  1.054120 -0.673585
      ESP Fit Center  276 is at   4.523084  2.090483 -0.673585
      ESP Fit Center  277 is at   3.860305  2.921582 -0.673585
      ESP Fit Center  278 is at   2.902562  3.382807 -0.673585
      ESP Fit Center  279 is at   1.839546  3.382807 -0.673585
      ESP Fit Center  280 is at   0.881803  2.921582 -0.673585
      ESP Fit Center  281 is at   3.860305 -0.813342 -0.673585
      ESP Fit Center  282 is at   4.523084  0.017757 -0.673585
      ESP Fit Center  283 is at   4.759627  1.054120 -1.763937
      ESP Fit Center  284 is at   4.523084  2.090483 -1.763937
      ESP Fit Center  285 is at   3.860305  2.921582 -1.763937
      ESP Fit Center  286 is at   2.902562  3.382807 -1.763937
      ESP Fit Center  287 is at   1.839546  3.382807 -1.763937
      ESP Fit Center  288 is at   0.881803  2.921582 -1.763937
      ESP Fit Center  289 is at   2.902562 -1.274567 -1.763937
      ESP Fit Center  290 is at   3.860305 -0.813342 -1.763937
      ESP Fit Center  291 is at   4.523084  0.017757 -1.763937
      ESP Fit Center  292 is at   4.286541  1.054120 -2.746311
      ESP Fit Center  293 is at   3.982464  2.089711 -2.746311
      ESP Fit Center  294 is at   3.166776  2.796508 -2.746311
      ESP Fit Center  295 is at   3.982464  0.018529 -2.746311
      ESP Fit Center  296 is at   4.112055  0.513582 -2.993622
      ESP Fit Center  297 is at   3.738247 -0.513448 -2.993622
      ESP Fit Center  298 is at   4.112055  0.513582 -4.031920
      ESP Fit Center  299 is at   3.738247  1.540612 -4.031920
      ESP Fit Center  300 is at   2.791731  2.087083 -4.031920
      ESP Fit Center  301 is at   2.791731 -1.059919 -4.031920
      ESP Fit Center  302 is at   3.738247 -0.513448 -4.031920
      ESP Fit Center  303 is at   3.501759  0.513582 -4.871920
      ESP Fit Center  304 is at   2.819428 -0.425567 -4.871920
      ESP Fit Center  305 is at   0.607945 -1.948574 -2.196665
      ESP Fit Center  306 is at   1.684283 -2.138361 -2.196665
      ESP Fit Center  307 is at   2.630799 -1.591890 -2.196665
      ESP Fit Center  308 is at   0.607945 -1.948574 -3.234963
      ESP Fit Center  309 is at   1.684283 -2.138361 -3.234963
      ESP Fit Center  310 is at   2.630799 -1.591890 -3.234963
      ESP Fit Center  311 is at   1.711980 -1.504009 -4.074963
      ESP Fit Center  312 is at  -1.051115  2.711913 -3.305491
      ESP Fit Center  313 is at   1.132017  3.288941 -2.070096
      ESP Fit Center  314 is at   2.050836  3.376822 -2.910096
      ESP Fit Center  315 is at   1.104320  3.923293 -2.910096
      ESP Fit Center  316 is at   0.027982  3.733506 -2.910096
      ESP Fit Center  317 is at   2.424644  2.349792 -3.948394
      ESP Fit Center  318 is at   2.050836  3.376822 -3.948394
      ESP Fit Center  319 is at   1.104320  3.923293 -3.948394
      ESP Fit Center  320 is at   0.027982  3.733506 -3.948394
      ESP Fit Center  321 is at  -1.079235  2.704074 -2.061627
      ESP Fit Center  322 is at  -1.781765  1.866831 -2.061627
      ESP Fit Center  323 is at  -1.781765  0.773889 -2.061627
      ESP Fit Center  324 is at  -1.079235  2.704074 -3.099925
      ESP Fit Center  325 is at  -1.781765  1.866831 -3.099925
      ESP Fit Center  326 is at  -2.056268  1.241099 -3.323777
      ESP Fit Center  327 is at  -2.056268  0.161789 -3.323777
      ESP Fit Center  328 is at  -1.472749 -0.746185 -3.323777
      ESP Fit Center  329 is at  -0.490974 -1.194546 -3.323777
      ESP Fit Center  330 is at  -0.749880  3.030131 -4.306151
      ESP Fit Center  331 is at  -1.707623  2.568906 -4.306151
      ESP Fit Center  332 is at  -2.370402  1.737807 -4.306151
      ESP Fit Center  333 is at  -2.606945  0.701444 -4.306151
      ESP Fit Center  334 is at  -2.370402 -0.334919 -4.306151
      ESP Fit Center  335 is at  -1.707623 -1.166018 -4.306151
      ESP Fit Center  336 is at  -0.749880 -1.627243 -4.306151
      ESP Fit Center  337 is at   0.313136 -1.627243 -4.306151
      ESP Fit Center  338 is at   1.270879 -1.166018 -4.306151
      ESP Fit Center  339 is at  -1.707623  2.568906 -5.396503
      ESP Fit Center  340 is at  -2.370402  1.737807 -5.396503
      ESP Fit Center  341 is at  -2.606945  0.701444 -5.396503
      ESP Fit Center  342 is at  -2.370402 -0.334919 -5.396503
      ESP Fit Center  343 is at  -1.707623 -1.166018 -5.396503
      ESP Fit Center  344 is at  -0.749880 -1.627243 -5.396503
      ESP Fit Center  345 is at   0.313136 -1.627243 -5.396503
      ESP Fit Center  346 is at   1.270879 -1.166018 -5.396503
      ESP Fit Center  347 is at  -2.056268  1.241099 -6.378877
      ESP Fit Center  348 is at  -2.056268  0.161789 -6.378877
      ESP Fit Center  349 is at  -1.472749 -0.746185 -6.378877
      ESP Fit Center  350 is at  -0.490974 -1.194546 -6.378877
      ESP Fit Center  351 is at   0.577350 -1.040944 -6.378877
      ESP Fit Center  352 is at  -1.281387  0.701444 -7.058701
      ESP Fit Center  353 is at  -0.749880 -0.219154 -7.058701
      ESP Fit Center  354 is at   1.229807 -0.853751 -6.119402
      ESP Fit Center  355 is at   1.023423 -0.950146 -6.465858
      ESP Fit Center  356 is at  -0.755445  1.169826 -7.504156
      ESP Fit Center  357 is at  -0.755445  0.076884 -7.504156
      ESP Fit Center  358 is at  -0.052915 -0.760359 -7.504156
      ESP Fit Center  359 is at   1.023423 -0.950146 -7.504156
      ESP Fit Center  360 is at   1.969939 -0.403675 -7.504156
      ESP Fit Center  361 is at  -0.052915  0.042929 -8.344156
      ESP Fit Center  362 is at   1.051120 -0.315794 -8.344156
      ESP Fit Center  363 is at   2.288071  1.915467 -4.455867
      ESP Fit Center  364 is at   3.580698  0.976318 -5.295867
      ESP Fit Center  365 is at   3.206890  2.003348 -5.295867
      ESP Fit Center  366 is at   2.260374 -0.597183 -5.295867
      ESP Fit Center  367 is at   3.206890 -0.050712 -5.295867
      ESP Fit Center  368 is at   3.580698  0.976318 -6.334165
      ESP Fit Center  369 is at   2.260374 -0.597183 -6.334165
      ESP Fit Center  370 is at   3.206890 -0.050712 -6.334165
      ESP Fit Center  371 is at   2.970402  0.976318 -7.174165
      ESP Fit Center  372 is at   2.700878  2.715165 -5.417029
      ESP Fit Center  373 is at   0.137555  4.678699 -6.467029
      ESP Fit Center  374 is at  -0.922827  3.550649 -5.411315
      ESP Fit Center  375 is at  -0.922827  4.353937 -6.251315
      ESP Fit Center  376 is at  -1.625357  3.516694 -6.251315
      ESP Fit Center  377 is at  -1.625357  2.423752 -6.251315
      ESP Fit Center  378 is at  -0.922827  4.353937 -7.289613
      ESP Fit Center  379 is at  -1.625357  3.516694 -7.289613
      ESP Fit Center  380 is at  -1.625357  2.423752 -7.289613
      ESP Fit Center  381 is at  -0.922827  1.586509 -7.289613
      ESP Fit Center  382 is at   2.101098  3.322553 -4.242309
      ESP Fit Center  383 is at   1.418767  4.261702 -4.242309
      ESP Fit Center  384 is at   0.314732  3.902979 -4.242309
      ESP Fit Center  385 is at   2.711394  3.322553 -5.082309
      ESP Fit Center  386 is at   2.337586  4.349583 -5.082309
      ESP Fit Center  387 is at   1.391070  4.896054 -5.082309
      ESP Fit Center  388 is at   0.314732  4.706267 -5.082309
      ESP Fit Center  389 is at  -0.387798  3.869024 -5.082309
      ESP Fit Center  390 is at   3.137130  3.248522 -5.527438
      ESP Fit Center  391 is at   2.605623  4.169120 -5.527438
      ESP Fit Center  392 is at   3.989602  3.248522 -6.207262
      ESP Fit Center  393 is at   3.685525  4.284113 -6.207262
      ESP Fit Center  394 is at   2.869837  4.990910 -6.207262
      ESP Fit Center  395 is at   1.801513  5.144512 -6.207262
      ESP Fit Center  396 is at   3.685525  2.212931 -6.207262
      ESP Fit Center  397 is at   4.462688  3.248522 -7.189636
      ESP Fit Center  398 is at   4.226145  4.284885 -7.189636
      ESP Fit Center  399 is at   3.563366  5.115984 -7.189636
      ESP Fit Center  400 is at   2.605623  5.577209 -7.189636
      ESP Fit Center  401 is at   1.542607  5.577209 -7.189636
      ESP Fit Center  402 is at   0.584864  5.115984 -7.189636
      ESP Fit Center  403 is at   3.563366  1.381060 -7.189636
      ESP Fit Center  404 is at   4.226145  2.212159 -7.189636
      ESP Fit Center  405 is at   4.462688  3.248522 -8.279988
      ESP Fit Center  406 is at   4.226145  4.284885 -8.279988
      ESP Fit Center  407 is at   3.563366  5.115984 -8.279988
      ESP Fit Center  408 is at   2.605623  5.577209 -8.279988
      ESP Fit Center  409 is at   1.542607  5.577209 -8.279988
      ESP Fit Center  410 is at   0.584864  5.115984 -8.279988
      ESP Fit Center  411 is at   2.605623  0.919835 -8.279988
      ESP Fit Center  412 is at   3.563366  1.381060 -8.279988
      ESP Fit Center  413 is at   4.226145  2.212159 -8.279988
      ESP Fit Center  414 is at   3.989602  3.248522 -9.262362
      ESP Fit Center  415 is at   3.685525  4.284113 -9.262362
      ESP Fit Center  416 is at   2.869837  4.990910 -9.262362
      ESP Fit Center  417 is at   1.801513  5.144512 -9.262362
      ESP Fit Center  418 is at   3.685525  2.212931 -9.262362
      ESP Fit Center  419 is at   3.751239  2.693816 -9.484054
      ESP Fit Center  420 is at   3.377431  1.666786 -9.484054
      ESP Fit Center  421 is at   3.751239  2.693816-10.522352
      ESP Fit Center  422 is at   3.377431  3.720846-10.522352
      ESP Fit Center  423 is at   2.430915  4.267317-10.522352
      ESP Fit Center  424 is at   2.430915  1.120315-10.522352
      ESP Fit Center  425 is at   3.377431  1.666786-10.522352
      ESP Fit Center  426 is at   3.140943  2.693816-11.362352
      ESP Fit Center  427 is at   2.458612  3.632965-11.362352
      ESP Fit Center  428 is at   1.354577  2.113390-11.362352
      ESP Fit Center  429 is at   2.458612  1.754667-11.362352
      ESP Fit Center  430 is at   2.153464  2.693816-11.683203
      ESP Fit Center  431 is at  -0.331153  0.984979 -8.646185
      ESP Fit Center  432 is at   0.371377  0.147736 -8.646185
      ESP Fit Center  433 is at   1.447715 -0.042051 -8.646185
      ESP Fit Center  434 is at   2.394231  0.504420 -8.646185
      ESP Fit Center  435 is at  -0.331153  0.984979 -9.684483
      ESP Fit Center  436 is at   0.371377  0.147736 -9.684483
      ESP Fit Center  437 is at   1.447715 -0.042051 -9.684483
      ESP Fit Center  438 is at   2.394231  0.504420 -9.684483
      ESP Fit Center  439 is at   0.371377  0.951024-10.524483
      ESP Fit Center  440 is at   1.475412  0.592301-10.524483
      ESP Fit Center  441 is at  -1.464220  4.711429 -9.762801
      ESP Fit Center  442 is at  -0.637017  1.355337 -9.762801
      ESP Fit Center  443 is at  -1.083312  4.693317-10.812801
      ESP Fit Center  444 is at  -1.637332  3.831245-10.812801
      ESP Fit Center  445 is at   1.157653  3.318871-11.581454
      ESP Fit Center  446 is at   0.632653  4.228198-11.581454
      ESP Fit Center  447 is at   0.611595  5.313020 -8.551360
      ESP Fit Center  448 is at  -0.492440  4.954297 -8.551360
      ESP Fit Center  449 is at   1.530414  5.400901 -9.391360
      ESP Fit Center  450 is at   0.583898  5.947372 -9.391360
      ESP Fit Center  451 is at  -0.492440  5.757585 -9.391360
      ESP Fit Center  452 is at   1.904222  4.373871-10.429658
      ESP Fit Center  453 is at   1.530414  5.400901-10.429658
      ESP Fit Center  454 is at   0.583898  5.947372-10.429658
      ESP Fit Center  455 is at  -0.492440  5.757585-10.429658
      ESP Fit Center  456 is at  -1.194970  4.920342-10.429658
      ESP Fit Center  457 is at   1.293926  4.373871-11.269658
      ESP Fit Center  458 is at   0.611595  5.313020-11.269658
      ESP Fit Center  459 is at  -0.492440  4.954297-11.269658
      ESP Fit Center  460 is at   0.306447  4.373871-11.590509
      ESP Fit Center  461 is at  -1.722439  2.349973-10.189104
      ESP Fit Center  462 is at  -1.019909  1.512730-10.189104
      ESP Fit Center  463 is at  -1.722439  3.442915-11.227402
      ESP Fit Center  464 is at  -1.722439  2.349973-11.227402
      ESP Fit Center  465 is at  -1.019909  1.512730-11.227402
      ESP Fit Center  466 is at   0.056429  1.322943-11.227402
      ESP Fit Center  467 is at   1.002945  1.869414-11.227402
      ESP Fit Center  468 is at   0.766457  2.896444-12.067402
      ESP Fit Center  469 is at   0.084126  3.835593-12.067402
      ESP Fit Center  470 is at  -1.019909  3.476870-12.067402
      ESP Fit Center  471 is at  -1.019909  2.316018-12.067402
      ESP Fit Center  472 is at   0.084126  1.957295-12.067402
      ESP Fit Center  473 is at  -0.221022  2.896444-12.388253
      ESP Fit Center  474 is at  -1.511849  3.807126 -7.700977
      ESP Fit Center  475 is at  -1.511849  2.646274 -7.700977
      ESP Fit Center  476 is at  -1.511849  4.610414 -8.540977
      ESP Fit Center  477 is at  -2.214379  3.773171 -8.540977
      ESP Fit Center  478 is at  -2.214379  2.680229 -8.540977
      ESP Fit Center  479 is at  -1.511849  1.842986 -8.540977
      ESP Fit Center  480 is at  -0.435511  1.653199 -8.540977
      ESP Fit Center  481 is at  -2.214379  3.773171 -9.579275
      ESP Fit Center  482 is at  -2.214379  2.680229 -9.579275
      ESP Fit Center  483 is at  -1.511849  1.842986 -9.579275
      ESP Fit Center  484 is at  -1.215170  2.383976 10.298948
      ESP Fit Center  485 is at  -0.694509  1.482166 10.298948
      ESP Fit Center  486 is at  -1.402627  3.802061  9.632999
      ESP Fit Center  487 is at  -1.402627  0.965891  9.632999
      ESP Fit Center  488 is at   2.165978  2.383976  8.670673
      ESP Fit Center  489 is at   0.346811  4.665139  8.670673
      ESP Fit Center  490 is at  -0.694509  4.665139  8.670673
      ESP Fit Center  491 is at  -1.632707  4.213326  7.602573
      ESP Fit Center  492 is at   0.270026  2.639697 11.014095
      ESP Fit Center  493 is at   1.230026  2.639697 10.756864
      ESP Fit Center  494 is at   0.750026  3.471081 10.756864
      ESP Fit Center  495 is at  -0.209974  3.471081 10.756864
      ESP Fit Center  496 is at  -0.689974  2.639697 10.756864
      ESP Fit Center  497 is at  -0.209974  1.808313 10.756864
      ESP Fit Center  498 is at   0.750026  1.808313 10.756864
      ESP Fit Center  499 is at   1.932795  2.639697 10.054095
      ESP Fit Center  500 is at   1.615234  3.617048 10.054095
      ESP Fit Center  501 is at   0.783850  4.221084 10.054095
      ESP Fit Center  502 is at  -0.243798  4.221084 10.054095
      ESP Fit Center  503 is at  -1.075182  3.617048 10.054095
      ESP Fit Center  504 is at   1.615234  1.662346 10.054095
      ESP Fit Center  505 is at   2.190026  2.639697  9.094095
      ESP Fit Center  506 is at   1.932795  3.599697  9.094095
      ESP Fit Center  507 is at   1.230026  4.302466  9.094095
      ESP Fit Center  508 is at   0.270026  4.559697  9.094095
      ESP Fit Center  509 is at   1.471882  4.119588  8.381431
      ESP Fit Center  510 is at   0.640498  4.723624  8.381431
      ESP Fit Center  511 is at   2.046674  3.142237  7.421431
      ESP Fit Center  512 is at   1.789443  4.102237  7.421431
      ESP Fit Center  513 is at   1.086674  4.805006  7.421431
      ESP Fit Center  514 is at   0.126674  5.062237  7.421431
      ESP Fit Center  515 is at  -0.833326  4.805006  7.421431
      ESP Fit Center  516 is at   1.789443  3.142237  6.461431
      ESP Fit Center  517 is at   1.471882  4.119588  6.461431
      ESP Fit Center  518 is at   0.640498  4.723624  6.461431
      ESP Fit Center  519 is at  -0.387150  4.723624  6.461431
      ESP Fit Center  520 is at  -1.218534  4.119588  6.461431
      ESP Fit Center  521 is at   0.606674  3.973621  5.758662
      ESP Fit Center  522 is at  -0.353326  3.973621  5.758662
      ESP Fit Center  523 is at  -1.733039  3.251952  9.901793
      ESP Fit Center  524 is at  -2.213039  2.420568  9.901793
      ESP Fit Center  525 is at  -1.733039  1.589184  9.901793
      ESP Fit Center  526 is at  -1.766863  4.001955  9.199024
      ESP Fit Center  527 is at  -2.598247  3.397919  9.199024
      ESP Fit Center  528 is at  -2.915808  2.420568  9.199024
      ESP Fit Center  529 is at  -2.598247  1.443217  9.199024
      ESP Fit Center  530 is at  -1.766863  0.839181  9.199024
      ESP Fit Center  531 is at  -2.213039  4.083337  8.239024
      ESP Fit Center  532 is at  -2.915808  3.380568  8.239024
      ESP Fit Center  533 is at  -3.173039  2.420568  8.239024
      ESP Fit Center  534 is at  -2.915808  1.460568  8.239024
      ESP Fit Center  535 is at  -2.213039  0.757799  8.239024
      ESP Fit Center  536 is at  -1.766863  4.001955  7.279024
      ESP Fit Center  537 is at  -2.598247  3.397919  7.279024
      ESP Fit Center  538 is at  -2.915808  2.420568  7.279024
      ESP Fit Center  539 is at  -2.598247  1.443217  7.279024
      ESP Fit Center  540 is at  -2.213039  2.420568  6.576255
      ESP Fit Center  541 is at   1.309991  0.989840  9.875080
      ESP Fit Center  542 is at   1.847194 -0.024616  9.209131
      ESP Fit Center  543 is at   1.727528 -0.839510  8.246805
      ESP Fit Center  544 is at   0.789330 -1.291323  7.178705
      ESP Fit Center  545 is at   2.309652  0.955777  9.250961
      ESP Fit Center  546 is at   3.012421  0.955777  8.548192
      ESP Fit Center  547 is at   2.694860  1.933128  8.548192
      ESP Fit Center  548 is at   1.863476 -0.625610  8.548192
      ESP Fit Center  549 is at   2.694860 -0.021574  8.548192
      ESP Fit Center  550 is at   3.269652  0.955777  7.588192
      ESP Fit Center  551 is at   3.012421  1.915777  7.588192
      ESP Fit Center  552 is at   2.309652  2.618546  7.588192
      ESP Fit Center  553 is at   2.309652 -0.706992  7.588192
      ESP Fit Center  554 is at   3.012421 -0.004223  7.588192
      ESP Fit Center  555 is at   3.012421  0.955777  6.628192
      ESP Fit Center  556 is at   2.694860  1.933128  6.628192
      ESP Fit Center  557 is at   1.863476  2.537164  6.628192
      ESP Fit Center  558 is at   1.863476 -0.625610  6.628192
      ESP Fit Center  559 is at   2.694860 -0.021574  6.628192
      ESP Fit Center  560 is at   0.005935  0.273889 10.401063
      ESP Fit Center  561 is at   0.965935  0.273889 10.143832
      ESP Fit Center  562 is at  -0.954065  0.273889 10.143832
      ESP Fit Center  563 is at  -0.474065 -0.557495 10.143832
      ESP Fit Center  564 is at   0.485935 -0.557495 10.143832
      ESP Fit Center  565 is at  -1.656834  0.273889  9.441063
      ESP Fit Center  566 is at  -1.339273 -0.703462  9.441063
      ESP Fit Center  567 is at  -0.507889 -1.307498  9.441063
      ESP Fit Center  568 is at   0.519759 -1.307498  9.441063
      ESP Fit Center  569 is at   1.351143 -0.703462  9.441063
      ESP Fit Center  570 is at  -1.914065  0.273889  8.481063
      ESP Fit Center  571 is at  -1.656834 -0.686111  8.481063
      ESP Fit Center  572 is at  -0.954065 -1.388880  8.481063
      ESP Fit Center  573 is at   0.005935 -1.646111  8.481063
      ESP Fit Center  574 is at   0.965935 -1.388880  8.481063
      ESP Fit Center  575 is at  -2.112072  0.539206  7.941375
      ESP Fit Center  576 is at  -1.777603 -0.490184  7.941375
      ESP Fit Center  577 is at  -2.481149  1.061833  7.043205
      ESP Fit Center  578 is at  -2.481149  0.016579  7.043205
      ESP Fit Center  579 is at  -1.995396 -0.908947  7.043205
      ESP Fit Center  580 is at  -1.135169 -1.502718  7.043205
      ESP Fit Center  581 is at  -0.097536 -1.628710  7.043205
      ESP Fit Center  582 is at   0.879793 -1.258058  7.043205
      ESP Fit Center  583 is at  -2.481149  1.061833  6.046311
      ESP Fit Center  584 is at  -2.481149  0.016579  6.046311
      ESP Fit Center  585 is at  -1.995396 -0.908947  6.046311
      ESP Fit Center  586 is at  -1.135169 -1.502718  6.046311
      ESP Fit Center  587 is at  -0.097536 -1.628710  6.046311
      ESP Fit Center  588 is at   0.879793 -1.258058  6.046311
      ESP Fit Center  589 is at   1.561588  2.901905  5.876360
      ESP Fit Center  590 is at  -2.005381  2.087768  5.876360
      ESP Fit Center  591 is at   1.561588  2.901905  4.808260
      ESP Fit Center  592 is at   2.846992  0.978822  6.225721
      ESP Fit Center  593 is at   2.529431  1.956173  6.225721
      ESP Fit Center  594 is at   1.698047 -0.602565  6.225721
      ESP Fit Center  595 is at   2.529431  0.001471  6.225721
      ESP Fit Center  596 is at   3.104223  0.978822  5.265721
      ESP Fit Center  597 is at   2.846992  1.938822  5.265721
      ESP Fit Center  598 is at   2.144223  2.641591  5.265721
      ESP Fit Center  599 is at   2.144223 -0.683947  5.265721
      ESP Fit Center  600 is at   2.846992  0.018822  5.265721
      ESP Fit Center  601 is at   2.846992  0.978822  4.305721
      ESP Fit Center  602 is at   2.529431  1.956173  4.305721
      ESP Fit Center  603 is at   1.698047  2.560209  4.305721
      ESP Fit Center  604 is at   1.698047 -0.602565  4.305721
      ESP Fit Center  605 is at   2.529431  0.001471  4.305721
      ESP Fit Center  606 is at   2.144223  0.978822  3.602952
      ESP Fit Center  607 is at  -1.488431  3.105289  6.215058
      ESP Fit Center  608 is at   1.519546  3.087938  5.255058
      ESP Fit Center  609 is at   0.816777  3.790707  5.255058
      ESP Fit Center  610 is at  -0.143223  4.047938  5.255058
      ESP Fit Center  611 is at  -1.103223  3.790707  5.255058
      ESP Fit Center  612 is at  -1.805992  3.087938  5.255058
      ESP Fit Center  613 is at  -2.063223  2.127938  5.255058
      ESP Fit Center  614 is at   1.201985  3.105289  4.295058
      ESP Fit Center  615 is at   0.370601  3.709325  4.295058
      ESP Fit Center  616 is at  -1.781792 -1.136833  5.718684
      ESP Fit Center  617 is at  -2.011872 -1.548098  4.756358
      ESP Fit Center  618 is at  -2.011872 -1.548098  3.688258
      ESP Fit Center  619 is at  -1.781792 -1.136833  2.725932
      ESP Fit Center  620 is at   0.224529 -1.587419  5.963472
      ESP Fit Center  621 is at  -1.600679 -1.733386  5.260703
      ESP Fit Center  622 is at  -0.769295 -2.337422  5.260703
      ESP Fit Center  623 is at   0.258353 -2.337422  5.260703
      ESP Fit Center  624 is at   1.089737 -1.733386  5.260703
      ESP Fit Center  625 is at   1.664529 -0.756035  4.300703
      ESP Fit Center  626 is at  -1.918240 -1.716035  4.300703
      ESP Fit Center  627 is at  -1.215471 -2.418804  4.300703
      ESP Fit Center  628 is at  -0.255471 -2.676035  4.300703
      ESP Fit Center  629 is at   0.704529 -2.418804  4.300703
      ESP Fit Center  630 is at   1.407298 -1.716035  4.300703
      ESP Fit Center  631 is at  -1.600679 -1.733386  3.340703
      ESP Fit Center  632 is at  -0.769295 -2.337422  3.340703
      ESP Fit Center  633 is at   0.258353 -2.337422  3.340703
      ESP Fit Center  634 is at   1.089737 -1.733386  3.340703
      ESP Fit Center  635 is at  -0.735471 -1.587419  2.637934
      ESP Fit Center  636 is at   0.224529 -1.587419  2.637934
      ESP Fit Center  637 is at  -2.593307  0.326101  5.986221
      ESP Fit Center  638 is at  -2.147131  1.907488  5.283452
      ESP Fit Center  639 is at  -2.978515  1.303452  5.283452
      ESP Fit Center  640 is at  -3.296076  0.326101  5.283452
      ESP Fit Center  641 is at  -2.978515 -0.651250  5.283452
      ESP Fit Center  642 is at  -2.147131 -1.255286  5.283452
      ESP Fit Center  643 is at  -2.593307  1.988870  4.323452
      ESP Fit Center  644 is at  -3.296076  1.286101  4.323452
      ESP Fit Center  645 is at  -3.553307  0.326101  4.323452
      ESP Fit Center  646 is at  -3.296076 -0.633899  4.323452
      ESP Fit Center  647 is at  -2.593307 -1.336668  4.323452
      ESP Fit Center  648 is at  -3.296076  0.326101  3.363452
      ESP Fit Center  649 is at  -2.978515 -0.651250  3.363452
      ESP Fit Center  650 is at   2.040857  0.744167  3.463132
      ESP Fit Center  651 is at   1.790711  1.759047  3.463132
      ESP Fit Center  652 is at   1.097580  2.541431  3.463132
      ESP Fit Center  653 is at   1.790711 -0.270713  3.463132
      ESP Fit Center  654 is at   1.097580 -1.053097  2.466238
      ESP Fit Center  655 is at  -2.739953  2.269313  3.880896
      ESP Fit Center  656 is at  -2.398423  3.570021  1.850470
      ESP Fit Center  657 is at  -1.459183  3.450658  4.688689
      ESP Fit Center  658 is at  -1.939183  2.619274  4.688689
      ESP Fit Center  659 is at   0.366025  3.596625  3.985920
      ESP Fit Center  660 is at  -0.465359  4.200661  3.985920
      ESP Fit Center  661 is at  -1.493007  4.200661  3.985920
      ESP Fit Center  662 is at  -2.324391  3.596625  3.985920
      ESP Fit Center  663 is at  -2.641952  2.619274  3.985920
      ESP Fit Center  664 is at   0.683586  3.579274  3.025920
      ESP Fit Center  665 is at  -0.019183  4.282043  3.025920
      ESP Fit Center  666 is at  -0.979183  4.539274  3.025920
      ESP Fit Center  667 is at  -1.939183  4.282043  3.025920
      ESP Fit Center  668 is at  -2.641952  3.579274  3.025920
      ESP Fit Center  669 is at  -3.301358  2.357974  3.205648
      ESP Fit Center  670 is at  -3.618919  1.380623  3.205648
      ESP Fit Center  671 is at  -3.301358  0.403272  3.205648
      ESP Fit Center  672 is at  -3.618919  2.340623  2.245648
      ESP Fit Center  673 is at  -3.876150  1.380623  2.245648
      ESP Fit Center  674 is at  -3.618919  0.420623  2.245648
      ESP Fit Center  675 is at  -2.916150 -0.282146  2.245648
      ESP Fit Center  676 is at  -1.956150 -0.539377  2.245648
      ESP Fit Center  677 is at  -3.301358  2.357974  1.285648
      ESP Fit Center  678 is at  -3.618919  1.380623  1.285648
      ESP Fit Center  679 is at  -3.301358  0.403272  1.285648
      ESP Fit Center  680 is at  -2.469974 -0.200764  1.285648
      ESP Fit Center  681 is at  -2.916150  1.380623  0.582879
      ESP Fit Center  682 is at   0.425381  3.856184  2.542135
      ESP Fit Center  683 is at  -2.693929  2.149355  0.511709
      ESP Fit Center  684 is at   0.166558  3.051165 -1.116566
      ESP Fit Center  685 is at   1.668598  2.332182  2.821907
      ESP Fit Center  686 is at   1.188598  3.163566  2.821907
      ESP Fit Center  687 is at   2.371367  2.332182  2.119138
      ESP Fit Center  688 is at   2.053806  3.309533  2.119138
      ESP Fit Center  689 is at   1.222422  3.913569  2.119138
      ESP Fit Center  690 is at   2.371367  3.292182  1.159138
      ESP Fit Center  691 is at   1.668598  3.994951  1.159138
      ESP Fit Center  692 is at   1.222422  3.913569  0.199138
      ESP Fit Center  693 is at  -0.302888  4.660932  1.700334
      ESP Fit Center  694 is at  -1.330536  4.660932  1.700334
      ESP Fit Center  695 is at  -2.161920  4.056896  1.700334
      ESP Fit Center  696 is at   0.143288  4.742314  0.740334
      ESP Fit Center  697 is at  -0.816712  4.999545  0.740334
      ESP Fit Center  698 is at  -1.776712  4.742314  0.740334
      ESP Fit Center  699 is at  -2.479481  4.039545  0.740334
      ESP Fit Center  700 is at  -2.736712  3.079545  0.740334
      ESP Fit Center  701 is at   0.528496  4.056896 -0.219666
      ESP Fit Center  702 is at  -0.302888  4.660932 -0.219666
      ESP Fit Center  703 is at  -1.330536  4.660932 -0.219666
      ESP Fit Center  704 is at  -2.161920  4.056896 -0.219666
      ESP Fit Center  705 is at  -2.479481  3.079545 -0.219666
      ESP Fit Center  706 is at  -0.336712  3.910929 -0.922435
      ESP Fit Center  707 is at  -1.296712  3.910929 -0.922435
      ESP Fit Center  708 is at  -1.776712  3.079545 -0.922435
      ESP Fit Center  709 is at  -2.733526  1.779348  0.498447
      ESP Fit Center  710 is at  -2.733526  0.734094  0.498447
      ESP Fit Center  711 is at  -2.247773  2.704874 -0.498447
      ESP Fit Center  712 is at  -2.733526  1.779348 -0.498447
      ESP Fit Center  713 is at  -2.733526  0.734094 -0.498447
      ESP Fit Center  714 is at  -0.071964  2.922309 -1.396617
      ESP Fit Center  715 is at  -1.154328  2.922309 -1.396617
      ESP Fit Center  716 is at  -2.029980  2.286111 -1.396617
      ESP Fit Center  717 is at  -2.364449  1.256721 -1.396617
      ESP Fit Center  718 is at  -2.286320 -0.487580 -0.894133
      ESP Fit Center  719 is at  -2.029089 -1.447580 -0.894133
      ESP Fit Center  720 is at  -1.326320 -2.150349 -0.894133
      ESP Fit Center  721 is at  -0.366320 -2.407580 -0.894133
      ESP Fit Center  722 is at  -2.029089 -0.487580 -1.854133
      ESP Fit Center  723 is at  -1.711528 -1.464931 -1.854133
      ESP Fit Center  724 is at  -0.880144 -2.068967 -1.854133
      ESP Fit Center  725 is at   0.147504 -2.068967 -1.854133
      ESP Fit Center  726 is at  -1.326320 -0.487580 -2.556902
      ESP Fit Center  727 is at  -0.846320 -1.318964 -2.556902
      ESP Fit Center  728 is at  -0.805407 -1.420923  2.512195
      ESP Fit Center  729 is at  -1.988176 -0.589539  1.809426
      ESP Fit Center  730 is at  -1.670615 -1.566890  1.809426
      ESP Fit Center  731 is at  -0.839231 -2.170926  1.809426
      ESP Fit Center  732 is at   0.188417 -2.170926  1.809426
      ESP Fit Center  733 is at   1.019801 -1.566890  1.809426
      ESP Fit Center  734 is at  -2.245407 -0.589539  0.849426
      ESP Fit Center  735 is at  -1.988176 -1.549539  0.849426
      ESP Fit Center  736 is at  -1.285407 -2.252308  0.849426
      ESP Fit Center  737 is at  -0.325407 -2.509539  0.849426
      ESP Fit Center  738 is at   0.634593 -2.252308  0.849426
      ESP Fit Center  739 is at   1.260427 -1.857297  1.496376
      ESP Fit Center  740 is at   1.376785 -1.856848  1.533894
      ESP Fit Center  741 is at   2.336785 -1.856848  1.533894
      ESP Fit Center  742 is at   1.342961 -2.606851  0.831125
      ESP Fit Center  743 is at   2.370609 -2.606851  0.831125
      ESP Fit Center  744 is at   3.201993 -2.002815  0.831125
      ESP Fit Center  745 is at   0.896785 -2.688233 -0.128875
      ESP Fit Center  746 is at   1.856785 -2.945464 -0.128875
      ESP Fit Center  747 is at   2.816785 -2.688233 -0.128875
      ESP Fit Center  748 is at   3.519554 -1.985464 -0.128875
      ESP Fit Center  749 is at   1.342961 -2.606851 -1.088875
      ESP Fit Center  750 is at   2.370609 -2.606851 -1.088875
      ESP Fit Center  751 is at   3.201993 -2.002815 -1.088875
      ESP Fit Center  752 is at   2.866965  0.330948  2.620731
      ESP Fit Center  753 is at   2.386965  1.162332  2.620731
      ESP Fit Center  754 is at   2.386965 -0.500436  2.620731
      ESP Fit Center  755 is at   3.569734  0.330948  1.917962
      ESP Fit Center  756 is at   3.252173  1.308299  1.917962
      ESP Fit Center  757 is at   2.420789 -1.250439  1.917962
      ESP Fit Center  758 is at   3.252173 -0.646403  1.917962
      ESP Fit Center  759 is at   2.906811  1.982078  1.368102
      ESP Fit Center  760 is at   4.350953  1.054120  0.761138
      ESP Fit Center  761 is at   4.085697  2.044069  0.761138
      ESP Fit Center  762 is at   3.361003  2.768763  0.761138
      ESP Fit Center  763 is at   4.085697  0.064171  0.761138
      ESP Fit Center  764 is at   4.957917  1.054120 -0.147247
      ESP Fit Center  765 is at   4.734271  2.106292 -0.147247
      ESP Fit Center  766 is at   4.102003  2.976534 -0.147247
      ESP Fit Center  767 is at   3.170439  3.514373 -0.147247
      ESP Fit Center  768 is at   2.100653  3.626812 -0.147247
      ESP Fit Center  769 is at   4.102003 -0.868294 -0.147247
      ESP Fit Center  770 is at   4.734271  0.001948 -0.147247
      ESP Fit Center  771 is at   5.171054  1.054120 -1.218761
      ESP Fit Center  772 is at   4.981976  2.065597 -1.218761
      ESP Fit Center  773 is at   4.440279  2.940468 -1.218761
      ESP Fit Center  774 is at   3.619121  3.560577 -1.218761
      ESP Fit Center  775 is at   2.629405  3.842176 -1.218761
      ESP Fit Center  776 is at   1.604798  3.747232 -1.218761
      ESP Fit Center  777 is at   0.683677  3.288568 -1.218761
      ESP Fit Center  778 is at   3.619121 -1.452337 -1.218761
      ESP Fit Center  779 is at   4.440279 -0.832228 -1.218761
      ESP Fit Center  780 is at   4.981976  0.042643 -1.218761
      ESP Fit Center  781 is at   4.957917  1.054120 -2.290275
      ESP Fit Center  782 is at   4.734271  2.106292 -2.290275
      ESP Fit Center  783 is at   4.102003  2.976534 -2.290275
      ESP Fit Center  784 is at   3.170439  3.514373 -2.290275
      ESP Fit Center  785 is at   2.100653  3.626812 -2.290275
      ESP Fit Center  786 is at   3.170439 -1.406133 -2.290275
      ESP Fit Center  787 is at   4.102003 -0.868294 -2.290275
      ESP Fit Center  788 is at   4.734271  0.001948 -2.290275
      ESP Fit Center  789 is at   4.350953  1.054120 -3.198660
      ESP Fit Center  790 is at   4.085697  2.044069 -3.198660
      ESP Fit Center  791 is at   3.361003  2.768763 -3.198660
      ESP Fit Center  792 is at   3.152361 -1.354633 -3.342727
      ESP Fit Center  793 is at   4.434280  0.513582 -3.512771
      ESP Fit Center  794 is at   4.177049  1.473582 -3.512771
      ESP Fit Center  795 is at   3.474280 -1.149187 -3.512771
      ESP Fit Center  796 is at   4.177049 -0.446418 -3.512771
      ESP Fit Center  797 is at   4.177049  0.513582 -4.472771
      ESP Fit Center  798 is at   3.859488  1.490933 -4.472771
      ESP Fit Center  799 is at   3.028104  2.094969 -4.472771
      ESP Fit Center  800 is at   3.028104 -1.067805 -4.472771
      ESP Fit Center  801 is at   3.859488 -0.463769 -4.472771
      ESP Fit Center  802 is at   0.893008 -2.146247 -1.755814
      ESP Fit Center  803 is at   1.920656 -2.146247 -1.755814
      ESP Fit Center  804 is at  -0.255937 -1.524860 -2.715814
      ESP Fit Center  805 is at   0.446832 -2.227629 -2.715814
      ESP Fit Center  806 is at   1.406832 -2.484860 -2.715814
      ESP Fit Center  807 is at   2.366832 -2.227629 -2.715814
      ESP Fit Center  808 is at   3.069601 -1.524860 -2.715814
      ESP Fit Center  809 is at   0.893008 -2.146247 -3.675814
      ESP Fit Center  810 is at   1.920656 -2.146247 -3.675814
      ESP Fit Center  811 is at   2.752040 -1.542211 -3.675814
      ESP Fit Center  812 is at   1.886832 -1.396244 -4.378583
      ESP Fit Center  813 is at  -0.938100  3.148705 -2.771441
      ESP Fit Center  814 is at   0.346869  3.181176 -1.766476
      ESP Fit Center  815 is at   1.340693  3.931179 -2.469245
      ESP Fit Center  816 is at   0.313045  3.931179 -2.469245
      ESP Fit Center  817 is at  -0.518339  3.327143 -2.469245
      ESP Fit Center  818 is at   2.489638  3.309792 -3.429245
      ESP Fit Center  819 is at   1.786869  4.012561 -3.429245
      ESP Fit Center  820 is at   0.826869  4.269792 -3.429245
      ESP Fit Center  821 is at  -0.133131  4.012561 -3.429245
      ESP Fit Center  822 is at  -0.835900  3.309792 -3.429245
      ESP Fit Center  823 is at   2.489638  2.349792 -4.389245
      ESP Fit Center  824 is at  -0.794172  2.901747 -1.620776
      ESP Fit Center  825 is at  -1.240348  2.983129 -2.580776
      ESP Fit Center  826 is at  -1.943117  2.280360 -2.580776
      ESP Fit Center  827 is at  -2.200348  1.320360 -2.580776
      ESP Fit Center  828 is at  -1.943117  0.360360 -2.580776
      ESP Fit Center  829 is at  -2.198271  0.701444 -2.871428
      ESP Fit Center  830 is at  -1.933015 -0.288505 -2.871428
      ESP Fit Center  831 is at  -1.208321 -1.013199 -2.871428
      ESP Fit Center  832 is at  -1.511803  2.941733 -3.779813
      ESP Fit Center  833 is at  -2.311188  2.221964 -3.779813
      ESP Fit Center  834 is at  -2.748706  1.239283 -3.779813
      ESP Fit Center  835 is at  -2.748706  0.163605 -3.779813
      ESP Fit Center  836 is at  -2.311188 -0.819076 -3.779813
      ESP Fit Center  837 is at  -1.511803 -1.538845 -3.779813
      ESP Fit Center  838 is at  -0.488773 -1.871248 -3.779813
      ESP Fit Center  839 is at  -0.984628  3.394556 -4.851327
      ESP Fit Center  840 is at  -1.905749  2.935892 -4.851327
      ESP Fit Center  841 is at  -2.598980  2.175454 -4.851327
      ESP Fit Center  842 is at  -2.970697  1.215943 -4.851327
      ESP Fit Center  843 is at  -2.970697  0.186945 -4.851327
      ESP Fit Center  844 is at  -2.598980 -0.772566 -4.851327
      ESP Fit Center  845 is at  -1.905749 -1.533004 -4.851327
      ESP Fit Center  846 is at  -0.984628 -1.991668 -4.851327
      ESP Fit Center  847 is at   0.039979 -2.086612 -4.851327
      ESP Fit Center  848 is at   1.029695 -1.805013 -4.851327
      ESP Fit Center  849 is at   1.850853 -1.184904 -4.851327
      ESP Fit Center  850 is at  -2.311188  2.221964 -5.922841
      ESP Fit Center  851 is at  -2.748706  1.239283 -5.922841
      ESP Fit Center  852 is at  -2.748706  0.163605 -5.922841
      ESP Fit Center  853 is at  -2.311188 -0.819076 -5.922841
      ESP Fit Center  854 is at  -1.511803 -1.538845 -5.922841
      ESP Fit Center  855 is at  -0.488773 -1.871248 -5.922841
      ESP Fit Center  856 is at   0.581013 -1.758809 -5.922841
      ESP Fit Center  857 is at   1.512577 -1.220970 -5.922841
      ESP Fit Center  858 is at  -1.933015  1.691393 -6.831226
      ESP Fit Center  859 is at  -2.198271  0.701444 -6.831226
      ESP Fit Center  860 is at  -1.933015 -0.288505 -6.831226
      ESP Fit Center  861 is at  -1.208321 -1.013199 -6.831226
      ESP Fit Center  862 is at  -0.218372 -1.278455 -6.831226
      ESP Fit Center  863 is at  -1.289886  0.701444 -7.438190
      ESP Fit Center  864 is at   2.555204  0.216482 -7.615778
      ESP Fit Center  865 is at   0.745972 -1.296645 -6.985007
      ESP Fit Center  866 is at   1.705972 -1.039414 -6.985007
      ESP Fit Center  867 is at  -0.916797  0.623355 -7.945007
      ESP Fit Center  868 is at  -0.599236 -0.353996 -7.945007
      ESP Fit Center  869 is at   0.232148 -0.958032 -7.945007
      ESP Fit Center  870 is at   1.259796 -0.958032 -7.945007
      ESP Fit Center  871 is at   2.091180 -0.353996 -7.945007
      ESP Fit Center  872 is at   0.265972 -0.208029 -8.647776
      ESP Fit Center  873 is at   3.328131  1.953669 -4.855016
      ESP Fit Center  874 is at   3.902923  0.976318 -5.815016
      ESP Fit Center  875 is at   3.645692  1.936318 -5.815016
      ESP Fit Center  876 is at   1.982923 -0.943682 -5.815016
      ESP Fit Center  877 is at   2.942923 -0.686451 -5.815016
      ESP Fit Center  878 is at   3.645692  0.016318 -5.815016
      ESP Fit Center  879 is at   3.645692  0.976318 -6.775016
      ESP Fit Center  880 is at   2.496747 -0.605069 -6.775016
      ESP Fit Center  881 is at   3.328131 -0.001033 -6.775016
      ESP Fit Center  882 is at  -0.637764  4.551610 -5.810464
      ESP Fit Center  883 is at  -1.469148  3.947574 -5.810464
      ESP Fit Center  884 is at  -1.786709  2.970223 -5.810464
      ESP Fit Center  885 is at  -0.123940  4.890223 -6.770464
      ESP Fit Center  886 is at  -1.083940  4.632992 -6.770464
      ESP Fit Center  887 is at  -1.786709  3.930223 -6.770464
      ESP Fit Center  888 is at  -2.043940  2.970223 -6.770464
      ESP Fit Center  889 is at  -1.786709  2.010223 -6.770464
      ESP Fit Center  890 is at  -1.469148  1.992872 -7.730464
      ESP Fit Center  891 is at   1.593619  4.153937 -3.938689
      ESP Fit Center  892 is at   2.776388  3.322553 -4.641458
      ESP Fit Center  893 is at   2.458827  4.299904 -4.641458
      ESP Fit Center  894 is at   1.627443  4.903940 -4.641458
      ESP Fit Center  895 is at   0.599795  4.903940 -4.641458
      ESP Fit Center  896 is at  -0.231589  4.299904 -4.641458
      ESP Fit Center  897 is at   1.113619  5.242553 -5.601458
      ESP Fit Center  898 is at   0.153619  4.985322 -5.601458
      ESP Fit Center  899 is at   3.145629  3.248522 -5.147949
      ESP Fit Center  900 is at   4.054014  3.248522 -5.754913
      ESP Fit Center  901 is at   3.788758  4.238471 -5.754913
      ESP Fit Center  902 is at   3.064064  4.963165 -5.754913
      ESP Fit Center  903 is at   2.074115  5.228421 -5.754913
      ESP Fit Center  904 is at   3.788758  2.258573 -5.754913
      ESP Fit Center  905 is at   4.660978  3.248522 -6.663298
      ESP Fit Center  906 is at   4.437332  4.300694 -6.663298
      ESP Fit Center  907 is at   3.805064  5.170936 -6.663298
      ESP Fit Center  908 is at   2.873500  5.708775 -6.663298
      ESP Fit Center  909 is at   1.803714  5.821214 -6.663298
      ESP Fit Center  910 is at   0.780684  5.488811 -6.663298
      ESP Fit Center  911 is at   3.805064  1.326108 -6.663298
      ESP Fit Center  912 is at   4.437332  2.196350 -6.663298
      ESP Fit Center  913 is at   4.874115  3.248522 -7.734812
      ESP Fit Center  914 is at   4.685037  4.259999 -7.734812
      ESP Fit Center  915 is at   4.143340  5.134870 -7.734812
      ESP Fit Center  916 is at   3.322182  5.754979 -7.734812
      ESP Fit Center  917 is at   2.332466  6.036578 -7.734812
      ESP Fit Center  918 is at   1.307859  5.941634 -7.734812
      ESP Fit Center  919 is at   0.386738  5.482970 -7.734812
      ESP Fit Center  920 is at  -0.306493  4.722532 -7.734812
      ESP Fit Center  921 is at   3.322182  0.742065 -7.734812
      ESP Fit Center  922 is at   4.143340  1.362174 -7.734812
      ESP Fit Center  923 is at   4.685037  2.237045 -7.734812
      ESP Fit Center  924 is at   4.660978  3.248522 -8.806326
      ESP Fit Center  925 is at   4.437332  4.300694 -8.806326
      ESP Fit Center  926 is at   3.805064  5.170936 -8.806326
      ESP Fit Center  927 is at   2.873500  5.708775 -8.806326
      ESP Fit Center  928 is at   1.803714  5.821214 -8.806326
      ESP Fit Center  929 is at   3.805064  1.326108 -8.806326
      ESP Fit Center  930 is at   4.437332  2.196350 -8.806326
      ESP Fit Center  931 is at   4.054014  3.248522 -9.714711
      ESP Fit Center  932 is at   3.788758  4.238471 -9.714711
      ESP Fit Center  933 is at   3.064064  4.963165 -9.714711
      ESP Fit Center  934 is at   2.074115  5.228421 -9.714711
      ESP Fit Center  935 is at   2.816543  0.763336 -9.808821
      ESP Fit Center  936 is at   2.137168  0.885857-10.771147
      ESP Fit Center  937 is at   4.073464  2.693816-10.003203
      ESP Fit Center  938 is at   3.816233  3.653816-10.003203
      ESP Fit Center  939 is at   3.113464  1.031047-10.003203
      ESP Fit Center  940 is at   3.816233  1.733816-10.003203
      ESP Fit Center  941 is at   3.816233  2.693816-10.963203
      ESP Fit Center  942 is at   3.498672  3.671167-10.963203
      ESP Fit Center  943 is at   2.667288  4.275203-10.963203
      ESP Fit Center  944 is at   2.667288  1.112429-10.963203
      ESP Fit Center  945 is at   3.498672  1.716465-10.963203
      ESP Fit Center  946 is at   3.113464  2.693816-11.665972
      ESP Fit Center  947 is at   2.633464  3.525200-11.665972
      ESP Fit Center  948 is at   1.673464  3.525200-11.665972
      ESP Fit Center  949 is at   1.673464  1.862432-11.665972
      ESP Fit Center  950 is at   2.633464  1.862432-11.665972
      ESP Fit Center  951 is at   2.153464  2.693816-11.923203
      ESP Fit Center  952 is at  -0.492505  0.571450 -9.165334
      ESP Fit Center  953 is at   0.210264 -0.131319 -9.165334
      ESP Fit Center  954 is at   1.170264 -0.388550 -9.165334
      ESP Fit Center  955 is at   2.130264 -0.131319 -9.165334
      ESP Fit Center  956 is at   2.833033  0.571450 -9.165334
      ESP Fit Center  957 is at  -0.174944  0.554099-10.125334
      ESP Fit Center  958 is at   0.656440 -0.049937-10.125334
      ESP Fit Center  959 is at   1.684088 -0.049937-10.125334
      ESP Fit Center  960 is at   2.515472  0.554099-10.125334
      ESP Fit Center  961 is at   0.690264  0.700066-10.828103
      ESP Fit Center  962 is at   1.650264  0.700066-10.828103
      ESP Fit Center  963 is at  -1.351205  5.148221 -9.228751
      ESP Fit Center  964 is at  -2.000458  4.334084-10.296851
      ESP Fit Center  965 is at  -2.232174  3.318871-10.296851
      ESP Fit Center  966 is at  -2.000458  2.303658-10.296851
      ESP Fit Center  967 is at   1.686177  4.333327-11.259177
      ESP Fit Center  968 is at  -1.121125  4.736956-11.259177
      ESP Fit Center  969 is at   0.628313  4.220681-11.925126
      ESP Fit Center  970 is at  -0.173553  5.205255 -8.247740
      ESP Fit Center  971 is at   0.820271  5.955258 -8.950509
      ESP Fit Center  972 is at  -0.207377  5.955258 -8.950509
      ESP Fit Center  973 is at  -1.038761  5.351222 -8.950509
      ESP Fit Center  974 is at   1.969216  5.333871 -9.910509
      ESP Fit Center  975 is at   1.266447  6.036640 -9.910509
      ESP Fit Center  976 is at   0.306447  6.293871 -9.910509
      ESP Fit Center  977 is at  -0.653553  6.036640 -9.910509
      ESP Fit Center  978 is at  -1.356322  5.333871 -9.910509
      ESP Fit Center  979 is at   1.651655  5.351222-10.870509
      ESP Fit Center  980 is at   0.820271  5.955258-10.870509
      ESP Fit Center  981 is at  -0.207377  5.955258-10.870509
      ESP Fit Center  982 is at  -1.038761  5.351222-10.870509
      ESP Fit Center  983 is at   0.786447  5.205255-11.573278
      ESP Fit Center  984 is at  -0.173553  5.205255-11.573278
      ESP Fit Center  985 is at  -2.141022  2.896444-10.708253
      ESP Fit Center  986 is at  -1.883791  1.936444-10.708253
      ESP Fit Center  987 is at  -1.181022  1.233675-10.708253
      ESP Fit Center  988 is at  -0.221022  0.976444-10.708253
      ESP Fit Center  989 is at  -1.566230  3.873795-11.668253
      ESP Fit Center  990 is at  -1.883791  2.896444-11.668253
      ESP Fit Center  991 is at  -1.566230  1.919093-11.668253
      ESP Fit Center  992 is at  -0.734846  1.315057-11.668253
      ESP Fit Center  993 is at   0.292802  1.315057-11.668253
      ESP Fit Center  994 is at   1.124186  1.919093-11.668253
      ESP Fit Center  995 is at   0.738978  2.896444-12.371022
      ESP Fit Center  996 is at   0.258978  3.727828-12.371022
      ESP Fit Center  997 is at  -0.701022  3.727828-12.371022
      ESP Fit Center  998 is at  -1.181022  2.896444-12.371022
      ESP Fit Center  999 is at  -0.701022  2.065060-12.371022
      ESP Fit Center 1000 is at   0.258978  2.065060-12.371022
      ESP Fit Center 1001 is at  -0.221022  2.896444-12.628253
      ESP Fit Center 1002 is at  -1.226786  4.808087 -8.100126
      ESP Fit Center 1003 is at  -2.058170  4.204051 -8.100126
      ESP Fit Center 1004 is at  -2.375731  3.226700 -8.100126
      ESP Fit Center 1005 is at  -2.058170  2.249349 -8.100126
      ESP Fit Center 1006 is at  -1.226786  1.645313 -8.100126
      ESP Fit Center 1007 is at  -1.672962  4.889469 -9.060126
      ESP Fit Center 1008 is at  -2.375731  4.186700 -9.060126
      ESP Fit Center 1009 is at  -2.632962  3.226700 -9.060126
      ESP Fit Center 1010 is at  -2.375731  2.266700 -9.060126
      ESP Fit Center 1011 is at  -1.672962  1.563931 -9.060126
      ESP Fit Center 1012 is at  -2.375731  3.226700-10.020126
      ESP Fit Center 1013 is at  -2.058170  2.249349-10.020126
      ESP Fit Center 1014 is at  -1.424101  3.826844 10.045811
      ESP Fit Center 1015 is at  -1.424101  0.941108 10.045811
      ESP Fit Center 1016 is at   0.381224  4.815909  9.169868
      ESP Fit Center 1017 is at  -0.728922  4.815909  9.169868
      ESP Fit Center 1018 is at  -1.729129  4.334235  9.169868
      ESP Fit Center 1019 is at   2.320626  3.417221  8.136623
      ESP Fit Center 1020 is at  -1.207094  4.878451  8.136623
      ESP Fit Center 1021 is at  -1.729129  4.334235  7.103378
      ESP Fit Center 1022 is at  -2.005702  2.921857  6.227435
      ESP Fit Center 1023 is at   0.270026  2.639697 11.254095
      ESP Fit Center 1024 is at   1.350026  2.639697 10.964710
      ESP Fit Center 1025 is at   0.810026  3.575004 10.964710
      ESP Fit Center 1026 is at  -0.269974  3.575004 10.964710
      ESP Fit Center 1027 is at  -0.809974  2.639697 10.964710
      ESP Fit Center 1028 is at  -0.269974  1.704390 10.964710
      ESP Fit Center 1029 is at   0.810026  1.704390 10.964710
      ESP Fit Center 1030 is at   2.140641  2.639697 10.174095
      ESP Fit Center 1031 is at   1.843687  3.651028 10.174095
      ESP Fit Center 1032 is at   1.047108  4.341268 10.174095
      ESP Fit Center 1033 is at   0.003810  4.491272 10.174095
      ESP Fit Center 1034 is at  -0.954966  4.053413 10.174095
      ESP Fit Center 1035 is at   1.843687  1.628366 10.174095
      ESP Fit Center 1036 is at   2.430026  2.639697  9.094095
      ESP Fit Center 1037 is at   2.182611  3.643499  9.094095
      ESP Fit Center 1038 is at   1.497046  4.417342  9.094095
      ESP Fit Center 1039 is at   0.903756  4.843808  8.501431
      ESP Fit Center 1040 is at   2.039259  4.146039  7.421431
      ESP Fit Center 1041 is at   1.353694  4.919882  7.421431
      ESP Fit Center 1042 is at   0.387033  5.286488  7.421431
      ESP Fit Center 1043 is at  -0.639273  5.161872  7.421431
      ESP Fit Center 1044 is at   1.997289  3.142237  6.341431
      ESP Fit Center 1045 is at   1.700335  4.153568  6.341431
      ESP Fit Center 1046 is at   0.903756  4.843808  6.341431
      ESP Fit Center 1047 is at  -0.139542  4.993812  6.341431
      ESP Fit Center 1048 is at  -1.098318  4.555953  6.341431
[...]
 1285 Fit      -0.014077
 1286 Fit       0.003915
 1287 Fit      -0.007214
 1288 Fit      -0.015170
 1289 Fit      -0.019098
 1290 Fit      -0.012621
 1291 Fit      -0.011419
 1292 Fit      -0.009610
 1293 Fit      -0.007650
 1294 Fit      -0.004301
 1295 Fit      -0.008023
 1296 Fit      -0.011804
 1297 Fit      -0.000700
 1298 Fit       0.001939
 1299 Fit      -0.002675
 1300 Fit      -0.003491
 1301 Fit      -0.000162
 1302 Fit      -0.002359
 1303 Fit       0.003463
 1304 Fit       0.003958
 1305 Fit       0.008529
 1306 Fit       0.002942
 1307 Fit       0.003669
 1308 Fit       0.013432
 1309 Fit       0.003307
 1310 Fit       0.005419
 1311 Fit       0.006113
 1312 Fit       0.004186
 1313 Fit      -0.002274
 1314 Fit       0.000971
 1315 Fit      -0.009422
 1316 Fit      -0.007241
 1317 Fit      -0.004643
 1318 Fit      -0.006793
 1319 Fit       0.002655
 1320 Fit       0.003399
 1321 Fit       0.003901
 1322 Fit       0.001456
 1323 Fit      -0.003940
 1324 Fit      -0.011477
 1325 Fit      -0.012714
 1326 Fit      -0.003995
 1327 Fit      -0.013506
 1328 Fit      -0.014844
 1329 Fit      -0.013623
 1330 Fit      -0.011571
 1331 Fit      -0.010003
 1332 Fit      -0.008563
 1333 Fit      -0.004963
 1334 Fit      -0.003777
 1335 Fit      -0.012851
 1336 Fit      -0.017666
 1337 Fit      -0.018868
 1338 Fit      -0.017747
 1339 Fit      -0.016178
 1340 Fit      -0.015512
 1341 Fit      -0.015746
 1342 Fit      -0.015506
 1343 Fit      -0.012931
 1344 Fit      -0.010546
 1345 Fit      -0.016857
 1346 Fit      -0.019075
 1347 Fit      -0.018446
 1348 Fit      -0.017064
 1349 Fit      -0.016444
 1350 Fit      -0.016728
 1351 Fit      -0.016734
 1352 Fit      -0.014830
 1353 Fit      -0.010087
 1354 Fit      -0.002361
 1355 Fit      -0.013183
 1356 Fit      -0.014099
 1357 Fit      -0.013220
 1358 Fit      -0.012488
 1359 Fit      -0.012024
 1360 Fit      -0.010552
 1361 Fit      -0.006798
 1362 Fit      -0.000763
 1363 Fit      -0.005105
 1364 Fit      -0.004948
 1365 Fit      -0.003326
 1366 Fit       0.000150
 1367 Fit       0.006897
 1368 Fit      -0.001303
 1369 Fit       0.002518
 1370 Fit       0.000034
 1371 Fit       0.002273
 1372 Fit       0.011597
 1373 Fit       0.008031
 1374 Fit       0.007115
 1375 Fit       0.007067
 1376 Fit       0.006936
 1377 Fit       0.004927
 1378 Fit       0.006634
 1379 Fit      -0.001104
 1380 Fit      -0.000364
 1381 Fit       0.003639
 1382 Fit       0.003219
 1383 Fit       0.002053
 1384 Fit      -0.001325
 1385 Fit      -0.000626
 1386 Fit      -0.004531
 1387 Fit      -0.001689
 1388 Fit      -0.007192
 1389 Fit      -0.000839
 1390 Fit       0.001846
 1391 Fit       0.000760
 1392 Fit      -0.004066
 1393 Fit       0.005685
 1394 Fit       0.002913
 1395 Fit       0.002512
 1396 Fit       0.002688
 1397 Fit       0.001863
 1398 Fit      -0.002595
 1399 Fit      -0.004423
 1400 Fit      -0.001917
 1401 Fit       0.003816
 1402 Fit      -0.007958
 1403 Fit      -0.008157
 1404 Fit      -0.006575
 1405 Fit      -0.003119
 1406 Fit      -0.002402
 1407 Fit      -0.015937
 1408 Fit      -0.015418
 1409 Fit      -0.014903
 1410 Fit      -0.014657
 1411 Fit      -0.013433
 1412 Fit      -0.009882
 1413 Fit      -0.014294
 1414 Fit      -0.018953
 1415 Fit      -0.018189
 1416 Fit      -0.018153
 1417 Fit      -0.019045
 1418 Fit      -0.019681
 1419 Fit      -0.018341
 1420 Fit      -0.013934
 1421 Fit      -0.006328
 1422 Fit      -0.008301
 1423 Fit      -0.015673
 1424 Fit      -0.018837
 1425 Fit      -0.016486
 1426 Fit      -0.016118
 1427 Fit      -0.016765
 1428 Fit      -0.018379
 1429 Fit      -0.019519
 1430 Fit      -0.018212
 1431 Fit      -0.013500
 1432 Fit      -0.008581
 1433 Fit      -0.014362
 1434 Fit      -0.016538
 1435 Fit      -0.009349
 1436 Fit      -0.010007
 1437 Fit      -0.011559
 1438 Fit      -0.013286
 1439 Fit      -0.012782
 1440 Fit      -0.006197
 1441 Fit      -0.008631
 1442 Fit      -0.001489
 1443 Fit      -0.003751
 1444 Fit      -0.001546
 1445 Fit       0.004241
 1446 Fit       0.008589
 1447 Fit       0.007018
 1448 Fit      -0.000925
 1449 Fit       0.001759
 1450 Fit      -0.000339
 1451 Fit       0.004780
 1452 Fit       0.004448
 1453 Fit       0.004079
 1454 Fit       0.005796
 1455 Fit       0.005056
 1456 Fit       0.007188
 1457 Fit       0.006877
 1458 Fit       0.008766
 1459 Fit       0.007485
 1460 Fit       0.008104
 1461 Fit       0.011758
 1462 Fit       0.011954
 1463 Fit       0.009876
 1464 Fit       0.005668
 1465 Fit       0.009853
 1466 Fit       0.009170
 1467 Fit       0.007114
 1468 Fit       0.009205
 1469 Fit      -0.000833
 1470 Fit       0.000129
 1471 Fit       0.005030
 1472 Fit       0.008864
 1473 Fit       0.001096
 1474 Fit       0.002235
 1475 Fit       0.004768
 1476 Fit       0.001490
 1477 Fit       0.003377
 1478 Fit      -0.012685
 1479 Fit      -0.005374
 1480 Fit      -0.002371
 1481 Fit      -0.004271
 1482 Fit      -0.001489
 1483 Fit      -0.000070
 1484 Fit       0.000148
 1485 Fit       0.001301
 1486 Fit       0.001166
 1487 Fit       0.001659
 1488 Fit       0.001387
 1489 Fit       0.002429
 1490 Fit       0.001919
 1491 Fit       0.003306
 1492 Fit       0.004941
 1493 Fit       0.007370
 1494 Fit       0.002148
 1495 Fit       0.003439
 1496 Fit       0.004911
 1497 Fit       0.006418
 1498 Fit       0.007839
 1499 Fit       0.008775
 1500 Fit       0.006644
 1501 Fit       0.004258
 1502 Fit       0.004020
 1503 Fit       0.005516
 1504 Fit       0.007052
 1505 Fit       0.007641
 1506 Fit       0.006121
 1507 Fit      -0.001788
 1508 Fit       0.002313
 1509 Fit       0.003962
 1510 Fit       0.004280
 1511 Fit       0.005596
 1512 Fit       0.001532
 1513 Fit       0.002944
 1514 Fit       0.003622
 1515 Fit       0.004467
 1516 Fit       0.007464
 1517 Fit       0.002787
 1518 Fit       0.004495
 1519 Fit       0.006061
 1520 Fit       0.004799
 1521 Fit       0.004094
 1522 Fit       0.008476
 1523 Fit       0.007080
 1524 Fit       0.006204
 1525 Fit       0.005366
 1526 Fit       0.004543
 1527 Fit       0.004278
 1528 Fit       0.009296
 1529 Fit       0.005026
 1530 Fit       0.005933
 1531 Fit       0.007765
 1532 Fit       0.008769
 1533 Fit       0.007783
 1534 Fit       0.006608
 1535 Fit       0.006237
 1536 Fit       0.007626
 1537 Fit       0.008968
 1538 Fit       0.009254
 1539 Fit       0.008238
 1540 Fit       0.007193
 1541 Fit       0.006090
 1542 Fit       0.005094
 1543 Fit       0.010206
 1544 Fit       0.009632
 1545 Fit       0.008163
 1546 Fit       0.007050
 1547 Fit       0.006054
 1548 Fit       0.007205
 1549 Fit       0.006661
 1550 Fit       0.005901
 1551 Fit       0.010938
 1552 Fit       0.009337
 1553 Fit       0.008841
 1554 Fit       0.008509
 1555 Fit       0.007922
 1556 Fit       0.006994
 1557 Fit       0.011084
 1558 Fit       0.010964
 1559 Fit       0.010871
 1560 Fit       0.010512
 1561 Fit       0.004416
 1562 Fit       0.004375
 1563 Fit       0.004498
 1564 Fit       0.003907
 1565 Fit       0.003429
 1566 Fit       0.004595
 1567 Fit       0.004680
 1568 Fit       0.003843
 1569 Fit       0.001817
 1570 Fit      -0.000847
 1571 Fit       0.004909
 1572 Fit       0.004526
 1573 Fit       0.002811
 1574 Fit      -0.001400
 1575 Fit       0.005519
 1576 Fit       0.003622
 1577 Fit      -0.001804
 1578 Fit       0.010890
 1579 Fit       0.010414
 1580 Fit       0.008737
 1581 Fit       0.006054
 1582 Fit      -0.005696
 1583 Fit       0.001773
 1584 Fit      -0.001299
 1585 Fit       0.009159
 1586 Fit       0.010350
 1587 Fit       0.007803
 1588 Fit       0.008720
 1589 Fit       0.009604
 1590 Fit       0.010167
 1591 Fit       0.005496
 1592 Fit       0.007406
 1593 Fit       0.008740
 1594 Fit       0.009706
 1595 Fit       0.010677
 1596 Fit       0.004903
 1597 Fit       0.007289
 1598 Fit       0.008465
 1599 Fit       0.009407
 1600 Fit       0.006810
 1601 Fit       0.006549
 1602 Fit       0.007504
 1603 Fit       0.003801
 1604 Fit       0.003705
 1605 Fit       0.004478
 1606 Fit       0.005636
 1607 Fit       0.007245
 1608 Fit      -0.001583
 1609 Fit      -0.001062
 1610 Fit       0.000355
 1611 Fit       0.002078
 1612 Fit       0.003998
 1613 Fit      -0.007014
 1614 Fit      -0.003255
 1615 Fit      -0.010850
 1616 Fit      -0.012584
 1617 Fit      -0.012191
 1618 Fit      -0.010010
 1619 Fit      -0.007148
 1620 Fit      -0.010616
 1621 Fit      -0.012708
 1622 Fit      -0.013276
 1623 Fit      -0.012166
 1624 Fit      -0.009633
 1625 Fit      -0.005955
 1626 Fit       0.011012
 1627 Fit      -0.000692
 1628 Fit       0.006869
 1629 Fit       0.008048
 1630 Fit       0.008921
 1631 Fit       0.010086
 1632 Fit       0.004658
 1633 Fit       0.006748
 1634 Fit       0.005585
 1635 Fit       0.006317
 1636 Fit       0.007552
 1637 Fit       0.003977
 1638 Fit       0.004801
 1639 Fit       0.002334
 1640 Fit       0.003181
 1641 Fit       0.001292
 1642 Fit       0.010394
 1643 Fit       0.007504
 1644 Fit       0.011273
 1645 Fit       0.013279
 1646 Fit       0.014558
 1647 Fit      -0.006916
 1648 Fit       0.000003
 1649 Fit       0.002631
 1650 Fit       0.000328
 1651 Fit       0.004031
 1652 Fit       0.003142
 1653 Fit      -0.006889
 1654 Fit      -0.003738
 1655 Fit      -0.001910
 1656 Fit      -0.000635
 1657 Fit       0.000104
 1658 Fit       0.001328
 1659 Fit       0.002286
 1660 Fit       0.002751
 1661 Fit       0.003192
 1662 Fit       0.002690
 1663 Fit       0.003370
 1664 Fit       0.003822
 1665 Fit       0.003513
 1666 Fit       0.002356
 1667 Fit       0.003902
 1668 Fit       0.003485
 1669 Fit       0.000556
 1670 Fit       0.000396
 1671 Fit      -0.001106
 1672 Fit      -0.003209
 1673 Fit      -0.006369
 1674 Fit       0.008447
 1675 Fit       0.005909
 1676 Fit       0.003983
 1677 Fit       0.002127
 1678 Fit       0.000384
 1679 Fit       0.006885
 1680 Fit       0.004816
 1681 Fit       0.003287
 1682 Fit       0.004563
 1683 Fit      -0.000617
 1684 Fit      -0.001669
 1685 Fit       0.010036
 1686 Fit       0.010202
 1687 Fit       0.011581
 1688 Fit       0.008857
 1689 Fit       0.013760
 1690 Fit       0.012285
 1691 Fit       0.011106
 1692 Fit       0.010846
 1693 Fit       0.012420
 1694 Fit       0.012821
 1695 Fit       0.012565
 1696 Fit       0.011840
 1697 Fit       0.011053
 1698 Fit       0.012795
 1699 Fit       0.012936
 1700 Fit       0.012303
 1701 Fit       0.009229
 1702 Fit       0.008081
 1703 Fit       0.006958
 1704 Fit       0.006408
 1705 Fit       0.006051
 1706 Fit       0.005681
 1707 Fit       0.004206
 1708 Fit       0.003268
 1709 Fit       0.002590
 1710 Fit      -0.000445
 1711 Fit      -0.002347
 1712 Fit      -0.003899
 1713 Fit       0.011289
 1714 Fit       0.005573
 1715 Fit       0.000081
 1716 Fit       0.000064
 1717 Fit       0.002164
 1718 Fit       0.004524
 1719 Fit       0.007989
 1720 Fit      -0.000435
 1721 Fit       0.001782
 1722 Fit      -0.005734
 1723 Fit       0.013023
 1724 Fit       0.007498
 1725 Fit       0.008731
 1726 Fit       0.009035
 1727 Fit       0.008594
 1728 Fit      -0.000120
 1729 Fit       0.003408
 1730 Fit       0.004989
 1731 Fit       0.004924
 1732 Fit       0.003213
 1733 Fit      -0.000706
 1734 Fit      -0.002480
 1735 Fit       0.000419
 1736 Fit      -0.000116
 1737 Fit      -0.004313
 1738 Fit      -0.008523
 1739 Fit      -0.006228
 1740 Fit      -0.009697
 1741 Fit      -0.010981
 1742 Fit      -0.008533
 1743 Fit      -0.012717
 1744 Fit      -0.015732
 1745 Fit      -0.015002
 1746 Fit      -0.004099
 1747 Fit       0.000367
 1748 Fit       0.008667
 1749 Fit      -0.007166
 1750 Fit      -0.000922
 1751 Fit       0.006341
 1752 Fit       0.009649
 1753 Fit      -0.007025
 1754 Fit      -0.001634
 1755 Fit       0.001875
 1756 Fit       0.005066
 1757 Fit       0.009040
 1758 Fit      -0.003942
 1759 Fit      -0.000744
 1760 Fit       0.003031
 1761 Fit       0.003350
 1762 Fit       0.004108
 1763 Fit       0.003601
 1764 Fit       0.002102
 1765 Fit       0.003649
 1766 Fit       0.005164
 1767 Fit       0.006543
 1768 Fit       0.003433
 1769 Fit       0.006115
 1770 Fit       0.002029
 1771 Fit       0.002083
 1772 Fit      -0.000895
 1773 Fit       0.006229
 1774 Fit       0.004508
 1775 Fit       0.001964
 1776 Fit       0.007811
 1777 Fit       0.006145
 1778 Fit       0.003615
 1779 Fit      -0.000584
 1780 Fit       0.008506
 1781 Fit       0.006558
 1782 Fit       0.003364
 1783 Fit      -0.002749
 1784 Fit       0.009129
 1785 Fit       0.005767
 1786 Fit       0.000298
 1787 Fit      -0.001281
 1788 Fit       0.000808
 1789 Fit       0.001179
 1790 Fit       0.001444
 1791 Fit       0.001104
 1792 Fit      -0.004477
 1793 Fit      -0.004515
 1794 Fit      -0.002834
 1795 Fit      -0.010787
 1796 Fit      -0.010561
 1797 Fit      -0.009631
 1798 Fit      -0.008221
 1799 Fit      -0.005364
 1800 Fit      -0.009331
 1801 Fit      -0.015140
 1802 Fit      -0.014573
 1803 Fit      -0.013567
 1804 Fit      -0.012746
 1805 Fit      -0.012018
 1806 Fit      -0.010714
 1807 Fit      -0.004534
 1808 Fit      -0.010922
 1809 Fit      -0.014241
 1810 Fit      -0.016362
 1811 Fit      -0.015622
 1812 Fit      -0.014499
 1813 Fit      -0.013604
 1814 Fit      -0.013064
 1815 Fit      -0.012584
 1816 Fit      -0.011895
 1817 Fit      -0.011606
 1818 Fit      -0.000889
 1819 Fit      -0.008336
 1820 Fit      -0.013322
 1821 Fit      -0.015855
 1822 Fit      -0.013933
 1823 Fit      -0.013206
 1824 Fit      -0.012012
 1825 Fit      -0.010867
 1826 Fit      -0.009645
 1827 Fit      -0.007887
 1828 Fit       0.001269
 1829 Fit      -0.005604
 1830 Fit      -0.010593
 1831 Fit      -0.013308
 1832 Fit      -0.007992
 1833 Fit      -0.007821
 1834 Fit      -0.006601
 1835 Fit      -0.004068
 1836 Fit      -0.006714
 1837 Fit       0.003205
 1838 Fit      -0.001474
 1839 Fit      -0.000471
 1840 Fit      -0.001531
 1841 Fit      -0.001420
 1842 Fit       0.000436
 1843 Fit      -0.000662
 1844 Fit       0.002554
 1845 Fit       0.002583
 1846 Fit       0.003190
 1847 Fit       0.007487
 1848 Fit       0.006838
 1849 Fit       0.003693
 1850 Fit       0.001099
 1851 Fit       0.002540
 1852 Fit       0.001773
 1853 Fit      -0.001100
 1854 Fit      -0.010715
 1855 Fit      -0.007270
 1856 Fit      -0.007815
 1857 Fit      -0.003094
 1858 Fit      -0.001091
 1859 Fit      -0.001176
 1860 Fit      -0.003785
 1861 Fit       0.004473
 1862 Fit      -0.001524
 1863 Fit      -0.011844
 1864 Fit      -0.014809
 1865 Fit      -0.014981
 1866 Fit      -0.010068
 1867 Fit      -0.012843
 1868 Fit      -0.011566
 1869 Fit      -0.008990
 1870 Fit      -0.006141
 1871 Fit      -0.002995
 1872 Fit      -0.008103
 1873 Fit      -0.012365
 1874 Fit      -0.014255
 1875 Fit      -0.014191
 1876 Fit      -0.013057
 1877 Fit      -0.011828
 1878 Fit      -0.010984
 1879 Fit      -0.010210
 1880 Fit      -0.008520
 1881 Fit      -0.009363
 1882 Fit      -0.013321
 1883 Fit      -0.015207
 1884 Fit      -0.015338
 1885 Fit      -0.014547
 1886 Fit      -0.013698
 1887 Fit      -0.013277
 1888 Fit      -0.013184
 1889 Fit      -0.012819
 1890 Fit      -0.011412
 1891 Fit      -0.008543
 1892 Fit      -0.004433
 1893 Fit      -0.008626
 1894 Fit      -0.012553
 1895 Fit      -0.013703
 1896 Fit      -0.013330
 1897 Fit      -0.012646
 1898 Fit      -0.012275
 1899 Fit      -0.012056
 1900 Fit      -0.011255
 1901 Fit      -0.009119
 1902 Fit      -0.005398
 1903 Fit      -0.007249
 1904 Fit      -0.009017
 1905 Fit      -0.008869
 1906 Fit      -0.008262
 1907 Fit      -0.007422
 1908 Fit      -0.005702
 1909 Fit      -0.002534
 1910 Fit       0.002997
 1911 Fit      -0.001614
 1912 Fit      -0.002014
 1913 Fit      -0.000598
 1914 Fit       0.000442
 1915 Fit       0.001885
 1916 Fit       0.001157
 1917 Fit       0.002379
 1918 Fit       0.002860
 1919 Fit       0.008182
 1920 Fit       0.007256
 1921 Fit       0.007156
 1922 Fit       0.006994
 1923 Fit       0.001092
 1924 Fit       0.003941
 1925 Fit       0.003921
 1926 Fit       0.001476
 1927 Fit      -0.000698
 1928 Fit      -0.003118
 1929 Fit      -0.003935
 1930 Fit      -0.004113
 1931 Fit      -0.003184
 1932 Fit      -0.000804
 1933 Fit      -0.002075
 1934 Fit       0.001237
 1935 Fit       0.002908
 1936 Fit       0.001696
 1937 Fit       0.004720
 1938 Fit       0.001885
 1939 Fit       0.001724
 1940 Fit       0.001987
 1941 Fit       0.001230
 1942 Fit      -0.002477
 1943 Fit      -0.001215
 1944 Fit      -0.000647
 1945 Fit      -0.005195
 1946 Fit      -0.005952
 1947 Fit      -0.004511
 1948 Fit       0.000873
 1949 Fit      -0.011516
 1950 Fit      -0.011659
 1951 Fit      -0.011174
 1952 Fit      -0.010437
 1953 Fit      -0.008833
 1954 Fit      -0.005750
 1955 Fit      -0.009003
 1956 Fit      -0.014835
 1957 Fit      -0.014630
 1958 Fit      -0.014455
 1959 Fit      -0.014599
 1960 Fit      -0.014571
 1961 Fit      -0.013500
 1962 Fit      -0.010749
 1963 Fit      -0.006279
 1964 Fit      -0.010669
 1965 Fit      -0.013992
 1966 Fit      -0.014779
 1967 Fit      -0.014601
 1968 Fit      -0.014700
 1969 Fit      -0.015276
 1970 Fit      -0.015927
 1971 Fit      -0.015856
 1972 Fit      -0.014291
 1973 Fit      -0.010964
 1974 Fit      -0.006177
 1975 Fit      -0.003299
 1976 Fit      -0.009023
 1977 Fit      -0.012795
 1978 Fit      -0.014493
 1979 Fit      -0.011458
 1980 Fit      -0.011656
 1981 Fit      -0.012275
 1982 Fit      -0.013287
 1983 Fit      -0.013885
 1984 Fit      -0.012831
 1985 Fit      -0.005367
 1986 Fit      -0.009231
 1987 Fit      -0.010986
 1988 Fit      -0.005493
 1989 Fit      -0.006488
 1990 Fit      -0.007712
 1991 Fit      -0.008585
 1992 Fit      -0.007343
 1993 Fit      -0.002133
 1994 Fit      -0.004304
 1995 Fit      -0.001461
 1996 Fit       0.000140
 1997 Fit       0.007512
 1998 Fit       0.006412
 1999 Fit       0.000603
 2000 Fit       0.000251
 2001 Fit       0.002533
 2002 Fit       0.001216
 2003 Fit       0.004186
 2004 Fit       0.003850
 2005 Fit       0.003692
 2006 Fit       0.005410
 2007 Fit       0.004604
 2008 Fit       0.005933
 2009 Fit       0.005724
 2010 Fit       0.007698
 2011 Fit       0.006446
 2012 Fit       0.006861
 2013 Fit       0.003299
 2014 Fit       0.009037
 2015 Fit       0.008650
 2016 Fit       0.007030
 2017 Fit       0.004251
 2018 Fit       0.008361
 2019 Fit       0.007605
 2020 Fit       0.006158
 2021 Fit      -0.002295
 2022 Fit      -0.000644
 2023 Fit       0.005973
 2024 Fit       0.000677
 2025 Fit       0.001543
 2026 Fit       0.002371
 2027 Fit       0.003375
 2028 Fit       0.005262
 2029 Fit       0.008340
 2030 Fit       0.001043
 2031 Fit       0.001857
 2032 Fit       0.004053
 2033 Fit       0.001744
 2034 Fit       0.003358
 2035 Fit      -0.007498
 2036 Fit      -0.005246
 2037 Fit      -0.002454
 2038 Fit      -0.001118
 2039 Fit      -0.002386
 2040 Fit      -0.000975
 2041 Fit       0.000064
 2042 Fit       0.000398
 2043 Fit       0.001516
 2044 Fit       0.001024
 2045 Fit       0.001265
 2046 Fit       0.001196
 2047 Fit       0.002119
 2048 Fit       0.001766
 2049 Fit       0.002808
 2050 Fit       0.003901
 2051 Fit       0.005279
 2052 Fit       0.006980
 2053 Fit       0.002360
 2054 Fit       0.003319
 2055 Fit       0.004462
 2056 Fit       0.005635
 2057 Fit       0.006709
 2058 Fit       0.007414
 2059 Fit       0.007926
 2060 Fit       0.005714
 2061 Fit       0.004002
 2062 Fit       0.003710
 2063 Fit       0.004739
 2064 Fit       0.005916
 2065 Fit       0.006431
 2066 Fit       0.005212
 2067 Fit      -0.001497
 2068 Fit       0.001889
 2069 Fit       0.002742
 2070 Fit       0.002241
 2071 Fit       0.000589
 2072 Fit       0.001955
 2073 Fit       0.002483
 2074 Fit       0.002722
 2075 Fit       0.004098
 2076 Fit       0.001528
 2077 Fit       0.002264
 2078 Fit       0.002862
 Job cpu time:       0 days  0 hours  4 minutes 59.4 seconds.
 Normal termination of Gaussian 16 at Sat Jul  8 20:30:59 2023.
