 Copyright (c) 1988-2019, Gaussian, Inc.  All Rights Reserved.
  
 This is part of the Gaussian(R) 16 program.  It is based on
 the Gaussian(R) 09 system (copyright 2009, Gaussian, Inc.),
 the Gaussian(R) 03 system (copyright 2003, Gaussian, Inc.),
 the Gaussian(R) 98 system (copyright 1998, Gaussian, Inc.),
 the Gaussian(R) 94 system (copyright 1995, Gaussian, Inc.),
 the Gaussian 92(TM) system (copyright 1992, Gaussian, Inc.),
 the Gaussian 90(TM) system (copyright 1990, Gaussian, Inc.),
 the Gaussian 88(TM) system (copyright 1988, Gaussian, Inc.),
 the Gaussian 86(TM) system (copyright 1986, Carnegie Mellon
 University), and the Gaussian 82(TM) system (copyright 1983,
 Carnegie Mellon University). Gaussian is a federally registered
 trademark of Gaussian, Inc.
 Cite this work as:
 Gaussian 16, Revision C.01,
 M. J. Frisch, G. W. Trucks, H. B. Schlegel, G. E. Scuseria, 
 M. A. Robb, J. R. Cheeseman, G. Scalmani, V. Barone, 
 G. A. Petersson, H. Nakatsuji, X. Li, M. Caricato, A. V. Marenich, 
 J. Bloino, B. G. Janesko, R. Gomperts, B. Mennucci, H. P. Hratchian, 
 J. V. Ortiz, A. F. Izmaylov, J. L. Sonnenberg, D. Williams-Young, 
 F. Ding, F. Lipparini, F. Egidi, J. Goings, B. Peng, A. Petrone, 
 T. Henderson, D. Ranasinghe, V. G. Zakrzewski, J. Gao, N. Rega, 
 G. Zheng, W. Liang, M. Hada, M. Ehara, K. Toyota, R. Fukuda, 
 J. Hasegawa, M. Ishida, T. Nakajima, Y. Honda, O. Kitao, H. Nakai, 
 T. Vreven, K. Throssell, J. A. Montgomery, Jr., J. E. Peralta, 
 F. Ogliaro, M. J. Bearpark, J. J. Heyd, E. N. Brothers, K. N. Kudin, 
 V. N. Staroverov, T. A. Keith, R. Kobayashi, J. Normand, 
 K. Raghavachari, A. P. Rendell, J. C. Burant, S. S. Iyengar, 
 J. Tomasi, M. Cossi, J. M. Millam, M. Klene, C. Adamo, R. Cammi, 
 J. W. Ochterski, R. L. Martin, K. Morokuma, O. Farkas, 
 J. B. Foresman, and D. J. Fox, Gaussian, Inc., Wallingford CT, 2019.
 
 ******************************************
 Gaussian 16:  EM64L-G16RevC.01  3-Jul-2019
                 8-Jul-2023 
 ******************************************
 ----------------------------------------------------------------------
 #P HF/6-31G(d) SCF(Conver=8,XQC,MaxConventionalCycles=64,MaxCycle=128)
  NoSymm Test Pop=mk IOp(6/33=2) GFInput GFPrint
 ----------------------------------------------------------------------
 1/38=1,172=1/1;
 2/12=2,15=1,17=6,18=5,40=1/2;
 3/5=1,6=6,7=1,11=9,24=110,25=1,30=1/1,2,3;
 4//1;
 5/5=2,6=8,7=128,8=3,13=1,38=5,85=64/2,8;
 6/7=2,8=2,9=2,10=2,15=8,20=1,28=1,33=2/1,2;
 99/5=1,9=1/99;
 -------------------------------------------------
 MEP step - Input generated by PyRED DVE-DMDS-OPLS
 -------------------------------------------------
 Symbolic Z-matrix:
 Charge =  0 Multiplicity = 1
 C                    -7.55055  -0.96693  -1.92484 
 H                    -6.90435  -1.38161  -1.15968 
 H                    -8.42936  -0.55587  -1.44135 
 H                    -7.86176  -1.76851  -2.58769 
 C                    -6.82219   0.1128   -2.70096 
 H                    -5.95026  -0.30902  -3.19672 
 H                    -7.46771   0.52509  -3.47617 
 O                    -6.45085   1.11999  -1.80511 
 C                    -5.8185    2.23428  -2.35508 
 H                    -5.95027   3.04389  -1.64913 
 H                    -6.29364   2.52174  -3.29277 
 C                    -4.33216   2.0417   -2.59334 
 H                    -4.14754   1.17552  -3.22619 
 H                    -3.94479   2.91573  -3.11803 
 O                    -3.69126   1.88979  -1.36533 
 C                    -2.31914   1.65984  -1.4426 
 H                    -1.81248   2.47639  -1.95397 
 H                    -2.11513   0.74639  -1.9994 
 C                    -1.79694   1.55177  -0.0195 
 H                    -2.32667   0.76324   0.50704 
 H                    -1.98615   2.48212   0.49923 
 O                    -0.41303   1.33559   0. 
 C                     0.        0.        0. 
 H                    -0.36729  -0.53078  -0.87373 
 H                    -0.38632  -0.51038   0.87929 
 C                     1.52012   0.        0. 
 H                     1.88849   0.58037   0.83561 
 H                     1.87922   0.47724  -0.90262 
 S                     2.24256  -1.66724   0.01606 
 C                     2.18354  -2.10639   1.78305 
 H                     1.22     -1.84306   2.19813 
 H                     2.25562  -3.186     1.80518 
 C                     3.30961  -1.47693   2.60051 
 H                     3.24691  -0.39697   2.5642 
 H                     4.27412  -1.75445   2.19459 
 S                     3.25745  -1.89162   4.37082 
 C                     3.85756  -3.61284   4.36041 
 H                     4.80848  -3.64444   3.84338 
 H                     3.16315  -4.25094   3.83167 
 C                     4.00684  -4.10355   5.79861 
 H                     4.66921  -3.45708   6.35905 
 H                     3.04558  -4.08305   6.29689 
 S                     4.57178  -5.82685   5.92372 
 C                     6.35659  -5.69487   5.58868 
 H                     6.67085  -6.71587   5.40738 
 H                     6.51205  -5.15279   4.6638 
 C                     7.17937  -5.088     6.72127 
 H                     6.89461  -4.06119   6.92189 
 H                     7.05554  -5.65565   7.63598 
 H                     8.23296  -5.09063   6.45634 
 
 ITRead=  0  0  0  0  0  0  0  0  0  0  0  0  0  0  0  0  0  0  0  0
 ITRead=  0  0  0  0  0  0  0  0  0  0  0  0  0  0  0  0  0  0  0  0
 ITRead=  0  0  0  0  0  0  0  0  0  0
 MicOpt= -1 -1 -1 -1 -1 -1 -1 -1 -1 -1 -1 -1 -1 -1 -1 -1 -1 -1 -1 -1
 MicOpt= -1 -1 -1 -1 -1 -1 -1 -1 -1 -1 -1 -1 -1 -1 -1 -1 -1 -1 -1 -1
 MicOpt= -1 -1 -1 -1 -1 -1 -1 -1 -1 -1
 NAtoms=     50 NQM=       50 NQMF=       0 NMMI=      0 NMMIF=      0
                NMic=       0 NMicF=      0.
                          Input orientation:                          
 ---------------------------------------------------------------------
 Center     Atomic      Atomic             Coordinates (Angstroms)
 Number     Number       Type             X           Y           Z
 ---------------------------------------------------------------------
      1          6           0       -7.550545   -0.966933   -1.924837
      2          1           0       -6.904351   -1.381607   -1.159675
      3          1           0       -8.429363   -0.555870   -1.441350
      4          1           0       -7.861757   -1.768509   -2.587687
      5          6           0       -6.822189    0.112804   -2.700958
      6          1           0       -5.950257   -0.309015   -3.196715
      7          1           0       -7.467705    0.525087   -3.476174
      8          8           0       -6.450851    1.119991   -1.805113
      9          6           0       -5.818496    2.234281   -2.355084
     10          1           0       -5.950268    3.043890   -1.649129
     11          1           0       -6.293640    2.521740   -3.292767
     12          6           0       -4.332155    2.041698   -2.593335
     13          1           0       -4.147539    1.175524   -3.226192
     14          1           0       -3.944792    2.915730   -3.118034
     15          8           0       -3.691260    1.889793   -1.365327
     16          6           0       -2.319139    1.659842   -1.442596
     17          1           0       -1.812476    2.476391   -1.953966
     18          1           0       -2.115127    0.746394   -1.999404
     19          6           0       -1.796937    1.551765   -0.019496
     20          1           0       -2.326667    0.763244    0.507038
     21          1           0       -1.986154    2.482124    0.499231
     22          8           0       -0.413028    1.335585    0.000000
     23          6           0        0.000000    0.000000    0.000000
     24          1           0       -0.367287   -0.530780   -0.873734
     25          1           0       -0.386315   -0.510377    0.879288
     26          6           0        1.520119    0.000000    0.000000
     27          1           0        1.888488    0.580366    0.835612
     28          1           0        1.879217    0.477236   -0.902617
     29         16           0        2.242560   -1.667241    0.016063
     30          6           0        2.183538   -2.106393    1.783052
     31          1           0        1.219999   -1.843062    2.198125
     32          1           0        2.255618   -3.185995    1.805177
     33          6           0        3.309609   -1.476927    2.600513
     34          1           0        3.246914   -0.396969    2.564199
     35          1           0        4.274124   -1.754446    2.194592
     36         16           0        3.257451   -1.891622    4.370824
     37          6           0        3.857559   -3.612838    4.360415
     38          1           0        4.808483   -3.644443    3.843375
     39          1           0        3.163146   -4.250942    3.831665
     40          6           0        4.006843   -4.103548    5.798615
     41          1           0        4.669212   -3.457081    6.359050
     42          1           0        3.045582   -4.083052    6.296891
     43         16           0        4.571784   -5.826847    5.923721
     44          6           0        6.356589   -5.694874    5.588682
     45          1           0        6.670847   -6.715866    5.407384
     46          1           0        6.512046   -5.152789    4.663800
     47          6           0        7.179373   -5.087995    6.721272
     48          1           0        6.894610   -4.061192    6.921886
     49          1           0        7.055536   -5.655650    7.635975
     50          1           0        8.232962   -5.090631    6.456340
 ---------------------------------------------------------------------
 Stoichiometry    C14H30O3S3
 Framework group  C1[X(C14H30O3S3)]
 Standard basis: 6-31G(d) (6D, 7F)
   372 basis functions,   752 primitive gaussians,   372 cartesian basis functions
    93 alpha electrons       93 beta electrons
 Requested convergence on RMS density matrix=1.00D-08 within  64 cycles.
 Requested convergence on MAX density matrix=1.00D-06.
 Requested convergence on             energy=1.00D-06.
 SCF Done:  E(RHF) =  -1964.69454565     A.U. after   13 cycles
            NFock= 13  Conv=0.57D-08     -V/T= 2.0006
 Mulliken charges:
     1  C   -0.487299
     2  H    0.176349
     3  H    0.174652
     4  H    0.154526
     5  C    0.018647
     6  H    0.135414
     7  H    0.135774
     8  O   -0.613337
     9  C    0.004179
    10  H    0.186323
    11  H    0.138185
    12  C    0.006062
    13  H    0.142084
    14  H    0.138979
    15  O   -0.625896
    16  C    0.014191
    17  H    0.149541
    18  H    0.139286
    19  C   -0.001918
    20  H    0.161082
    21  H    0.185015
    22  O   -0.641058
    23  C    0.030849
    24  H    0.155680
    25  H    0.149253
    26  C   -0.494135
    27  H    0.204840
    28  H    0.212354
    29  S    0.110506
    30  C   -0.476997
    31  H    0.210490
    32  H    0.205758
    33  C   -0.475874
    34  H    0.205938
    35  H    0.207006
    36  S    0.118131
    37  C   -0.454414
    38  H    0.190007
    39  H    0.205336
    40  C   -0.500157
    41  H    0.210996
    42  H    0.216857
    43  S    0.121413
    44  C   -0.476094
    45  H    0.201284
    46  H    0.189157
    47  C   -0.475366
    48  H    0.166868
    49  H    0.181485
    50  H    0.168050
 Sum of Mulliken charges =  -0.00000
 Dipole moment (field-independent basis, Debye):
    X=              0.8242    Y=              0.2994    Z=             -2.6497  Tot=              2.7910
 Quadrupole moment (field-independent basis, Debye-Ang):
   XX=           -135.7632   YY=           -154.9046   ZZ=           -149.5353
   XY=             -5.3816   XZ=             18.3834   YZ=             -0.8976
 Traceless Quadrupole moment (field-independent basis, Debye-Ang):
   XX=             10.9712   YY=             -8.1703   ZZ=             -2.8009
   XY=             -5.3816   XZ=             18.3834   YZ=             -0.8976
 Octapole moment (field-independent basis, Debye-Ang**2):
  XXX=            -87.8234  YYY=            702.3050  ZZZ=           -788.3847  XYY=            -71.7531
  XXY=            111.5664  XXZ=           -214.4434  XZZ=           -123.0378  YZZ=            271.1533
  YYZ=           -285.1905  XYZ=            -15.4242
 Hexadecapole moment (field-independent basis, Debye-Ang**3):
 XXXX=         -16574.4532 YYYY=          -8627.0874 ZZZZ=         -11969.8589 XXXY=           3731.7686
 XXXZ=          -4852.6175 YYYX=           4319.3598 YYYZ=           4751.0281 ZZZX=          -5917.5491
 ZZZY=           4696.8484 XXYY=          -3760.8568 XXZZ=          -4209.1329 YYZZ=          -3670.4368
 XXYZ=            930.5523 YYXZ=          -1895.1637 ZZXY=           1376.8950
 Merz-Kollman atomic radii used.
 Atom Element Radius
    1     6    1.50
    2     1    1.20
    3     1    1.20
    4     1    1.20
    5     6    1.50
    6     1    1.20
    7     1    1.20
    8     8    1.40
    9     6    1.50
   10     1    1.20
   11     1    1.20
   12     6    1.50
   13     1    1.20
   14     1    1.20
   15     8    1.40
   16     6    1.50
   17     1    1.20
   18     1    1.20
   19     6    1.50
   20     1    1.20
   21     1    1.20
   22     8    1.40
   23     6    1.50
   24     1    1.20
   25     1    1.20
   26     6    1.50
   27     1    1.20
   28     1    1.20
   29    16    1.75
   30     6    1.50
   31     1    1.20
   32     1    1.20
   33     6    1.50
   34     1    1.20
   35     1    1.20
   36    16    1.75
   37     6    1.50
   38     1    1.20
   39     1    1.20
   40     6    1.50
   41     1    1.20
   42     1    1.20
   43    16    1.75
   44     6    1.50
   45     1    1.20
   46     1    1.20
   47     6    1.50
   48     1    1.20
   49     1    1.20
   50     1    1.20
 Generate VDW surfaces: Layer= 4 Dens= 1 Start= 1.400 Inc= 0.200
            Electrostatic Properties Using The SCF Density.


       Atomic Center    1 is at  -7.550545 -0.966933 -1.924837
       Atomic Center    2 is at  -6.904351 -1.381607 -1.159675
       Atomic Center    3 is at  -8.429363 -0.555870 -1.441350
       Atomic Center    4 is at  -7.861757 -1.768509 -2.587687
       Atomic Center    5 is at  -6.822189  0.112804 -2.700958
       Atomic Center    6 is at  -5.950257 -0.309015 -3.196715
       Atomic Center    7 is at  -7.467705  0.525087 -3.476174
       Atomic Center    8 is at  -6.450851  1.119991 -1.805113
       Atomic Center    9 is at  -5.818496  2.234281 -2.355084
       Atomic Center   10 is at  -5.950268  3.043890 -1.649129
       Atomic Center   11 is at  -6.293640  2.521740 -3.292767
       Atomic Center   12 is at  -4.332155  2.041698 -2.593335
       Atomic Center   13 is at  -4.147539  1.175524 -3.226192
       Atomic Center   14 is at  -3.944792  2.915730 -3.118034
       Atomic Center   15 is at  -3.691260  1.889793 -1.365327
       Atomic Center   16 is at  -2.319139  1.659842 -1.442596
       Atomic Center   17 is at  -1.812476  2.476391 -1.953966
       Atomic Center   18 is at  -2.115127  0.746394 -1.999404
       Atomic Center   19 is at  -1.796937  1.551765 -0.019496
       Atomic Center   20 is at  -2.326667  0.763244  0.507038
       Atomic Center   21 is at  -1.986154  2.482124  0.499231
       Atomic Center   22 is at  -0.413028  1.335585  0.000000
       Atomic Center   23 is at   0.000000  0.000000  0.000000
       Atomic Center   24 is at  -0.367287 -0.530780 -0.873734
       Atomic Center   25 is at  -0.386315 -0.510377  0.879288
       Atomic Center   26 is at   1.520119  0.000000  0.000000
       Atomic Center   27 is at   1.888488  0.580366  0.835612
       Atomic Center   28 is at   1.879217  0.477236 -0.902617
       Atomic Center   29 is at   2.242560 -1.667241  0.016063
       Atomic Center   30 is at   2.183538 -2.106393  1.783052
       Atomic Center   31 is at   1.219999 -1.843062  2.198125
       Atomic Center   32 is at   2.255618 -3.185995  1.805177
       Atomic Center   33 is at   3.309609 -1.476927  2.600513
       Atomic Center   34 is at   3.246914 -0.396969  2.564199
       Atomic Center   35 is at   4.274124 -1.754446  2.194592
       Atomic Center   36 is at   3.257451 -1.891622  4.370824
       Atomic Center   37 is at   3.857559 -3.612838  4.360415
       Atomic Center   38 is at   4.808483 -3.644443  3.843375
       Atomic Center   39 is at   3.163146 -4.250942  3.831665
       Atomic Center   40 is at   4.006843 -4.103548  5.798615
       Atomic Center   41 is at   4.669212 -3.457081  6.359050
       Atomic Center   42 is at   3.045582 -4.083052  6.296891
       Atomic Center   43 is at   4.571784 -5.826847  5.923721
       Atomic Center   44 is at   6.356589 -5.694874  5.588682
       Atomic Center   45 is at   6.670847 -6.715866  5.407384
       Atomic Center   46 is at   6.512046 -5.152789  4.663800
       Atomic Center   47 is at   7.179373 -5.087995  6.721272
       Atomic Center   48 is at   6.894610 -4.061192  6.921886
       Atomic Center   49 is at   7.055536 -5.655650  7.635975
       Atomic Center   50 is at   8.232962 -5.090631  6.456340
      ESP Fit Center   51 is at  -7.025545 -0.057606 -0.106184
      ESP Fit Center   52 is at  -8.741510 -2.341379 -0.874837
      ESP Fit Center   53 is at  -9.295530 -0.454559 -2.974837
      ESP Fit Center   54 is at  -6.904351 -1.381607  0.520325
      ESP Fit Center   55 is at  -5.916872 -1.381607  0.199474
      ESP Fit Center   56 is at  -6.599203 -0.442458  0.199474
      ESP Fit Center   57 is at  -7.703238 -0.801181  0.199474
      ESP Fit Center   58 is at  -7.703238 -1.962033  0.199474
      ESP Fit Center   59 is at  -6.599203 -2.320756  0.199474
      ESP Fit Center   60 is at  -5.306576 -1.381607 -0.640526
      ESP Fit Center   61 is at  -5.680384 -0.354577 -0.640526
      ESP Fit Center   62 is at  -7.703238 -2.765321 -0.640526
      ESP Fit Center   63 is at  -6.626900 -2.955108 -0.640526
      ESP Fit Center   64 is at  -5.680384 -2.408637 -0.640526
      ESP Fit Center   65 is at  -5.306576 -1.381607 -1.678824
      ESP Fit Center   66 is at  -6.626900 -2.955108 -1.678824
      ESP Fit Center   67 is at  -5.680384 -2.408637 -1.678824
      ESP Fit Center   68 is at  -8.429363 -0.555870  0.238650
      ESP Fit Center   69 is at  -8.124215  0.383279 -0.082201
      ESP Fit Center   70 is at  -9.228250  0.024556 -0.082201
      ESP Fit Center   71 is at  -9.228250 -1.136296 -0.082201
      ESP Fit Center   72 is at  -9.228250  0.827844 -0.922201
      ESP Fit Center   73 is at  -9.930780 -0.009399 -0.922201
      ESP Fit Center   74 is at  -9.930780 -1.102341 -0.922201
      ESP Fit Center   75 is at  -9.228250 -1.939584 -0.922201
      ESP Fit Center   76 is at  -9.228250  0.827844 -1.960499
      ESP Fit Center   77 is at  -9.930780 -0.009399 -1.960499
      ESP Fit Center   78 is at  -9.930780 -1.102341 -1.960499
      ESP Fit Center   79 is at  -9.228250  0.024556 -2.800499
      ESP Fit Center   80 is at  -9.363174 -2.314980 -2.068538
      ESP Fit Center   81 is at  -8.660644 -3.152223 -2.068538
      ESP Fit Center   82 is at  -7.584306 -3.342010 -2.068538
      ESP Fit Center   83 is at  -9.363174 -1.222038 -3.106836
      ESP Fit Center   84 is at  -9.363174 -2.314980 -3.106836
      ESP Fit Center   85 is at  -8.660644 -3.152223 -3.106836
      ESP Fit Center   86 is at  -7.584306 -3.342010 -3.106836
      ESP Fit Center   87 is at  -6.637790 -2.795539 -3.106836
      ESP Fit Center   88 is at  -6.874278 -1.768509 -3.946836
      ESP Fit Center   89 is at  -8.660644 -1.188083 -3.946836
      ESP Fit Center   90 is at  -8.660644 -2.348935 -3.946836
      ESP Fit Center   91 is at  -7.556609 -2.707658 -3.946836
      ESP Fit Center   92 is at  -7.861757 -1.768509 -4.267687
      ESP Fit Center   93 is at  -5.292240 -0.870434 -1.650958
      ESP Fit Center   94 is at  -7.347189 -0.796523 -4.519611
      ESP Fit Center   95 is at  -5.672806 -1.882516 -2.677566
      ESP Fit Center   96 is at  -4.726290 -1.336045 -2.677566
      ESP Fit Center   97 is at  -5.672806 -1.882516 -3.715864
      ESP Fit Center   98 is at  -4.726290 -1.336045 -3.715864
      ESP Fit Center   99 is at  -4.962778 -0.309015 -4.555864
      ESP Fit Center  100 is at  -5.645109  0.630134 -4.555864
      ESP Fit Center  101 is at  -6.749144 -0.889441 -4.555864
      ESP Fit Center  102 is at  -5.645109 -1.248164 -4.555864
      ESP Fit Center  103 is at  -5.950257 -0.309015 -4.876715
      ESP Fit Center  104 is at  -8.266592  1.908801 -2.957025
      ESP Fit Center  105 is at  -8.969122  1.071558 -2.957025
      ESP Fit Center  106 is at  -8.266592  1.908801 -3.995323
      ESP Fit Center  107 is at  -8.969122  1.071558 -3.995323
      ESP Fit Center  108 is at  -8.969122 -0.021384 -3.995323
      ESP Fit Center  109 is at  -8.266592 -0.858627 -3.995323
      ESP Fit Center  110 is at  -6.480226  0.525087 -4.835323
      ESP Fit Center  111 is at  -7.162557  1.464236 -4.835323
      ESP Fit Center  112 is at  -8.266592  1.105513 -4.835323
      ESP Fit Center  113 is at  -8.266592 -0.055339 -4.835323
      ESP Fit Center  114 is at  -7.162557 -0.414062 -4.835323
      ESP Fit Center  115 is at  -7.467705  0.525087 -5.156174
      ESP Fit Center  116 is at  -6.450851  1.119991  0.154887
      ESP Fit Center  117 is at  -5.470851  1.119991 -0.107703
      ESP Fit Center  118 is at  -5.960851  1.968696 -0.107703
      ESP Fit Center  119 is at  -6.940851  1.968696 -0.107703
      ESP Fit Center  120 is at  -7.430851  1.119991 -0.107703
      ESP Fit Center  121 is at  -6.940851  0.271286 -0.107703
      ESP Fit Center  122 is at  -5.960851  0.271286 -0.107703
      ESP Fit Center  123 is at  -7.824084  2.117703 -0.825113
      ESP Fit Center  124 is at  -8.148261  1.119991 -0.825113
      ESP Fit Center  125 is at  -5.077618  0.122279 -0.825113
      ESP Fit Center  126 is at  -8.148261  2.099991 -1.805113
      ESP Fit Center  127 is at  -4.753441  0.139991 -1.805113
      ESP Fit Center  128 is at  -7.390369  3.626839 -2.355084
      ESP Fit Center  129 is at  -7.857474  2.736844 -2.355084
      ESP Fit Center  130 is at  -5.950268  3.043890  0.030871
      ESP Fit Center  131 is at  -4.962789  3.043890 -0.289980
      ESP Fit Center  132 is at  -5.645120  3.983039 -0.289980
      ESP Fit Center  133 is at  -6.749155  3.624316 -0.289980
      ESP Fit Center  134 is at  -6.749155  2.463464 -0.289980
      ESP Fit Center  135 is at  -4.726301  4.070920 -1.129980
      ESP Fit Center  136 is at  -5.672817  4.617391 -1.129980
      ESP Fit Center  137 is at  -6.749155  4.427604 -1.129980
      ESP Fit Center  138 is at  -7.451685  3.590361 -1.129980
      ESP Fit Center  139 is at  -4.726301  4.070920 -2.168278
      ESP Fit Center  140 is at  -5.672817  4.617391 -2.168278
      ESP Fit Center  141 is at  -6.749155  4.427604 -2.168278
      ESP Fit Center  142 is at  -7.451685  3.590361 -2.168278
      ESP Fit Center  143 is at  -7.092527  3.905454 -2.773618
      ESP Fit Center  144 is at  -7.795057  3.068211 -2.773618
      ESP Fit Center  145 is at  -6.016189  4.095241 -3.811916
      ESP Fit Center  146 is at  -7.092527  3.905454 -3.811916
      ESP Fit Center  147 is at  -7.795057  3.068211 -3.811916
      ESP Fit Center  148 is at  -5.306161  2.521740 -4.651916
      ESP Fit Center  149 is at  -5.988492  3.460889 -4.651916
      ESP Fit Center  150 is at  -7.092527  3.102166 -4.651916
      ESP Fit Center  151 is at  -7.092527  1.941314 -4.651916
      ESP Fit Center  152 is at  -5.988492  1.582591 -4.651916
      ESP Fit Center  153 is at  -6.293640  2.521740 -4.972767
      ESP Fit Center  154 is at  -2.513502  2.041698 -3.643335
      ESP Fit Center  155 is at  -3.282155  2.041698 -4.411988
      ESP Fit Center  156 is at  -4.332155  2.041698 -4.693335
      ESP Fit Center  157 is at  -3.870088 -0.397977 -2.707043
      ESP Fit Center  158 is at  -2.549764  1.175524 -3.745341
      ESP Fit Center  159 is at  -3.870088 -0.397977 -3.745341
      ESP Fit Center  160 is at  -2.923572  0.148494 -3.745341
      ESP Fit Center  161 is at  -3.160060  1.175524 -4.585341
      ESP Fit Center  162 is at  -4.946426  1.755950 -4.585341
      ESP Fit Center  163 is at  -4.946426  0.595098 -4.585341
      ESP Fit Center  164 is at  -3.842391  0.236375 -4.585341
      ESP Fit Center  165 is at  -4.147539  1.175524 -4.906192
      ESP Fit Center  166 is at  -3.639644  3.854879 -1.758885
      ESP Fit Center  167 is at  -2.720825  3.942760 -2.598885
      ESP Fit Center  168 is at  -3.667341  4.489231 -2.598885
      ESP Fit Center  169 is at  -4.743679  4.299444 -2.598885
      ESP Fit Center  170 is at  -2.347017  2.915730 -3.637183
      ESP Fit Center  171 is at  -2.720825  3.942760 -3.637183
      ESP Fit Center  172 is at  -3.667341  4.489231 -3.637183
      ESP Fit Center  173 is at  -4.743679  4.299444 -3.637183
      ESP Fit Center  174 is at  -2.957313  2.915730 -4.477183
      ESP Fit Center  175 is at  -3.639644  3.854879 -4.477183
      ESP Fit Center  176 is at  -4.743679  3.496156 -4.477183
      ESP Fit Center  177 is at  -3.944792  2.915730 -4.798034
      ESP Fit Center  178 is at  -4.181260  2.738498  0.332083
      ESP Fit Center  179 is at  -4.671260  1.889793  0.332083
      ESP Fit Center  180 is at  -4.181260  1.041088  0.332083
      ESP Fit Center  181 is at  -3.166732  3.504126 -0.385327
      ESP Fit Center  182 is at  -4.215788  3.504126 -0.385327
      ESP Fit Center  183 is at  -5.064493  0.892081 -0.385327
      ESP Fit Center  184 is at  -4.215788  0.275460 -0.385327
      ESP Fit Center  185 is at  -3.691260  3.849793 -1.365327
      ESP Fit Center  186 is at  -4.671260  0.192383 -1.365327
      ESP Fit Center  187 is at  -3.691260 -0.070207 -1.365327
      ESP Fit Center  188 is at  -2.319139  1.659842 -3.542596
      ESP Fit Center  189 is at  -0.588509  3.503421 -1.434817
      ESP Fit Center  190 is at  -1.535025  4.049892 -1.434817
      ESP Fit Center  191 is at  -2.611363  3.860105 -1.434817
      ESP Fit Center  192 is at  -0.214701  2.476391 -2.473115
      ESP Fit Center  193 is at  -0.588509  3.503421 -2.473115
      ESP Fit Center  194 is at  -1.535025  4.049892 -2.473115
      ESP Fit Center  195 is at  -2.611363  3.860105 -2.473115
      ESP Fit Center  196 is at  -0.824997  2.476391 -3.313115
      ESP Fit Center  197 is at  -1.507328  3.415540 -3.313115
      ESP Fit Center  198 is at  -1.812476  2.476391 -3.633966
      ESP Fit Center  199 is at  -2.914014 -0.637320 -1.480255
      ESP Fit Center  200 is at  -0.517352  0.746394 -2.518553
      ESP Fit Center  201 is at  -2.914014 -0.637320 -2.518553
      ESP Fit Center  202 is at  -1.837676 -0.827107 -2.518553
      ESP Fit Center  203 is at  -0.891160 -0.280636 -2.518553
      ESP Fit Center  204 is at  -1.127648  0.746394 -3.358553
      ESP Fit Center  205 is at  -1.809979 -0.192755 -3.358553
      ESP Fit Center  206 is at  -2.115127  0.746394 -3.679404
      ESP Fit Center  207 is at  -1.796937  1.551765  2.080504
      ESP Fit Center  208 is at  -3.541922  2.064139  1.030504
      ESP Fit Center  209 is at  -2.326667  0.763244  2.187038
      ESP Fit Center  210 is at  -3.125554  1.343670  1.866187
      ESP Fit Center  211 is at  -3.125554  0.182818  1.866187
      ESP Fit Center  212 is at  -2.021519 -0.175905  1.866187
      ESP Fit Center  213 is at  -3.828084  1.309715  1.026187
      ESP Fit Center  214 is at  -3.828084  0.216773  1.026187
      ESP Fit Center  215 is at  -3.125554 -0.620470  1.026187
      ESP Fit Center  216 is at  -2.049216 -0.810257  1.026187
      ESP Fit Center  217 is at  -3.828084  0.216773 -0.012111
      ESP Fit Center  218 is at  -3.125554 -0.620470 -0.012111
      ESP Fit Center  219 is at  -2.049216 -0.810257 -0.012111
      ESP Fit Center  220 is at  -1.986154  2.482124  2.179231
      ESP Fit Center  221 is at  -0.998675  2.482124  1.858380
      ESP Fit Center  222 is at  -1.681006  3.421273  1.858380
      ESP Fit Center  223 is at  -2.785041  3.062550  1.858380
      ESP Fit Center  224 is at  -2.785041  1.901698  1.858380
      ESP Fit Center  225 is at  -0.762187  3.509154  1.018380
      ESP Fit Center  226 is at  -1.708703  4.055625  1.018380
      ESP Fit Center  227 is at  -2.785041  3.865838  1.018380
      ESP Fit Center  228 is at  -3.487571  3.028595  1.018380
      ESP Fit Center  229 is at  -0.762187  3.509154 -0.019918
      ESP Fit Center  230 is at  -1.708703  4.055625 -0.019918
      ESP Fit Center  231 is at  -2.785041  3.865838 -0.019918
      ESP Fit Center  232 is at  -0.413028  1.335585  1.960000
      ESP Fit Center  233 is at   0.566972  1.335585  1.697410
      ESP Fit Center  234 is at   0.076972  2.184290  1.697410
      ESP Fit Center  235 is at   0.960205  2.333297  0.980000
      ESP Fit Center  236 is at   0.111500  2.949918  0.980000
      ESP Fit Center  237 is at   1.284382  2.315585  0.000000
      ESP Fit Center  238 is at   0.566972  3.032995  0.000000
      ESP Fit Center  239 is at  -0.413028  3.295585  0.000000
      ESP Fit Center  240 is at   0.960205  2.333297 -0.980000
      ESP Fit Center  241 is at   0.111500  2.949918 -0.980000
      ESP Fit Center  242 is at   0.566972  1.335585 -1.697410
      ESP Fit Center  243 is at   0.076972  2.184290 -1.697410
      ESP Fit Center  244 is at   0.525000  0.909327  1.818653
      ESP Fit Center  245 is at  -1.571873 -1.392558  0.000000
      ESP Fit Center  246 is at  -0.744670 -1.963534  0.000000
      ESP Fit Center  247 is at   0.525000  0.909327 -1.818653
      ESP Fit Center  248 is at  -1.868704 -1.077251 -0.354585
      ESP Fit Center  249 is at  -1.166174 -1.914494 -0.354585
      ESP Fit Center  250 is at  -1.868704 -1.077251 -1.392883
      ESP Fit Center  251 is at  -1.166174 -1.914494 -1.392883
      ESP Fit Center  252 is at  -0.089836 -2.104281 -1.392883
      ESP Fit Center  253 is at   0.620192 -0.530780 -2.232883
      ESP Fit Center  254 is at  -0.062139  0.408369 -2.232883
      ESP Fit Center  255 is at  -1.166174 -1.111206 -2.232883
      ESP Fit Center  256 is at  -0.062139 -1.469929 -2.232883
      ESP Fit Center  257 is at  -0.367287 -0.530780 -2.553734
      ESP Fit Center  258 is at  -0.386315 -0.510377  2.559288
      ESP Fit Center  259 is at  -0.081167  0.428772  2.238437
      ESP Fit Center  260 is at  -1.185202  0.070049  2.238437
      ESP Fit Center  261 is at  -1.185202 -1.090803  2.238437
      ESP Fit Center  262 is at  -1.887732 -1.056848  1.398437
      ESP Fit Center  263 is at  -1.185202 -1.894091  1.398437
      ESP Fit Center  264 is at  -1.887732 -1.056848  0.360139
      ESP Fit Center  265 is at  -1.185202 -1.894091  0.360139
      ESP Fit Center  266 is at   3.379577  0.975919  0.000000
      ESP Fit Center  267 is at   1.773246  2.084689  0.000000
      ESP Fit Center  268 is at   2.193636  1.519515  2.194761
      ESP Fit Center  269 is at   1.089601  1.160792  2.194761
      ESP Fit Center  270 is at   1.089601 -0.000060  2.194761
      ESP Fit Center  271 is at   3.112455  1.607396  1.354761
      ESP Fit Center  272 is at   2.165939  2.153867  1.354761
      ESP Fit Center  273 is at   1.089601  1.964080  1.354761
      ESP Fit Center  274 is at   3.112455  1.607396  0.316463
      ESP Fit Center  275 is at   2.165939  2.153867  0.316463
      ESP Fit Center  276 is at   3.103184  1.504266 -0.383468
      ESP Fit Center  277 is at   2.156668  2.050737 -0.383468
      ESP Fit Center  278 is at   3.476992  0.477236 -1.421766
      ESP Fit Center  279 is at   3.103184  1.504266 -1.421766
      ESP Fit Center  280 is at   2.156668  2.050737 -1.421766
      ESP Fit Center  281 is at   1.080330  1.860950 -1.421766
      ESP Fit Center  282 is at   2.866696  0.477236 -2.261766
      ESP Fit Center  283 is at   2.184365  1.416385 -2.261766
      ESP Fit Center  284 is at   1.080330  1.057662 -2.261766
      ESP Fit Center  285 is at   1.080330 -0.103190 -2.261766
      ESP Fit Center  286 is at   2.184365 -0.461913 -2.261766
      ESP Fit Center  287 is at   1.879217  0.477236 -2.582617
      ESP Fit Center  288 is at   4.394590 -0.630878  0.561239
      ESP Fit Center  289 is at   3.731811  0.200221  0.561239
      ESP Fit Center  290 is at   0.090530 -2.703604  0.561239
      ESP Fit Center  291 is at   0.753309 -3.534703  0.561239
      ESP Fit Center  292 is at   3.731811 -3.534703  0.561239
      ESP Fit Center  293 is at   4.394590 -2.703604  0.561239
      ESP Fit Center  294 is at   4.631133 -1.667241 -0.529113
      ESP Fit Center  295 is at   4.394590 -0.630878 -0.529113
      ESP Fit Center  296 is at   3.731811  0.200221 -0.529113
      ESP Fit Center  297 is at   0.090530 -2.703604 -0.529113
      ESP Fit Center  298 is at   0.753309 -3.534703 -0.529113
      ESP Fit Center  299 is at   1.711052 -3.995928 -0.529113
      ESP Fit Center  300 is at   2.774068 -3.995928 -0.529113
      ESP Fit Center  301 is at   3.731811 -3.534703 -0.529113
      ESP Fit Center  302 is at   4.394590 -2.703604 -0.529113
      ESP Fit Center  303 is at   4.158047 -1.667241 -1.511487
      ESP Fit Center  304 is at   3.853970 -0.631650 -1.511487
      ESP Fit Center  305 is at   0.404664 -2.206896 -1.511487
      ESP Fit Center  306 is at   0.988183 -3.114870 -1.511487
      ESP Fit Center  307 is at   1.969958 -3.563231 -1.511487
      ESP Fit Center  308 is at   3.038282 -3.409629 -1.511487
      ESP Fit Center  309 is at   3.853970 -2.702832 -1.511487
      ESP Fit Center  310 is at   3.305575 -1.667241 -2.191311
      ESP Fit Center  311 is at   2.774068 -0.746643 -2.191311
      ESP Fit Center  312 is at   1.711052 -0.746643 -2.191311
      ESP Fit Center  313 is at   1.179545 -1.667241 -2.191311
      ESP Fit Center  314 is at   1.711052 -2.587839 -2.191311
      ESP Fit Center  315 is at   2.774068 -2.587839 -2.191311
      ESP Fit Center  316 is at   2.242560 -1.667241 -2.433937
      ESP Fit Center  317 is at   0.421112 -1.262636  3.557274
      ESP Fit Center  318 is at   0.421112 -2.423488  3.557274
      ESP Fit Center  319 is at   1.497450 -0.269561  2.717274
      ESP Fit Center  320 is at   0.421112 -0.459348  2.717274
      ESP Fit Center  321 is at  -0.281418 -1.296591  2.717274
      ESP Fit Center  322 is at  -0.281418 -2.389533  2.717274
      ESP Fit Center  323 is at   0.421112 -3.226776  2.717274
      ESP Fit Center  324 is at  -0.281418 -2.389533  1.678976
      ESP Fit Center  325 is at   1.456731 -3.766421  3.164326
      ESP Fit Center  326 is at   0.754201 -3.732466  2.324326
      ESP Fit Center  327 is at   1.456731 -4.569709  2.324326
      ESP Fit Center  328 is at   2.533069 -4.759496  2.324326
      ESP Fit Center  329 is at   0.754201 -3.732466  1.286028
      ESP Fit Center  330 is at   1.456731 -4.569709  1.286028
      ESP Fit Center  331 is at   2.533069 -4.759496  1.286028
      ESP Fit Center  332 is at   3.479585 -4.213025  1.286028
      ESP Fit Center  333 is at   2.560766 -4.125144  0.446028
      ESP Fit Center  334 is at   3.552062  0.542180  3.923348
      ESP Fit Center  335 is at   4.470881  0.630061  3.083348
      ESP Fit Center  336 is at   3.524365  1.176532  3.083348
      ESP Fit Center  337 is at   2.448027  0.986745  3.083348
      ESP Fit Center  338 is at   1.745497  0.149502  3.083348
      ESP Fit Center  339 is at   4.470881  0.630061  2.045050
      ESP Fit Center  340 is at   3.524365  1.176532  2.045050
      ESP Fit Center  341 is at   3.552062  0.542180  1.205050
      ESP Fit Center  342 is at   5.871899 -1.754446  2.713741
      ESP Fit Center  343 is at   5.498091 -0.727416  2.713741
      ESP Fit Center  344 is at   5.871899 -1.754446  1.675443
      ESP Fit Center  345 is at   5.498091 -0.727416  1.675443
      ESP Fit Center  346 is at   4.551575 -3.327947  1.675443
      ESP Fit Center  347 is at   5.498091 -2.781476  1.675443
      ESP Fit Center  348 is at   5.261603 -1.754446  0.835443
      ESP Fit Center  349 is at   4.579272 -0.815297  0.835443
      ESP Fit Center  350 is at   4.579272 -2.693595  0.835443
      ESP Fit Center  351 is at   3.257451 -1.891622  6.820824
      ESP Fit Center  352 is at   3.788959 -0.971024  6.578198
      ESP Fit Center  353 is at   2.725943 -0.971024  6.578198
      ESP Fit Center  354 is at   2.194436 -1.891622  6.578198
      ESP Fit Center  355 is at   5.172938 -1.891622  5.898374
      ESP Fit Center  356 is at   4.868861 -0.856031  5.898374
      ESP Fit Center  357 is at   4.053173 -0.149234  5.898374
      ESP Fit Center  358 is at   2.984849  0.004368  5.898374
      ESP Fit Center  359 is at   2.003074 -0.443993  5.898374
      ESP Fit Center  360 is at   1.419555 -1.351967  5.898374
      ESP Fit Center  361 is at   1.419555 -2.431277  5.898374
      ESP Fit Center  362 is at   5.646024 -1.891622  4.916000
      ESP Fit Center  363 is at   5.409481 -0.855259  4.916000
      ESP Fit Center  364 is at   4.746702 -0.024160  4.916000
      ESP Fit Center  365 is at   3.788959  0.437065  4.916000
      ESP Fit Center  366 is at   2.725943  0.437065  4.916000
      ESP Fit Center  367 is at   1.768200 -0.024160  4.916000
      ESP Fit Center  368 is at   1.105421 -0.855259  4.916000
      ESP Fit Center  369 is at   0.868878 -1.891622  4.916000
      ESP Fit Center  370 is at   1.105421 -2.927985  4.916000
      ESP Fit Center  371 is at   1.768200 -3.759084  4.916000
      ESP Fit Center  372 is at   5.646024 -1.891622  3.825648
      ESP Fit Center  373 is at   5.409481 -0.855259  3.825648
      ESP Fit Center  374 is at   4.746702 -0.024160  3.825648
      ESP Fit Center  375 is at   1.768200 -0.024160  3.825648
      ESP Fit Center  376 is at   1.105421 -0.855259  3.825648
      ESP Fit Center  377 is at   1.105421 -2.927985  3.825648
      ESP Fit Center  378 is at   4.613055 -5.267143  3.310415
      ESP Fit Center  379 is at   3.857559 -3.612838  2.260415
      ESP Fit Center  380 is at   6.032450 -2.617413  4.362524
      ESP Fit Center  381 is at   6.406258 -3.644443  3.324226
      ESP Fit Center  382 is at   6.032450 -2.617413  3.324226
      ESP Fit Center  383 is at   5.085934 -5.217944  3.324226
      ESP Fit Center  384 is at   5.795962 -3.644443  2.484226
      ESP Fit Center  385 is at   5.113631 -4.583592  2.484226
      ESP Fit Center  386 is at   4.808483 -3.644443  2.163375
      ESP Fit Center  387 is at   1.661729 -4.797413  4.350814
      ESP Fit Center  388 is at   2.364259 -5.634656  4.350814
      ESP Fit Center  389 is at   1.661729 -3.704471  3.312516
      ESP Fit Center  390 is at   1.661729 -4.797413  3.312516
      ESP Fit Center  391 is at   2.364259 -5.634656  3.312516
      ESP Fit Center  392 is at   3.440597 -5.824443  3.312516
      ESP Fit Center  393 is at   2.364259 -4.831368  2.472516
      ESP Fit Center  394 is at   3.468294 -5.190091  2.472516
      ESP Fit Center  395 is at   4.006843 -4.103548  7.898615
      ESP Fit Center  396 is at   4.669212 -3.457081  8.039050
      ESP Fit Center  397 is at   4.974360 -2.517932  7.718199
      ESP Fit Center  398 is at   3.870325 -2.876655  7.718199
      ESP Fit Center  399 is at   5.893179 -2.430051  6.878199
      ESP Fit Center  400 is at   4.946663 -1.883580  6.878199
      ESP Fit Center  401 is at   3.870325 -2.073367  6.878199
      ESP Fit Center  402 is at   5.893179 -2.430051  5.839901
      ESP Fit Center  403 is at   3.045582 -4.083052  7.976891
      ESP Fit Center  404 is at   3.350730 -3.143903  7.656040
      ESP Fit Center  405 is at   2.246695 -3.502626  7.656040
      ESP Fit Center  406 is at   2.246695 -4.663478  7.656040
      ESP Fit Center  407 is at   2.246695 -2.699338  6.816040
      ESP Fit Center  408 is at   1.544165 -3.536581  6.816040
      ESP Fit Center  409 is at   1.544165 -4.629523  6.816040
      ESP Fit Center  410 is at   2.246695 -5.466766  6.816040
      ESP Fit Center  411 is at   1.544165 -3.536581  5.777742
      ESP Fit Center  412 is at   1.544165 -4.629523  5.777742
      ESP Fit Center  413 is at   4.571784 -5.826847  8.373721
      ESP Fit Center  414 is at   5.103292 -4.906249  8.131095
      ESP Fit Center  415 is at   4.040276 -4.906249  8.131095
      ESP Fit Center  416 is at   3.508769 -5.826847  8.131095
      ESP Fit Center  417 is at   4.040276 -6.747445  8.131095
      ESP Fit Center  418 is at   5.103292 -6.747445  8.131095
      ESP Fit Center  419 is at   2.733888 -5.287192  7.451271
      ESP Fit Center  420 is at   2.733888 -6.366502  7.451271
      ESP Fit Center  421 is at   3.317407 -7.274476  7.451271
      ESP Fit Center  422 is at   4.299182 -7.722837  7.451271
      ESP Fit Center  423 is at   5.367506 -7.569235  7.451271
      ESP Fit Center  424 is at   2.183211 -5.826847  6.468897
      ESP Fit Center  425 is at   2.419754 -6.863210  6.468897
      ESP Fit Center  426 is at   3.082533 -7.694309  6.468897
      ESP Fit Center  427 is at   4.040276 -8.155534  6.468897
      ESP Fit Center  428 is at   5.103292 -8.155534  6.468897
      ESP Fit Center  429 is at   2.183211 -5.826847  5.378545
      ESP Fit Center  430 is at   2.419754 -6.863210  5.378545
      ESP Fit Center  431 is at   3.082533 -7.694309  5.378545
      ESP Fit Center  432 is at   4.040276 -8.155534  5.378545
      ESP Fit Center  433 is at   5.103292 -8.155534  5.378545
      ESP Fit Center  434 is at   2.733888 -6.366502  4.396171
      ESP Fit Center  435 is at   3.317407 -7.274476  4.396171
      ESP Fit Center  436 is at   4.299182 -7.722837  4.396171
      ESP Fit Center  437 is at   5.367506 -7.569235  4.396171
      ESP Fit Center  438 is at   4.040276 -6.747445  3.716347
      ESP Fit Center  439 is at   5.103292 -6.747445  3.716347
      ESP Fit Center  440 is at   4.571784 -5.826847  3.473721
      ESP Fit Center  441 is at   8.175242 -5.694874  4.538682
      ESP Fit Center  442 is at   5.831589 -6.604201  3.770029
      ESP Fit Center  443 is at   6.975995 -7.655015  6.766533
      ESP Fit Center  444 is at   8.268622 -6.715866  5.926533
      ESP Fit Center  445 is at   5.871960 -8.099580  5.926533
      ESP Fit Center  446 is at   6.948298 -8.289367  5.926533
      ESP Fit Center  447 is at   7.894814 -7.742896  5.926533
      ESP Fit Center  448 is at   8.268622 -6.715866  4.888235
      ESP Fit Center  449 is at   5.871960 -8.099580  4.888235
      ESP Fit Center  450 is at   6.948298 -8.289367  4.888235
      ESP Fit Center  451 is at   7.894814 -7.742896  4.888235
      ESP Fit Center  452 is at   7.658326 -6.715866  4.048235
      ESP Fit Center  453 is at   5.871960 -7.296292  4.048235
      ESP Fit Center  454 is at   6.975995 -7.655015  4.048235
      ESP Fit Center  455 is at   6.670847 -6.715866  3.727384
      ESP Fit Center  456 is at   6.789497 -3.579288  5.182949
      ESP Fit Center  457 is at   8.109821 -5.152789  4.144651
      ESP Fit Center  458 is at   7.736013 -4.125759  4.144651
      ESP Fit Center  459 is at   6.789497 -3.579288  4.144651
      ESP Fit Center  460 is at   7.499525 -5.152789  3.304651
      ESP Fit Center  461 is at   6.817194 -4.213640  3.304651
      ESP Fit Center  462 is at   5.713159 -5.733215  3.304651
      ESP Fit Center  463 is at   6.817194 -6.091938  3.304651
      ESP Fit Center  464 is at   6.512046 -5.152789  2.983800
      ESP Fit Center  465 is at   7.704373 -4.178668  8.539925
      ESP Fit Center  466 is at   8.709322 -4.104757  7.771272
      ESP Fit Center  467 is at   8.709322 -6.071233  7.771272
      ESP Fit Center  468 is at   8.372309 -6.816261  6.721272
      ESP Fit Center  469 is at   7.934869 -3.433690  5.671272
      ESP Fit Center  470 is at   6.894610 -4.061192  8.601886
      ESP Fit Center  471 is at   7.199758 -3.122043  8.281035
      ESP Fit Center  472 is at   6.095723 -3.480766  8.281035
      ESP Fit Center  473 is at   8.118577 -3.034162  7.441035
      ESP Fit Center  474 is at   7.172061 -2.487691  7.441035
      ESP Fit Center  475 is at   6.095723 -2.677478  7.441035
      ESP Fit Center  476 is at   8.118577 -3.034162  6.402737
      ESP Fit Center  477 is at   7.172061 -2.487691  6.402737
      ESP Fit Center  478 is at   7.199758 -3.122043  5.562737
      ESP Fit Center  479 is at   7.055536 -5.655650  9.315975
      ESP Fit Center  480 is at   8.043015 -5.655650  8.995124
      ESP Fit Center  481 is at   7.360684 -4.716501  8.995124
      ESP Fit Center  482 is at   6.256649 -5.075224  8.995124
      ESP Fit Center  483 is at   6.256649 -6.236076  8.995124
      ESP Fit Center  484 is at   7.360684 -6.594799  8.995124
      ESP Fit Center  485 is at   8.653311 -5.655650  8.155124
      ESP Fit Center  486 is at   5.554119 -5.109179  8.155124
      ESP Fit Center  487 is at   5.554119 -6.202121  8.155124
      ESP Fit Center  488 is at   6.256649 -7.039364  8.155124
      ESP Fit Center  489 is at   7.332987 -7.229151  8.155124
      ESP Fit Center  490 is at   8.279503 -6.682680  8.155124
      ESP Fit Center  491 is at   7.332987 -7.229151  7.116826
      ESP Fit Center  492 is at   9.220441 -5.090631  7.815489
      ESP Fit Center  493 is at   9.830737 -5.090631  6.975489
      ESP Fit Center  494 is at   9.456929 -4.063601  6.975489
      ESP Fit Center  495 is at   9.456929 -6.117661  6.975489
      ESP Fit Center  496 is at   9.830737 -5.090631  5.937191
      ESP Fit Center  497 is at   9.456929 -4.063601  5.937191
      ESP Fit Center  498 is at   8.510413 -3.517130  5.937191
      ESP Fit Center  499 is at   8.510413 -6.664132  5.937191
      ESP Fit Center  500 is at   9.456929 -6.117661  5.937191
      ESP Fit Center  501 is at   9.220441 -5.090631  5.097191
      ESP Fit Center  502 is at   8.538110 -4.151482  5.097191
      ESP Fit Center  503 is at   8.538110 -6.029780  5.097191
      ESP Fit Center  504 is at   8.232962 -5.090631  4.776340
      ESP Fit Center  505 is at  -7.029885 -0.065123  0.237488
      ESP Fit Center  506 is at  -8.779323 -2.385018 -0.428461
      ESP Fit Center  507 is at  -9.009403 -2.796283 -1.390787
      ESP Fit Center  508 is at  -6.091687 -2.796283 -2.458887
      ESP Fit Center  509 is at  -9.350933 -0.438291 -3.421213
      ESP Fit Center  510 is at  -6.904351 -1.381607  0.760325
      ESP Fit Center  511 is at  -5.944351 -1.381607  0.503094
      ESP Fit Center  512 is at  -6.424351 -0.550223  0.503094
      ESP Fit Center  513 is at  -7.384351 -0.550223  0.503094
      ESP Fit Center  514 is at  -7.864351 -1.381607  0.503094
      ESP Fit Center  515 is at  -7.384351 -2.212991  0.503094
      ESP Fit Center  516 is at  -6.424351 -2.212991  0.503094
      ESP Fit Center  517 is at  -5.241582 -1.381607 -0.199675
      ESP Fit Center  518 is at  -5.559143 -0.404256 -0.199675
      ESP Fit Center  519 is at  -7.418175 -2.962994 -0.199675
      ESP Fit Center  520 is at  -6.390527 -2.962994 -0.199675
      ESP Fit Center  521 is at  -5.559143 -2.358958 -0.199675
      ESP Fit Center  522 is at  -4.984351 -1.381607 -1.159675
      ESP Fit Center  523 is at  -6.904351 -3.301607 -1.159675
      ESP Fit Center  524 is at  -5.944351 -3.044376 -1.159675
      ESP Fit Center  525 is at  -5.241582 -2.341607 -1.159675
      ESP Fit Center  526 is at  -5.559143 -2.358958 -2.119675
      ESP Fit Center  527 is at  -8.429363 -0.555870  0.478650
      ESP Fit Center  528 is at  -7.949363  0.275514  0.221419
      ESP Fit Center  529 is at  -8.909363  0.275514  0.221419
      ESP Fit Center  530 is at  -9.389363 -0.555870  0.221419
      ESP Fit Center  531 is at  -8.909363 -1.387254  0.221419
      ESP Fit Center  532 is at  -8.943187  1.025517 -0.481350
      ESP Fit Center  533 is at  -9.774571  0.421481 -0.481350
      ESP Fit Center  534 is at -10.092132 -0.555870 -0.481350
      ESP Fit Center  535 is at  -9.774571 -1.533221 -0.481350
      ESP Fit Center  536 is at  -9.389363  1.106899 -1.441350
      ESP Fit Center  537 is at -10.092132  0.404130 -1.441350
      ESP Fit Center  538 is at -10.349363 -0.555870 -1.441350
      ESP Fit Center  539 is at -10.092132 -1.515870 -1.441350
      ESP Fit Center  540 is at  -9.774571  0.421481 -2.401350
      ESP Fit Center  541 is at -10.092132 -0.555870 -2.401350
      ESP Fit Center  542 is at  -9.206965 -2.745860 -1.627687
      ESP Fit Center  543 is at  -8.375581 -3.349896 -1.627687
      ESP Fit Center  544 is at  -7.347933 -3.349896 -1.627687
      ESP Fit Center  545 is at  -9.781757 -1.768509 -2.587687
      ESP Fit Center  546 is at  -9.524526 -2.728509 -2.587687
      ESP Fit Center  547 is at  -8.821757 -3.431278 -2.587687
      ESP Fit Center  548 is at  -7.861757 -3.688509 -2.587687
      ESP Fit Center  549 is at  -6.901757 -3.431278 -2.587687
      ESP Fit Center  550 is at  -9.524526 -1.768509 -3.547687
      ESP Fit Center  551 is at  -9.206965 -2.745860 -3.547687
      ESP Fit Center  552 is at  -8.375581 -3.349896 -3.547687
      ESP Fit Center  553 is at  -7.347933 -3.349896 -3.547687
      ESP Fit Center  554 is at  -6.516549 -2.745860 -3.547687
      ESP Fit Center  555 is at  -6.901757 -1.768509 -4.250456
      ESP Fit Center  556 is at  -8.821757 -1.768509 -4.250456
      ESP Fit Center  557 is at  -8.341757 -2.599893 -4.250456
      ESP Fit Center  558 is at  -7.381757 -2.599893 -4.250456
      ESP Fit Center  559 is at  -7.861757 -1.768509 -4.507687
      ESP Fit Center  560 is at  -4.605049 -1.286366 -2.236715
      ESP Fit Center  561 is at  -5.950257 -2.229015 -3.196715
      ESP Fit Center  562 is at  -4.990257 -1.971784 -3.196715
      ESP Fit Center  563 is at  -4.287488 -1.269015 -3.196715
      ESP Fit Center  564 is at  -6.464081 -1.890402 -4.156715
      ESP Fit Center  565 is at  -5.436433 -1.890402 -4.156715
      ESP Fit Center  566 is at  -4.605049 -1.286366 -4.156715
      ESP Fit Center  567 is at  -4.990257 -0.309015 -4.859484
      ESP Fit Center  568 is at  -5.470257  0.522369 -4.859484
      ESP Fit Center  569 is at  -6.430257 -1.140399 -4.859484
      ESP Fit Center  570 is at  -5.470257 -1.140399 -4.859484
      ESP Fit Center  571 is at  -5.950257 -0.309015 -5.116715
      ESP Fit Center  572 is at  -8.812913  1.502438 -2.516174
      ESP Fit Center  573 is at  -8.427705  2.187856 -3.476174
      ESP Fit Center  574 is at  -9.130474  1.485087 -3.476174
      ESP Fit Center  575 is at  -9.387705  0.525087 -3.476174
      ESP Fit Center  576 is at  -7.981529  2.106474 -4.436174
      ESP Fit Center  577 is at  -8.812913  1.502438 -4.436174
      ESP Fit Center  578 is at  -9.130474  0.525087 -4.436174
      ESP Fit Center  579 is at  -8.812913 -0.452264 -4.436174
      ESP Fit Center  580 is at  -6.507705  0.525087 -5.138943
      ESP Fit Center  581 is at  -6.987705  1.356471 -5.138943
      ESP Fit Center  582 is at  -7.947705  1.356471 -5.138943
      ESP Fit Center  583 is at  -8.427705  0.525087 -5.138943
      ESP Fit Center  584 is at  -7.947705 -0.306297 -5.138943
      ESP Fit Center  585 is at  -6.987705 -0.306297 -5.138943
      ESP Fit Center  586 is at  -7.467705  0.525087 -5.396174
      ESP Fit Center  587 is at  -6.450851  1.119991  0.434887
      ESP Fit Center  588 is at  -5.478951  1.119991  0.213057
      ESP Fit Center  589 is at  -5.964901  1.961681  0.213057
      ESP Fit Center  590 is at  -6.936801  1.961681  0.213057
      ESP Fit Center  591 is at  -7.422751  1.119991  0.213057
      ESP Fit Center  592 is at  -6.936801  0.278301  0.213057
      ESP Fit Center  593 is at  -5.964901  0.278301  0.213057
      ESP Fit Center  594 is at  -7.867685  2.149381 -0.408496
      ESP Fit Center  595 is at  -8.202154  1.119991 -0.408496
      ESP Fit Center  596 is at  -5.034017  0.090601 -0.408496
      ESP Fit Center  597 is at  -8.085478  2.568144 -1.306666
      ESP Fit Center  598 is at  -8.571231  1.642618 -1.306666
      ESP Fit Center  599 is at  -7.926607  3.249494 -1.821034
      ESP Fit Center  600 is at  -5.297836  4.515444 -2.889134
      ESP Fit Center  601 is at  -6.339156  4.515444 -2.889134
      ESP Fit Center  602 is at  -8.158323  2.234281 -2.889134
      ESP Fit Center  603 is at  -5.950268  3.043890  0.270871
      ESP Fit Center  604 is at  -5.470268  3.875274  0.013640
      ESP Fit Center  605 is at  -6.430268  3.875274  0.013640
      ESP Fit Center  606 is at  -6.910268  3.043890  0.013640
      ESP Fit Center  607 is at  -4.605060  4.021241 -0.689129
      ESP Fit Center  608 is at  -5.436444  4.625277 -0.689129
      ESP Fit Center  609 is at  -6.464092  4.625277 -0.689129
      ESP Fit Center  610 is at  -7.295476  4.021241 -0.689129
      ESP Fit Center  611 is at  -7.613037  3.043890 -0.689129
      ESP Fit Center  612 is at  -4.990268  4.706659 -1.649129
      ESP Fit Center  613 is at  -5.950268  4.963890 -1.649129
      ESP Fit Center  614 is at  -6.910268  4.706659 -1.649129
      ESP Fit Center  615 is at  -7.613037  4.003890 -1.649129
      ESP Fit Center  616 is at  -5.436444  4.625277 -2.609129
      ESP Fit Center  617 is at  -6.464092  4.625277 -2.609129
      ESP Fit Center  618 is at  -6.293640  4.441740 -3.292767
      ESP Fit Center  619 is at  -7.253640  4.184509 -3.292767
      ESP Fit Center  620 is at  -7.956409  3.481740 -3.292767
      ESP Fit Center  621 is at  -8.213640  2.521740 -3.292767
      ESP Fit Center  622 is at  -5.779816  4.103127 -4.252767
      ESP Fit Center  623 is at  -6.807464  4.103127 -4.252767
      ESP Fit Center  624 is at  -7.638848  3.499091 -4.252767
      ESP Fit Center  625 is at  -7.956409  2.521740 -4.252767
      ESP Fit Center  626 is at  -5.333640  2.521740 -4.955536
      ESP Fit Center  627 is at  -5.813640  3.353124 -4.955536
      ESP Fit Center  628 is at  -6.773640  3.353124 -4.955536
      ESP Fit Center  629 is at  -7.253640  2.521740 -4.955536
      ESP Fit Center  630 is at  -6.773640  1.690356 -4.955536
      ESP Fit Center  631 is at  -5.813640  1.690356 -4.955536
      ESP Fit Center  632 is at  -6.293640  2.521740 -5.212767
      ESP Fit Center  633 is at  -2.455759  2.041698 -4.089711
      ESP Fit Center  634 is at  -3.290834  2.041698 -4.755660
      ESP Fit Center  635 is at  -4.332155  2.041698 -4.993335
      ESP Fit Center  636 is at  -3.633715 -0.405863 -2.266192
      ESP Fit Center  637 is at  -3.187539 -0.487245 -3.226192
      ESP Fit Center  638 is at  -2.484770  1.175524 -4.186192
      ESP Fit Center  639 is at  -3.633715 -0.405863 -4.186192
      ESP Fit Center  640 is at  -2.802331  0.198173 -4.186192
      ESP Fit Center  641 is at  -3.187539  1.175524 -4.888961
      ESP Fit Center  642 is at  -5.107539  1.175524 -4.888961
      ESP Fit Center  643 is at  -4.627539  0.344140 -4.888961
      ESP Fit Center  644 is at  -3.667539  0.344140 -4.888961
      ESP Fit Center  645 is at  -4.147539  1.175524 -5.146192
      ESP Fit Center  646 is at  -3.430968  4.497117 -2.158034
      ESP Fit Center  647 is at  -4.458616  4.497117 -2.158034
      ESP Fit Center  648 is at  -2.984792  4.578499 -3.118034
      ESP Fit Center  649 is at  -3.944792  4.835730 -3.118034
      ESP Fit Center  650 is at  -4.904792  4.578499 -3.118034
      ESP Fit Center  651 is at  -2.282023  2.915730 -4.078034
      ESP Fit Center  652 is at  -2.599584  3.893081 -4.078034
      ESP Fit Center  653 is at  -3.430968  4.497117 -4.078034
      ESP Fit Center  654 is at  -4.458616  4.497117 -4.078034
      ESP Fit Center  655 is at  -2.984792  2.915730 -4.780803
      ESP Fit Center  656 is at  -3.464792  3.747114 -4.780803
      ESP Fit Center  657 is at  -4.424792  3.747114 -4.780803
      ESP Fit Center  658 is at  -4.904792  2.915730 -4.780803
      ESP Fit Center  659 is at  -3.944792  2.915730 -5.038034
      ESP Fit Center  660 is at  -4.177210  2.731483  0.652843
      ESP Fit Center  661 is at  -4.663160  1.889793  0.652843
      ESP Fit Center  662 is at  -4.232442  3.555381  0.031290
      ESP Fit Center  663 is at  -5.108094  0.860403  0.031290
      ESP Fit Center  664 is at  -4.232442  0.224205  0.031290
      ESP Fit Center  665 is at  -3.428027  4.057709 -0.866880
      ESP Fit Center  666 is at  -4.465660 -0.152131 -0.866880
      ESP Fit Center  667 is at  -2.839799  3.941005 -0.908546
      ESP Fit Center  668 is at  -0.467268  3.453742 -0.993966
      ESP Fit Center  669 is at  -1.298652  4.057778 -0.993966
      ESP Fit Center  670 is at  -2.326300  4.057778 -0.993966
      ESP Fit Center  671 is at   0.107524  2.476391 -1.953966
      ESP Fit Center  672 is at  -0.149707  3.436391 -1.953966
      ESP Fit Center  673 is at  -0.852476  4.139160 -1.953966
      ESP Fit Center  674 is at  -1.812476  4.396391 -1.953966
      ESP Fit Center  675 is at  -2.772476  4.139160 -1.953966
      ESP Fit Center  676 is at  -0.149707  2.476391 -2.913966
      ESP Fit Center  677 is at  -0.467268  3.453742 -2.913966
      ESP Fit Center  678 is at  -1.298652  4.057778 -2.913966
      ESP Fit Center  679 is at  -2.326300  4.057778 -2.913966
      ESP Fit Center  680 is at  -0.852476  2.476391 -3.616735
      ESP Fit Center  681 is at  -1.332476  3.307775 -3.616735
      ESP Fit Center  682 is at  -1.812476  2.476391 -3.873966
      ESP Fit Center  683 is at  -2.628951 -0.834993 -1.039404
      ESP Fit Center  684 is at  -3.075127 -0.916375 -1.999404
      ESP Fit Center  685 is at  -2.115127 -1.173606 -1.999404
      ESP Fit Center  686 is at  -0.452358  0.746394 -2.959404
      ESP Fit Center  687 is at  -2.628951 -0.834993 -2.959404
      ESP Fit Center  688 is at  -1.601303 -0.834993 -2.959404
      ESP Fit Center  689 is at  -0.769919 -0.230957 -2.959404
      ESP Fit Center  690 is at  -1.155127  0.746394 -3.662173
      ESP Fit Center  691 is at  -2.595127 -0.084990 -3.662173
      ESP Fit Center  692 is at  -1.635127 -0.084990 -3.662173
      ESP Fit Center  693 is at  -2.115127  0.746394 -3.919404
      ESP Fit Center  694 is at  -1.796937  1.551765  2.380504
      ESP Fit Center  695 is at  -1.276277  0.649955  2.142829
      ESP Fit Center  696 is at  -3.597325  2.080407  1.476880
      ESP Fit Center  697 is at  -2.326667  0.763244  2.427038
      ESP Fit Center  698 is at  -2.806667  1.594628  2.169807
      ESP Fit Center  699 is at  -3.286667  0.763244  2.169807
      ESP Fit Center  700 is at  -2.806667 -0.068140  2.169807
      ESP Fit Center  701 is at  -1.846667 -0.068140  2.169807
      ESP Fit Center  702 is at  -3.671875  1.740595  1.467038
      ESP Fit Center  703 is at  -3.989436  0.763244  1.467038
      ESP Fit Center  704 is at  -3.671875 -0.214107  1.467038
      ESP Fit Center  705 is at  -2.840491 -0.818143  1.467038
      ESP Fit Center  706 is at  -4.246667  0.763244  0.507038
      ESP Fit Center  707 is at  -3.989436 -0.196756  0.507038
      ESP Fit Center  708 is at  -3.286667 -0.899525  0.507038
      ESP Fit Center  709 is at  -2.326667 -1.156756  0.507038
      ESP Fit Center  710 is at  -3.671875 -0.214107 -0.452962
      ESP Fit Center  711 is at  -2.840491 -0.818143 -0.452962
      ESP Fit Center  712 is at  -1.986154  2.482124  2.419231
      ESP Fit Center  713 is at  -1.026154  2.482124  2.162000
      ESP Fit Center  714 is at  -1.506154  3.313508  2.162000
      ESP Fit Center  715 is at  -2.466154  3.313508  2.162000
      ESP Fit Center  716 is at  -2.946154  2.482124  2.162000
      ESP Fit Center  717 is at  -0.640946  3.459475  1.459231
      ESP Fit Center  718 is at  -1.472330  4.063511  1.459231
      ESP Fit Center  719 is at  -2.499978  4.063511  1.459231
      ESP Fit Center  720 is at  -3.331362  3.459475  1.459231
      ESP Fit Center  721 is at  -3.648923  2.482124  1.459231
      ESP Fit Center  722 is at  -1.026154  4.144893  0.499231
      ESP Fit Center  723 is at  -1.986154  4.402124  0.499231
      ESP Fit Center  724 is at  -2.946154  4.144893  0.499231
      ESP Fit Center  725 is at  -3.648923  3.442124  0.499231
      ESP Fit Center  726 is at  -1.472330  4.063511 -0.460769
      ESP Fit Center  727 is at  -2.499978  4.063511 -0.460769
      ESP Fit Center  728 is at  -0.413028  1.335585  2.240000
      ESP Fit Center  729 is at   0.558872  1.335585  2.018170
      ESP Fit Center  730 is at   0.072922  2.177275  2.018170
      ESP Fit Center  731 is at   1.003806  2.364975  1.396617
      ESP Fit Center  732 is at   0.128154  3.001173  1.396617
      ESP Fit Center  733 is at   0.827534  3.132849  0.498447
      ESP Fit Center  734 is at  -0.149795  3.503501  0.498447
      ESP Fit Center  735 is at   1.520665  2.350465 -0.498447
      ESP Fit Center  736 is at   0.827534  3.132849 -0.498447
      ESP Fit Center  737 is at  -0.149795  3.503501 -0.498447
      ESP Fit Center  738 is at   1.003806  2.364975 -1.396617
      ESP Fit Center  739 is at   0.128154  3.001173 -1.396617
      ESP Fit Center  740 is at   0.558872  1.335585 -2.018170
      ESP Fit Center  741 is at   0.520660  0.901810  2.162325
      ESP Fit Center  742 is at  -2.030056 -1.490780 -0.873734
      ESP Fit Center  743 is at  -1.327287 -2.193549 -0.873734
      ESP Fit Center  744 is at  -0.367287 -2.450780 -0.873734
      ESP Fit Center  745 is at  -1.712495 -1.508131 -1.833734
      ESP Fit Center  746 is at  -0.881111 -2.112167 -1.833734
      ESP Fit Center  747 is at   0.146537 -2.112167 -1.833734
      ESP Fit Center  748 is at   0.592713 -0.530780 -2.536503
      ESP Fit Center  749 is at   0.112713  0.300604 -2.536503
      ESP Fit Center  750 is at  -0.847287 -1.362164 -2.536503
      ESP Fit Center  751 is at   0.112713 -1.362164 -2.536503
      ESP Fit Center  752 is at  -0.367287 -0.530780 -2.793734
      ESP Fit Center  753 is at  -0.386315 -0.510377  2.799288
      ESP Fit Center  754 is at   0.093685  0.321007  2.542057
      ESP Fit Center  755 is at  -0.866315  0.321007  2.542057
      ESP Fit Center  756 is at  -1.346315 -0.510377  2.542057
      ESP Fit Center  757 is at  -0.866315 -1.341761  2.542057
      ESP Fit Center  758 is at  -1.731523 -1.487728  1.839288
      ESP Fit Center  759 is at  -0.900139 -2.091764  1.839288
      ESP Fit Center  760 is at  -2.049084 -1.470377  0.879288
      ESP Fit Center  761 is at  -1.346315 -2.173146  0.879288
      ESP Fit Center  762 is at  -0.386315 -2.430377  0.879288
      ESP Fit Center  763 is at   2.368488  1.411750  2.498381
      ESP Fit Center  764 is at   1.408488  1.411750  2.498381
      ESP Fit Center  765 is at   0.928488  0.580366  2.498381
      ESP Fit Center  766 is at   3.233696  1.557717  1.795612
      ESP Fit Center  767 is at   2.402312  2.161753  1.795612
      ESP Fit Center  768 is at   1.374664  2.161753  1.795612
      ESP Fit Center  769 is at   3.808488  0.580366  0.835612
      ESP Fit Center  770 is at   3.551257  1.540366  0.835612
      ESP Fit Center  771 is at   2.848488  2.243135  0.835612
      ESP Fit Center  772 is at   1.888488  2.500366  0.835612
      ESP Fit Center  773 is at   3.799217  0.477236 -0.902617
      ESP Fit Center  774 is at   3.541986  1.437236 -0.902617
      ESP Fit Center  775 is at   2.839217  2.140005 -0.902617
      ESP Fit Center  776 is at   1.879217  2.397236 -0.902617
      ESP Fit Center  777 is at   3.541986  0.477236 -1.862617
      ESP Fit Center  778 is at   3.224425  1.454587 -1.862617
      ESP Fit Center  779 is at   2.393041  2.058623 -1.862617
      ESP Fit Center  780 is at   1.365393  2.058623 -1.862617
      ESP Fit Center  781 is at   2.839217  0.477236 -2.565386
      ESP Fit Center  782 is at   2.359217  1.308620 -2.565386
      ESP Fit Center  783 is at   1.399217  1.308620 -2.565386
      ESP Fit Center  784 is at   0.919217  0.477236 -2.565386
      ESP Fit Center  785 is at   1.399217 -0.354148 -2.565386
      ESP Fit Center  786 is at   2.359217 -0.354148 -2.565386
      ESP Fit Center  787 is at   1.879217  0.477236 -2.822617
      ESP Fit Center  788 is at   0.149744 -3.187761  1.087577
      ESP Fit Center  789 is at   5.042560 -1.667241  0.016063
      ESP Fit Center  790 is at   4.853482 -0.655764  0.016063
      ESP Fit Center  791 is at   4.311785  0.219107  0.016063
      ESP Fit Center  792 is at  -0.138048 -3.141251  0.016063
      ESP Fit Center  793 is at   0.555183 -3.901689  0.016063
      ESP Fit Center  794 is at   1.476304 -4.360353  0.016063
      ESP Fit Center  795 is at   2.500911 -4.455297  0.016063
      ESP Fit Center  796 is at   3.490627 -4.173698  0.016063
      ESP Fit Center  797 is at   4.311785 -3.553589  0.016063
      ESP Fit Center  798 is at   4.853482 -2.678718  0.016063
      ESP Fit Center  799 is at   4.829423 -1.667241 -1.055451
      ESP Fit Center  800 is at   4.605777 -0.615069 -1.055451
      ESP Fit Center  801 is at   3.973509  0.255173 -1.055451
      ESP Fit Center  802 is at   0.149744 -3.187761 -1.055451
      ESP Fit Center  803 is at   0.949129 -3.907530 -1.055451
      ESP Fit Center  804 is at   1.972159 -4.239933 -1.055451
      ESP Fit Center  805 is at   3.041945 -4.127494 -1.055451
      ESP Fit Center  806 is at   3.973509 -3.589655 -1.055451
      ESP Fit Center  807 is at   4.605777 -2.719413 -1.055451
      ESP Fit Center  808 is at   4.222459 -1.667241 -1.963836
      ESP Fit Center  809 is at   3.957203 -0.677292 -1.963836
      ESP Fit Center  810 is at   0.527917 -2.657190 -1.963836
      ESP Fit Center  811 is at   1.252611 -3.381884 -1.963836
      ESP Fit Center  812 is at   2.242560 -3.647140 -1.963836
      ESP Fit Center  813 is at   3.232509 -3.381884 -1.963836
      ESP Fit Center  814 is at   3.957203 -2.657190 -1.963836
      ESP Fit Center  815 is at   3.314074 -1.667241 -2.570800
      ESP Fit Center  816 is at   2.778317 -0.739283 -2.570800
      ESP Fit Center  817 is at   1.706803 -0.739283 -2.570800
      ESP Fit Center  818 is at   1.171046 -1.667241 -2.570800
      ESP Fit Center  819 is at   1.706803 -2.595199 -2.570800
      ESP Fit Center  820 is at   2.778317 -2.595199 -2.570800
      ESP Fit Center  821 is at   2.242560 -1.667241 -2.783937
      ESP Fit Center  822 is at   0.954760 -3.524478  3.279428
      ESP Fit Center  823 is at   0.075427 -3.121606  1.249002
      ESP Fit Center  824 is at   0.259999 -1.843062  3.860894
      ESP Fit Center  825 is at   0.706175 -0.261675  3.158125
      ESP Fit Center  826 is at  -0.125209 -0.865711  3.158125
      ESP Fit Center  827 is at  -0.442770 -1.843062  3.158125
      ESP Fit Center  828 is at  -0.125209 -2.820413  3.158125
      ESP Fit Center  829 is at   0.706175 -3.424449  3.158125
      ESP Fit Center  830 is at  -0.442770 -2.803062  2.198125
      ESP Fit Center  831 is at   0.259999 -3.505831  2.198125
      ESP Fit Center  832 is at  -0.125209 -2.820413  1.238125
      ESP Fit Center  833 is at   0.910410 -4.163346  2.765177
      ESP Fit Center  834 is at   0.592849 -4.145995  1.805177
      ESP Fit Center  835 is at   1.295618 -4.848764  1.805177
      ESP Fit Center  836 is at   2.255618 -5.105995  1.805177
      ESP Fit Center  837 is at   3.215618 -4.848764  1.805177
      ESP Fit Center  838 is at   3.918387 -4.145995  1.805177
      ESP Fit Center  839 is at   0.910410 -4.163346  0.845177
      ESP Fit Center  840 is at   1.741794 -4.767382  0.845177
      ESP Fit Center  841 is at   2.769442 -4.767382  0.845177
      ESP Fit Center  842 is at   3.600826 -4.163346  0.845177
      ESP Fit Center  843 is at   5.417720 -0.461714  3.134563
      ESP Fit Center  844 is at   4.592122  0.580382  3.524199
      ESP Fit Center  845 is at   3.760738  1.184418  3.524199
      ESP Fit Center  846 is at   2.733090  1.184418  3.524199
      ESP Fit Center  847 is at   1.901706  0.580382  3.524199
      ESP Fit Center  848 is at   4.909683  0.563031  2.564199
      ESP Fit Center  849 is at   4.206914  1.265800  2.564199
      ESP Fit Center  850 is at   3.246914  1.523031  2.564199
      ESP Fit Center  851 is at   4.592122  0.580382  1.604199
      ESP Fit Center  852 is at   3.760738  1.184418  1.604199
      ESP Fit Center  853 is at   5.936893 -1.754446  3.154592
      ESP Fit Center  854 is at   5.619332 -0.777095  3.154592
      ESP Fit Center  855 is at   6.194124 -1.754446  2.194592
      ESP Fit Center  856 is at   5.936893 -0.794446  2.194592
      ESP Fit Center  857 is at   5.234124 -0.091677  2.194592
      ESP Fit Center  858 is at   5.936893 -2.714446  2.194592
      ESP Fit Center  859 is at   5.936893 -1.754446  1.234592
      ESP Fit Center  860 is at   5.619332 -0.777095  1.234592
      ESP Fit Center  861 is at   4.787948 -3.335833  1.234592
      ESP Fit Center  862 is at   5.619332 -2.731797  1.234592
      ESP Fit Center  863 is at   5.234124 -1.754446  0.531823
      ESP Fit Center  864 is at   3.257451 -1.891622  7.170824
      ESP Fit Center  865 is at   3.793208 -0.963664  6.957687
      ESP Fit Center  866 is at   2.721694 -0.963664  6.957687
      ESP Fit Center  867 is at   2.185937 -1.891622  6.957687
      ESP Fit Center  868 is at   4.972094 -0.901673  6.350723
      ESP Fit Center  869 is at   4.247400 -0.176979  6.350723
      ESP Fit Center  870 is at   3.257451  0.088277  6.350723
      ESP Fit Center  871 is at   2.267502 -0.176979  6.350723
      ESP Fit Center  872 is at   1.542808 -0.901673  6.350723
      ESP Fit Center  873 is at   1.277552 -1.891622  6.350723
      ESP Fit Center  874 is at   1.542808 -2.881571  6.350723
      ESP Fit Center  875 is at   5.844314 -1.891622  5.442338
      ESP Fit Center  876 is at   5.620668 -0.839450  5.442338
      ESP Fit Center  877 is at   4.988400  0.030792  5.442338
      ESP Fit Center  878 is at   4.056836  0.568631  5.442338
      ESP Fit Center  879 is at   2.987050  0.681070  5.442338
      ESP Fit Center  880 is at   1.964020  0.348667  5.442338
      ESP Fit Center  881 is at   1.164635 -0.371102  5.442338
      ESP Fit Center  882 is at   0.727117 -1.353783  5.442338
      ESP Fit Center  883 is at   0.727117 -2.429461  5.442338
      ESP Fit Center  884 is at   1.164635 -3.412142  5.442338
      ESP Fit Center  885 is at   6.057451 -1.891622  4.370824
      ESP Fit Center  886 is at   5.868373 -0.880145  4.370824
      ESP Fit Center  887 is at   5.326676 -0.005274  4.370824
      ESP Fit Center  888 is at   4.505518  0.614835  4.370824
      ESP Fit Center  889 is at   3.515802  0.896434  4.370824
      ESP Fit Center  890 is at   2.491195  0.801490  4.370824
      ESP Fit Center  891 is at   1.570074  0.342826  4.370824
      ESP Fit Center  892 is at   0.876843 -0.417612  4.370824
      ESP Fit Center  893 is at   0.505126 -1.377123  4.370824
      ESP Fit Center  894 is at   0.505126 -2.406121  4.370824
      ESP Fit Center  895 is at   0.876843 -3.365632  4.370824
      ESP Fit Center  896 is at   5.844314 -1.891622  3.299310
      ESP Fit Center  897 is at   5.620668 -0.839450  3.299310
      ESP Fit Center  898 is at   4.637042 -5.319667  2.864039
      ESP Fit Center  899 is at   6.153691 -2.667092  4.803375
      ESP Fit Center  900 is at   6.471252 -2.684443  3.843375
      ESP Fit Center  901 is at   6.471252 -3.644443  2.883375
      ESP Fit Center  902 is at   6.153691 -2.667092  2.883375
      ESP Fit Center  903 is at   5.322307 -5.225830  2.883375
      ESP Fit Center  904 is at   5.768483 -3.644443  2.180606
      ESP Fit Center  905 is at   5.288483 -4.475827  2.180606
      ESP Fit Center  906 is at   4.808483 -3.644443  1.923375
      ESP Fit Center  907 is at   1.500377 -4.250942  4.791665
      ESP Fit Center  908 is at   1.817938 -5.228293  4.791665
      ESP Fit Center  909 is at   1.243146 -4.250942  3.831665
      ESP Fit Center  910 is at   1.500377 -5.210942  3.831665
      ESP Fit Center  911 is at   2.203146 -5.913711  3.831665
      ESP Fit Center  912 is at   1.817938 -5.228293  2.871665
      ESP Fit Center  913 is at   2.649322 -5.832329  2.871665
      ESP Fit Center  914 is at   3.676970 -5.832329  2.871665
      ESP Fit Center  915 is at   2.683146 -5.082326  2.168896
      ESP Fit Center  916 is at   3.643146 -5.082326  2.168896
      ESP Fit Center  917 is at   4.006843 -4.103548  8.198615
      ESP Fit Center  918 is at   3.486183 -3.201738  7.960940
      ESP Fit Center  919 is at   4.669212 -3.457081  8.279050
      ESP Fit Center  920 is at   5.149212 -2.625697  8.021819
      ESP Fit Center  921 is at   4.189212 -2.625697  8.021819
      ESP Fit Center  922 is at   5.183036 -1.875694  7.319050
      ESP Fit Center  923 is at   4.155388 -1.875694  7.319050
      ESP Fit Center  924 is at   5.629212 -1.794312  6.359050
      ESP Fit Center  925 is at   6.014420 -2.479730  5.399050
      ESP Fit Center  926 is at   3.045582 -4.083052  8.216891
      ESP Fit Center  927 is at   2.565582 -3.251668  7.959660
      ESP Fit Center  928 is at   2.085582 -4.083052  7.959660
      ESP Fit Center  929 is at   2.565582 -4.914436  7.959660
      ESP Fit Center  930 is at   2.531758 -2.501665  7.256891
      ESP Fit Center  931 is at   1.700374 -3.105701  7.256891
      ESP Fit Center  932 is at   1.382813 -4.083052  7.256891
      ESP Fit Center  933 is at   1.700374 -5.060403  7.256891
      ESP Fit Center  934 is at   1.382813 -3.123052  6.296891
      ESP Fit Center  935 is at   1.125582 -4.083052  6.296891
      ESP Fit Center  936 is at   1.382813 -5.043052  6.296891
      ESP Fit Center  937 is at   1.382813 -4.083052  5.336891
      ESP Fit Center  938 is at   1.700374 -5.060403  5.336891
      ESP Fit Center  939 is at   4.571784 -5.826847  8.723721
      ESP Fit Center  940 is at   5.107541 -4.898889  8.510584
      ESP Fit Center  941 is at   4.036027 -4.898889  8.510584
      ESP Fit Center  942 is at   3.500270 -5.826847  8.510584
      ESP Fit Center  943 is at   4.036027 -6.754805  8.510584
      ESP Fit Center  944 is at   5.107541 -6.754805  8.510584
      ESP Fit Center  945 is at   2.591885 -5.826847  7.903620
      ESP Fit Center  946 is at   2.857141 -6.816796  7.903620
      ESP Fit Center  947 is at   3.581835 -7.541490  7.903620
      ESP Fit Center  948 is at   4.571784 -7.806746  7.903620
      ESP Fit Center  949 is at   5.561733 -7.541490  7.903620
      ESP Fit Center  950 is at   2.041450 -6.364686  6.995235
      ESP Fit Center  951 is at   2.478968 -7.347367  6.995235
      ESP Fit Center  952 is at   3.278353 -8.067136  6.995235
      ESP Fit Center  953 is at   4.301383 -8.399539  6.995235
      ESP Fit Center  954 is at   5.371169 -8.287100  6.995235
      ESP Fit Center  955 is at   6.302733 -7.749261  6.995235
      ESP Fit Center  956 is at   1.819459 -6.341346  5.923721
      ESP Fit Center  957 is at   2.191176 -7.300857  5.923721
      ESP Fit Center  958 is at   2.884407 -8.061295  5.923721
      ESP Fit Center  959 is at   3.805528 -8.519959  5.923721
      ESP Fit Center  960 is at   4.830135 -8.614903  5.923721
      ESP Fit Center  961 is at   2.041450 -6.364686  4.852207
      ESP Fit Center  962 is at   2.478968 -7.347367  4.852207
      ESP Fit Center  963 is at   3.278353 -8.067136  4.852207
      ESP Fit Center  964 is at   4.301383 -8.399539  4.852207
      ESP Fit Center  965 is at   5.371169 -8.287100  4.852207
      ESP Fit Center  966 is at   2.857141 -6.816796  3.943822
      ESP Fit Center  967 is at   3.581835 -7.541490  3.943822
      ESP Fit Center  968 is at   4.571784 -7.806746  3.943822
      ESP Fit Center  969 is at   5.561733 -7.541490  3.943822
      ESP Fit Center  970 is at   4.036027 -6.754805  3.336858
      ESP Fit Center  971 is at   5.107541 -6.754805  3.336858
      ESP Fit Center  972 is at   4.571784 -5.826847  3.123721
      ESP Fit Center  973 is at   5.835929 -6.596684  3.426357
      ESP Fit Center  974 is at   6.877249 -6.596684  3.426357
      ESP Fit Center  975 is at   7.150847 -7.547250  7.070153
      ESP Fit Center  976 is at   6.157023 -8.297253  6.367384
      ESP Fit Center  977 is at   7.184671 -8.297253  6.367384
      ESP Fit Center  978 is at   8.016055 -7.693217  6.367384
      ESP Fit Center  979 is at   8.590847 -6.715866  5.407384
      ESP Fit Center  980 is at   5.710847 -8.378635  5.407384
      ESP Fit Center  981 is at   6.670847 -8.635866  5.407384
      ESP Fit Center  982 is at   7.630847 -8.378635  5.407384
      ESP Fit Center  983 is at   8.333616 -7.675866  5.407384
      ESP Fit Center  984 is at   8.333616 -6.715866  4.447384
      ESP Fit Center  985 is at   6.157023 -8.297253  4.447384
      ESP Fit Center  986 is at   7.184671 -8.297253  4.447384
      ESP Fit Center  987 is at   8.016055 -7.693217  4.447384
      ESP Fit Center  988 is at   7.630847 -6.715866  3.744615
      ESP Fit Center  989 is at   6.190847 -7.547250  3.744615
      ESP Fit Center  990 is at   7.150847 -7.547250  3.744615
      ESP Fit Center  991 is at   8.174815 -4.192789  4.663800
      ESP Fit Center  992 is at   7.472046 -3.490020  4.663800
      ESP Fit Center  993 is at   6.512046 -3.232789  4.663800
      ESP Fit Center  994 is at   8.174815 -5.152789  3.703800
      ESP Fit Center  995 is at   7.857254 -4.175438  3.703800
      ESP Fit Center  996 is at   7.025870 -3.571402  3.703800
      ESP Fit Center  997 is at   7.857254 -6.130140  3.703800
      ESP Fit Center  998 is at   7.472046 -5.152789  3.001031
      ESP Fit Center  999 is at   6.992046 -4.321405  3.001031
      ESP Fit Center 1000 is at   6.032046 -5.984173  3.001031
      ESP Fit Center 1001 is at   6.992046 -5.984173  3.001031
      ESP Fit Center 1002 is at   6.512046 -5.152789  2.743800
      ESP Fit Center 1003 is at   7.700033 -4.186185  8.883597
      ESP Fit Center 1004 is at   6.658713 -4.186185  8.883597
      ESP Fit Center 1005 is at   9.055769 -5.087995  8.217648
      ESP Fit Center 1006 is at   8.757897 -4.073539  8.217648
      ESP Fit Center 1007 is at   8.638231 -3.258645  7.255322
      ESP Fit Center 1008 is at   8.638231 -6.917345  7.255322
      ESP Fit Center 1009 is at   7.958856 -3.381166  5.224896
      ESP Fit Center 1010 is at   7.374610 -3.229808  8.584655
      ESP Fit Center 1011 is at   6.414610 -3.229808  8.584655
      ESP Fit Center 1012 is at   5.934610 -4.061192  8.584655
      ESP Fit Center 1013 is at   8.239818 -3.083841  7.881886
      ESP Fit Center 1014 is at   7.408434 -2.479805  7.881886
      ESP Fit Center 1015 is at   6.380786 -2.479805  7.881886
      ESP Fit Center 1016 is at   8.557379 -3.101192  6.921886
      ESP Fit Center 1017 is at   7.854610 -2.398423  6.921886
      ESP Fit Center 1018 is at   6.894610 -2.141192  6.921886
      ESP Fit Center 1019 is at   7.408434 -2.479805  5.961886
      ESP Fit Center 1020 is at   6.380786 -2.479805  5.961886
      ESP Fit Center 1021 is at   6.414610 -3.229808  5.259117
      ESP Fit Center 1022 is at   7.055536 -5.655650  9.555975
      ESP Fit Center 1023 is at   8.015536 -5.655650  9.298744
      ESP Fit Center 1024 is at   7.535536 -4.824266  9.298744
      ESP Fit Center 1025 is at   6.575536 -4.824266  9.298744
      ESP Fit Center 1026 is at   6.095536 -5.655650  9.298744
      ESP Fit Center 1027 is at   6.575536 -6.487034  9.298744
      ESP Fit Center 1028 is at   7.535536 -6.487034  9.298744
      ESP Fit Center 1029 is at   8.718305 -5.655650  8.595975
      ESP Fit Center 1030 is at   5.710328 -4.678299  8.595975
      ESP Fit Center 1031 is at   5.392767 -5.655650  8.595975
      ESP Fit Center 1032 is at   5.710328 -6.633001  8.595975
      ESP Fit Center 1033 is at   6.541712 -7.237037  8.595975
      ESP Fit Center 1034 is at   7.569360 -7.237037  8.595975
      ESP Fit Center 1035 is at   8.400744 -6.633001  8.595975
      ESP Fit Center 1036 is at   7.055536 -7.575650  7.635975
      ESP Fit Center 1037 is at   8.015536 -7.318419  7.635975
      ESP Fit Center 1038 is at   9.192962 -5.090631  8.119109
      ESP Fit Center 1039 is at   9.895731 -5.090631  7.416340
      ESP Fit Center 1040 is at   9.578170 -4.113280  7.416340
      ESP Fit Center 1041 is at   9.578170 -6.067982  7.416340
      ESP Fit Center 1042 is at  10.152962 -5.090631  6.456340
      ESP Fit Center 1043 is at   9.895731 -4.130631  6.456340
      ESP Fit Center 1044 is at   9.192962 -3.427862  6.456340
      ESP Fit Center 1045 is at   9.192962 -6.753400  6.456340
      ESP Fit Center 1046 is at   9.895731 -6.050631  6.456340
      ESP Fit Center 1047 is at   9.895731 -5.090631  5.496340
      ESP Fit Center 1048 is at   9.578170 -4.113280  5.496340
[...]
 1390 Fit       0.005684
 1391 Fit       0.015100
 1392 Fit       0.006013
 1393 Fit       0.002755
 1394 Fit       0.010293
 1395 Fit       0.008760
 1396 Fit      -0.003590
 1397 Fit      -0.009212
 1398 Fit      -0.010609
 1399 Fit      -0.006800
 1400 Fit      -0.009323
 1401 Fit      -0.013633
 1402 Fit      -0.013642
 1403 Fit      -0.013399
 1404 Fit      -0.013541
 1405 Fit      -0.011111
 1406 Fit      -0.009915
 1407 Fit      -0.014506
 1408 Fit      -0.013978
 1409 Fit      -0.011867
 1410 Fit      -0.011194
 1411 Fit      -0.012664
 1412 Fit      -0.014582
 1413 Fit      -0.014154
 1414 Fit      -0.008743
 1415 Fit       0.001532
 1416 Fit      -0.008373
 1417 Fit      -0.012109
 1418 Fit      -0.010674
 1419 Fit      -0.007002
 1420 Fit      -0.004646
 1421 Fit      -0.005352
 1422 Fit      -0.008179
 1423 Fit      -0.011108
 1424 Fit      -0.012266
 1425 Fit      -0.009696
 1426 Fit      -0.002167
 1427 Fit       0.005621
 1428 Fit      -0.002968
 1429 Fit      -0.005568
 1430 Fit      -0.002474
 1431 Fit       0.004553
 1432 Fit       0.001612
 1433 Fit       0.001935
 1434 Fit       0.006332
 1435 Fit       0.013157
 1436 Fit       0.011451
 1437 Fit       0.013012
 1438 Fit       0.016829
 1439 Fit       0.015113
 1440 Fit       0.015146
 1441 Fit       0.012236
 1442 Fit       0.005171
 1443 Fit       0.005836
 1444 Fit       0.003306
 1445 Fit       0.007113
 1446 Fit       0.001100
 1447 Fit      -0.001528
 1448 Fit       0.009948
 1449 Fit       0.001355
 1450 Fit       0.001637
 1451 Fit       0.005328
 1452 Fit       0.002099
 1453 Fit       0.003659
 1454 Fit      -0.001904
 1455 Fit       0.001337
 1456 Fit       0.008925
 1457 Fit      -0.000784
 1458 Fit       0.001369
 1459 Fit       0.001849
 1460 Fit      -0.003079
 1461 Fit      -0.001310
 1462 Fit       0.001933
 1463 Fit       0.002923
 1464 Fit      -0.000480
 1465 Fit       0.003281
 1466 Fit       0.002059
 1467 Fit       0.004409
 1468 Fit      -0.015347
 1469 Fit      -0.009125
 1470 Fit      -0.010564
 1471 Fit      -0.014991
 1472 Fit      -0.018220
 1473 Fit      -0.014413
 1474 Fit      -0.003938
 1475 Fit      -0.010077
 1476 Fit      -0.015829
 1477 Fit      -0.018047
 1478 Fit      -0.015617
 1479 Fit      -0.009526
 1480 Fit      -0.004079
 1481 Fit      -0.011551
 1482 Fit      -0.015933
 1483 Fit      -0.016185
 1484 Fit      -0.012347
 1485 Fit      -0.005754
 1486 Fit       0.001866
 1487 Fit      -0.000801
 1488 Fit      -0.009029
 1489 Fit      -0.014357
 1490 Fit      -0.015651
 1491 Fit      -0.012573
 1492 Fit      -0.005944
 1493 Fit      -0.000680
 1494 Fit      -0.009149
 1495 Fit      -0.014725
 1496 Fit      -0.015885
 1497 Fit      -0.012304
 1498 Fit      -0.004746
 1499 Fit      -0.010475
 1500 Fit      -0.015874
 1501 Fit      -0.015622
 1502 Fit      -0.010150
 1503 Fit      -0.000745
 1504 Fit      -0.011319
 1505 Fit      -0.014921
 1506 Fit      -0.011033
 1507 Fit      -0.002764
 1508 Fit      -0.009676
 1509 Fit      -0.004595
 1510 Fit      -0.000285
 1511 Fit       0.001753
 1512 Fit       0.004301
 1513 Fit       0.007606
 1514 Fit       0.008922
 1515 Fit       0.002808
 1516 Fit       0.007074
 1517 Fit       0.009119
 1518 Fit       0.010064
 1519 Fit       0.010455
 1520 Fit       0.004898
 1521 Fit       0.008206
 1522 Fit       0.009500
 1523 Fit       0.002346
 1524 Fit       0.007130
 1525 Fit       0.012599
 1526 Fit       0.015101
 1527 Fit       0.011415
 1528 Fit       0.012880
 1529 Fit       0.015545
 1530 Fit       0.011648
 1531 Fit       0.015393
 1532 Fit       0.005833
 1533 Fit       0.008772
 1534 Fit       0.012260
 1535 Fit       0.001814
 1536 Fit       0.000543
 1537 Fit       0.002943
 1538 Fit       0.002675
 1539 Fit       0.003908
 1540 Fit       0.004575
 1541 Fit       0.008329
 1542 Fit       0.011097
 1543 Fit       0.003409
 1544 Fit       0.003623
 1545 Fit       0.003900
 1546 Fit       0.005099
 1547 Fit       0.006230
 1548 Fit       0.005585
 1549 Fit       0.006388
 1550 Fit       0.007268
 1551 Fit       0.007933
 1552 Fit       0.001530
 1553 Fit       0.002944
 1554 Fit       0.001855
 1555 Fit      -0.000205
 1556 Fit      -0.003044
 1557 Fit      -0.000193
 1558 Fit       0.002955
 1559 Fit       0.003128
 1560 Fit      -0.006800
 1561 Fit       0.000911
 1562 Fit       0.003643
 1563 Fit       0.003747
 1564 Fit       0.004638
 1565 Fit       0.005164
 1566 Fit       0.005770
 1567 Fit       0.005126
 1568 Fit       0.005451
 1569 Fit       0.007887
 1570 Fit       0.007197
 1571 Fit       0.005978
 1572 Fit       0.007643
 1573 Fit       0.007835
 1574 Fit       0.009316
 1575 Fit       0.008605
 1576 Fit       0.007837
 1577 Fit       0.010681
 1578 Fit       0.009571
 1579 Fit       0.010655
 1580 Fit       0.010953
 1581 Fit      -0.019992
 1582 Fit      -0.014102
 1583 Fit      -0.005719
 1584 Fit      -0.003616
 1585 Fit      -0.002044
 1586 Fit      -0.001898
 1587 Fit      -0.001406
 1588 Fit      -0.000641
 1589 Fit      -0.000230
 1590 Fit       0.000095
 1591 Fit       0.000162
 1592 Fit       0.000647
 1593 Fit       0.002194
 1594 Fit       0.002932
 1595 Fit       0.002640
 1596 Fit       0.005476
 1597 Fit      -0.008073
 1598 Fit      -0.008101
 1599 Fit      -0.016434
 1600 Fit      -0.004296
 1601 Fit      -0.003715
 1602 Fit      -0.007713
 1603 Fit      -0.022481
 1604 Fit      -0.001673
 1605 Fit      -0.001033
 1606 Fit      -0.002144
 1607 Fit      -0.006238
 1608 Fit      -0.000023
 1609 Fit       0.000339
 1610 Fit      -0.000690
 1611 Fit       0.001428
 1612 Fit       0.001471
 1613 Fit      -0.009643
 1614 Fit      -0.010105
 1615 Fit      -0.005282
 1616 Fit      -0.005265
 1617 Fit      -0.017217
 1618 Fit      -0.007088
 1619 Fit      -0.003073
 1620 Fit      -0.002115
 1621 Fit      -0.002696
 1622 Fit      -0.005486
 1623 Fit      -0.001738
 1624 Fit      -0.000566
 1625 Fit      -0.000726
 1626 Fit      -0.002621
 1627 Fit      -0.000159
 1628 Fit       0.000433
 1629 Fit       0.000159
 1630 Fit       0.001640
 1631 Fit       0.000606
 1632 Fit       0.001342
 1633 Fit       0.001630
 1634 Fit       0.001480
 1635 Fit       0.001983
 1636 Fit       0.002744
 1637 Fit       0.003453
 1638 Fit       0.003773
 1639 Fit       0.003745
 1640 Fit       0.003808
 1641 Fit       0.004604
 1642 Fit       0.004571
 1643 Fit       0.005130
 1644 Fit       0.005516
 1645 Fit       0.005831
 1646 Fit       0.007099
 1647 Fit       0.006740
 1648 Fit       0.006741
 1649 Fit       0.007589
 1650 Fit       0.008676
 1651 Fit      -0.008928
 1652 Fit      -0.004918
 1653 Fit       0.008919
 1654 Fit       0.009333
 1655 Fit       0.009418
 1656 Fit      -0.001422
 1657 Fit       0.004751
 1658 Fit       0.006137
 1659 Fit       0.006769
 1660 Fit       0.007530
 1661 Fit       0.009862
 1662 Fit       0.008824
 1663 Fit       0.008727
 1664 Fit       0.010374
 1665 Fit       0.012096
 1666 Fit       0.013654
 1667 Fit       0.009955
 1668 Fit       0.010768
 1669 Fit      -0.000710
 1670 Fit       0.000237
 1671 Fit       0.004938
 1672 Fit       0.004152
 1673 Fit       0.004391
 1674 Fit       0.007526
 1675 Fit       0.006552
 1676 Fit       0.006702
 1677 Fit       0.007862
 1678 Fit       0.011306
 1679 Fit       0.009139
 1680 Fit       0.008079
 1681 Fit       0.008647
 1682 Fit       0.009411
 1683 Fit      -0.028021
 1684 Fit      -0.032766
 1685 Fit      -0.028050
 1686 Fit      -0.024577
 1687 Fit      -0.024945
 1688 Fit      -0.026767
 1689 Fit      -0.020936
 1690 Fit      -0.015292
 1691 Fit      -0.009198
 1692 Fit      -0.002774
 1693 Fit      -0.008475
 1694 Fit       0.008165
 1695 Fit       0.006391
 1696 Fit       0.004183
 1697 Fit       0.001776
 1698 Fit      -0.000643
 1699 Fit      -0.017028
 1700 Fit      -0.010239
 1701 Fit      -0.007982
 1702 Fit      -0.015318
 1703 Fit      -0.003908
 1704 Fit      -0.001751
 1705 Fit      -0.003430
 1706 Fit      -0.009188
 1707 Fit      -0.000852
 1708 Fit       0.001917
 1709 Fit       0.001989
 1710 Fit       0.000263
 1711 Fit      -0.003593
 1712 Fit       0.005895
 1713 Fit       0.004866
 1714 Fit       0.003039
 1715 Fit       0.007963
 1716 Fit       0.006207
 1717 Fit       0.005088
 1718 Fit       0.012514
 1719 Fit       0.009950
 1720 Fit       0.008568
 1721 Fit       0.008283
 1722 Fit       0.014751
 1723 Fit       0.012641
 1724 Fit       0.010742
 1725 Fit       0.010720
 1726 Fit       0.014287
 1727 Fit       0.012356
 1728 Fit       0.010843
 1729 Fit       0.011920
 1730 Fit       0.014287
 1731 Fit       0.013478
 1732 Fit       0.007042
 1733 Fit       0.010551
 1734 Fit       0.011031
 1735 Fit       0.011468
 1736 Fit       0.011190
 1737 Fit       0.011541
 1738 Fit       0.014747
 1739 Fit       0.013286
 1740 Fit       0.011933
 1741 Fit       0.012871
 1742 Fit       0.005741
 1743 Fit       0.005473
 1744 Fit       0.006872
 1745 Fit       0.008050
 1746 Fit       0.008179
 1747 Fit       0.009279
 1748 Fit       0.010091
 1749 Fit       0.009543
 1750 Fit       0.009647
 1751 Fit       0.010581
 1752 Fit       0.012856
 1753 Fit       0.010885
 1754 Fit       0.010861
 1755 Fit       0.012397
 1756 Fit       0.012508
 1757 Fit      -0.022981
 1758 Fit      -0.016171
 1759 Fit      -0.023217
 1760 Fit      -0.008727
 1761 Fit      -0.001930
 1762 Fit       0.002383
 1763 Fit       0.003051
 1764 Fit       0.006532
 1765 Fit       0.008873
 1766 Fit      -0.002427
 1767 Fit       0.000898
 1768 Fit       0.000980
 1769 Fit      -0.002543
 1770 Fit      -0.000811
 1771 Fit       0.001921
 1772 Fit       0.003874
 1773 Fit       0.005230
 1774 Fit       0.004019
 1775 Fit       0.004351
 1776 Fit       0.005922
 1777 Fit       0.007110
 1778 Fit       0.007978
 1779 Fit       0.010078
 1780 Fit      -0.000089
 1781 Fit       0.006191
 1782 Fit       0.006312
 1783 Fit       0.007628
 1784 Fit       0.007575
 1785 Fit       0.009587
 1786 Fit       0.009129
 1787 Fit       0.008881
 1788 Fit       0.008839
 1789 Fit       0.009745
 1790 Fit      -0.002089
 1791 Fit      -0.004355
 1792 Fit      -0.004440
 1793 Fit      -0.002684
 1794 Fit       0.001367
 1795 Fit      -0.006722
 1796 Fit      -0.016695
 1797 Fit      -0.006064
 1798 Fit      -0.000043
 1799 Fit      -0.002822
 1800 Fit       0.001138
 1801 Fit      -0.009852
 1802 Fit      -0.006622
 1803 Fit      -0.000714
 1804 Fit       0.004767
 1805 Fit      -0.022383
 1806 Fit      -0.011711
 1807 Fit      -0.002117
 1808 Fit       0.004082
 1809 Fit      -0.004085
 1810 Fit       0.004006
 1811 Fit      -0.002943
 1812 Fit      -0.003454
 1813 Fit      -0.002619
 1814 Fit      -0.003778
 1815 Fit      -0.008759
 1816 Fit      -0.003343
 1817 Fit      -0.001847
 1818 Fit      -0.003650
 1819 Fit      -0.007428
 1820 Fit      -0.006376
 1821 Fit      -0.002061
 1822 Fit      -0.001774
 1823 Fit      -0.005198
 1824 Fit      -0.012839
 1825 Fit      -0.006333
 1826 Fit      -0.001470
 1827 Fit      -0.001845
 1828 Fit      -0.003585
 1829 Fit      -0.008778
 1830 Fit      -0.012311
 1831 Fit      -0.013278
 1832 Fit      -0.013506
 1833 Fit      -0.012960
 1834 Fit      -0.014224
 1835 Fit      -0.010002
 1836 Fit      -0.011914
 1837 Fit      -0.010588
 1838 Fit      -0.007206
 1839 Fit       0.003384
 1840 Fit       0.005841
 1841 Fit       0.003795
 1842 Fit       0.004149
 1843 Fit      -0.001853
 1844 Fit       0.006536
 1845 Fit       0.000860
 1846 Fit       0.006451
 1847 Fit       0.008052
 1848 Fit       0.007330
 1849 Fit       0.003592
 1850 Fit       0.008676
 1851 Fit       0.004851
 1852 Fit       0.002467
 1853 Fit       0.004829
 1854 Fit       0.005542
 1855 Fit       0.006740
 1856 Fit       0.005672
 1857 Fit       0.005571
 1858 Fit       0.005738
 1859 Fit       0.001446
 1860 Fit      -0.001511
 1861 Fit       0.004271
 1862 Fit       0.007456
 1863 Fit       0.004980
 1864 Fit      -0.001455
 1865 Fit       0.006710
 1866 Fit       0.003777
 1867 Fit      -0.001554
 1868 Fit       0.001202
 1869 Fit      -0.004718
 1870 Fit       0.001362
 1871 Fit       0.001593
 1872 Fit      -0.001759
 1873 Fit       0.000741
 1874 Fit       0.003178
 1875 Fit       0.002761
 1876 Fit       0.000064
 1877 Fit       0.003732
 1878 Fit       0.004704
 1879 Fit       0.004734
 1880 Fit       0.007035
 1881 Fit       0.005579
 1882 Fit       0.002153
 1883 Fit       0.000884
 1884 Fit      -0.004559
 1885 Fit      -0.005687
 1886 Fit      -0.004213
 1887 Fit      -0.000459
 1888 Fit      -0.002139
 1889 Fit      -0.004860
 1890 Fit      -0.004200
 1891 Fit      -0.001642
 1892 Fit       0.000748
 1893 Fit       0.001666
 1894 Fit       0.001206
 1895 Fit      -0.000226
 1896 Fit      -0.002325
 1897 Fit      -0.009443
 1898 Fit      -0.008734
 1899 Fit      -0.005332
 1900 Fit      -0.005408
 1901 Fit      -0.008632
 1902 Fit      -0.008345
 1903 Fit      -0.006522
 1904 Fit      -0.005058
 1905 Fit      -0.004972
 1906 Fit      -0.006258
 1907 Fit      -0.008166
 1908 Fit      -0.010230
 1909 Fit      -0.007922
 1910 Fit      -0.002622
 1911 Fit      -0.003930
 1912 Fit      -0.009279
 1913 Fit      -0.010386
 1914 Fit      -0.009540
 1915 Fit      -0.008824
 1916 Fit      -0.009191
 1917 Fit      -0.010151
 1918 Fit      -0.008564
 1919 Fit      -0.004783
 1920 Fit      -0.005590
 1921 Fit      -0.009380
 1922 Fit      -0.010053
 1923 Fit      -0.009861
 1924 Fit      -0.009730
 1925 Fit      -0.005963
 1926 Fit      -0.000578
 1927 Fit       0.002516
 1928 Fit      -0.001284
 1929 Fit      -0.006713
 1930 Fit      -0.007934
 1931 Fit      -0.003503
 1932 Fit       0.002438
 1933 Fit       0.002654
 1934 Fit       0.001480
 1935 Fit       0.000236
 1936 Fit       0.005288
 1937 Fit       0.004316
 1938 Fit       0.006094
 1939 Fit       0.006387
 1940 Fit       0.003973
 1941 Fit       0.005886
 1942 Fit       0.007433
 1943 Fit       0.009173
 1944 Fit       0.011603
 1945 Fit       0.000525
 1946 Fit       0.003301
 1947 Fit       0.001548
 1948 Fit       0.003231
 1949 Fit       0.005253
 1950 Fit       0.006445
 1951 Fit       0.006966
 1952 Fit       0.005121
 1953 Fit       0.007360
 1954 Fit       0.002113
 1955 Fit       0.008653
 1956 Fit       0.004032
 1957 Fit       0.007349
 1958 Fit       0.004417
 1959 Fit       0.002958
 1960 Fit       0.010712
 1961 Fit       0.002618
 1962 Fit      -0.000136
 1963 Fit       0.004638
 1964 Fit      -0.002845
 1965 Fit      -0.006610
 1966 Fit      -0.008045
 1967 Fit      -0.005147
 1968 Fit      -0.005700
 1969 Fit      -0.009790
 1970 Fit      -0.010561
 1971 Fit      -0.010577
 1972 Fit      -0.010279
 1973 Fit      -0.007924
 1974 Fit      -0.005709
 1975 Fit      -0.010294
 1976 Fit      -0.010986
 1977 Fit      -0.010227
 1978 Fit      -0.009964
 1979 Fit      -0.010678
 1980 Fit      -0.011348
 1981 Fit      -0.010226
 1982 Fit      -0.005504
 1983 Fit       0.003518
 1984 Fit      -0.005109
 1985 Fit      -0.009222
 1986 Fit      -0.009644
 1987 Fit      -0.008088
 1988 Fit      -0.006603
 1989 Fit      -0.006520
 1990 Fit      -0.007780
 1991 Fit      -0.009391
 1992 Fit      -0.010209
 1993 Fit      -0.009076
 1994 Fit      -0.004955
 1995 Fit       0.004668
 1996 Fit      -0.002426
 1997 Fit      -0.005870
 1998 Fit      -0.005923
 1999 Fit      -0.003686
 2000 Fit      -0.001123
 2001 Fit      -0.000142
 2002 Fit      -0.001077
 2003 Fit      -0.002673
 2004 Fit      -0.003863
 2005 Fit      -0.004702
 2006 Fit      -0.005045
 2007 Fit      -0.003427
 2008 Fit       0.001065
 2009 Fit       0.008189
 2010 Fit       0.001752
 2011 Fit      -0.000809
 2012 Fit       0.006426
 2013 Fit       0.006669
 2014 Fit       0.011701
 2015 Fit       0.011348
 2016 Fit       0.012280
 2017 Fit       0.013991
 2018 Fit       0.008851
 2019 Fit       0.012827
 2020 Fit       0.010692
 2021 Fit       0.002903
 2022 Fit       0.005530
 2023 Fit       0.001584
 2024 Fit       0.007131
 2025 Fit       0.002675
 2026 Fit       0.001531
 2027 Fit       0.009713
 2028 Fit       0.000056
 2029 Fit       0.000432
 2030 Fit       0.003549
 2031 Fit       0.001143
 2032 Fit       0.002972
 2033 Fit      -0.001129
 2034 Fit       0.003517
 2035 Fit      -0.001882
 2036 Fit       0.000192
 2037 Fit       0.000105
 2038 Fit      -0.001379
 2039 Fit       0.000643
 2040 Fit       0.000911
 2041 Fit      -0.002773
 2042 Fit       0.000937
 2043 Fit       0.001282
 2044 Fit      -0.000010
 2045 Fit       0.002023
 2046 Fit      -0.011335
 2047 Fit      -0.006942
 2048 Fit      -0.008409
 2049 Fit      -0.011684
 2050 Fit      -0.013774
 2051 Fit      -0.010793
 2052 Fit      -0.001270
 2053 Fit      -0.004887
 2054 Fit      -0.008986
 2055 Fit      -0.012845
 2056 Fit      -0.014266
 2057 Fit      -0.012421
 2058 Fit      -0.007796
 2059 Fit      -0.005039
 2060 Fit      -0.010159
 2061 Fit      -0.013187
 2062 Fit      -0.013342
 2063 Fit      -0.010600
 2064 Fit      -0.005742
 2065 Fit      -0.005083
 2066 Fit      -0.009958
 2067 Fit      -0.012623
 2068 Fit      -0.012514
 2069 Fit      -0.009654
 2070 Fit      -0.004661
 2071 Fit       0.001529
 2072 Fit      -0.003891
 2073 Fit      -0.008884
 2074 Fit      -0.011999
 2075 Fit      -0.012586
 2076 Fit      -0.010497
 2077 Fit      -0.006057
 2078 Fit       0.000277
 2079 Fit      -0.003857
 2080 Fit      -0.009504
 2081 Fit      -0.012476
 2082 Fit      -0.012160
 2083 Fit      -0.008645
 2084 Fit      -0.002447
 2085 Fit      -0.007182
 2086 Fit      -0.011664
 2087 Fit      -0.011735
 2088 Fit      -0.007894
 2089 Fit      -0.001203
 2090 Fit      -0.006778
 2091 Fit      -0.010030
 2092 Fit      -0.007594
 2093 Fit      -0.001802
 2094 Fit      -0.005251
 2095 Fit      -0.001979
 2096 Fit       0.002118
 2097 Fit       0.010109
 2098 Fit       0.009187
 2099 Fit       0.008058
 2100 Fit       0.006412
 2101 Fit       0.005676
 2102 Fit       0.002369
 2103 Fit       0.005735
 2104 Fit       0.007497
 2105 Fit       0.008536
 2106 Fit       0.002663
 2107 Fit       0.006040
 2108 Fit       0.007760
 2109 Fit       0.008774
 2110 Fit       0.003357
 2111 Fit       0.006472
 2112 Fit       0.007952
 2113 Fit       0.001878
 2114 Fit       0.005902
 2115 Fit       0.011034
 2116 Fit       0.011531
 2117 Fit       0.010131
 2118 Fit       0.011529
 2119 Fit       0.014164
 2120 Fit       0.008836
 2121 Fit       0.010270
 2122 Fit       0.013406
 2123 Fit       0.005805
 2124 Fit       0.007895
 2125 Fit       0.010719
 2126 Fit       0.001546
 2127 Fit       0.000330
 2128 Fit       0.002640
 2129 Fit       0.002357
 2130 Fit       0.002480
 2131 Fit       0.003520
 2132 Fit       0.003241
 2133 Fit       0.003790
 2134 Fit       0.004372
 2135 Fit       0.005598
 2136 Fit       0.005363
 2137 Fit       0.007749
 2138 Fit       0.002573
 2139 Fit       0.002344
 2140 Fit       0.003858
 2141 Fit       0.004363
 2142 Fit       0.005061
 2143 Fit       0.004366
 2144 Fit       0.004685
 2145 Fit       0.005145
 2146 Fit       0.005240
 2147 Fit       0.005075
 2148 Fit       0.007239
 2149 Fit       0.006824
 2150 Fit       0.000821
 2151 Fit       0.002252
 2152 Fit       0.001448
 2153 Fit      -0.000345
 2154 Fit      -0.002645
 2155 Fit      -0.000688
 2156 Fit       0.001941
 2157 Fit       0.002799
 2158 Fit      -0.005627
 2159 Fit       0.000058
 2160 Fit       0.002595
 2161 Fit       0.003090
 2162 Fit      -0.000506
 2163 Fit       0.003104
 2164 Fit       0.003917
 2165 Fit       0.004489
 2166 Fit       0.004075
 2167 Fit       0.004330
 2168 Fit       0.006111
 2169 Fit       0.005660
 2170 Fit       0.004889
 2171 Fit       0.005872
 2172 Fit       0.006079
 2173 Fit       0.007442
 2174 Fit       0.006960
 2175 Fit       0.006233
 2176 Fit       0.007804
 2177 Fit       0.007571
 2178 Fit       0.008521
 2179 Fit       0.008125
 2180 Fit       0.008091
 2181 Fit       0.008886
 2182 Fit       0.009957
 2183 Fit       0.010787
 Job cpu time:       0 days  0 hours  4 minutes 29.8 seconds.
 Normal termination of Gaussian 16 at Sat Jul  8 20:37:12 2023.
