 Copyright (c) 1988-2019, Gaussian, Inc.  All Rights Reserved.
  
 This is part of the Gaussian(R) 16 program.  It is based on
 the Gaussian(R) 09 system (copyright 2009, Gaussian, Inc.),
 the Gaussian(R) 03 system (copyright 2003, Gaussian, Inc.),
 the Gaussian(R) 98 system (copyright 1998, Gaussian, Inc.),
 the Gaussian(R) 94 system (copyright 1995, Gaussian, Inc.),
 the Gaussian 92(TM) system (copyright 1992, Gaussian, Inc.),
 the Gaussian 90(TM) system (copyright 1990, Gaussian, Inc.),
 the Gaussian 88(TM) system (copyright 1988, Gaussian, Inc.),
 the Gaussian 86(TM) system (copyright 1986, Carnegie Mellon
 University), and the Gaussian 82(TM) system (copyright 1983,
 Carnegie Mellon University). Gaussian is a federally registered
 trademark of Gaussian, Inc.
 Cite this work as:
 Gaussian 16, Revision C.01,
 M. J. Frisch, G. W. Trucks, H. B. Schlegel, G. E. Scuseria, 
 M. A. Robb, J. R. Cheeseman, G. Scalmani, V. Barone, 
 G. A. Petersson, H. Nakatsuji, X. Li, M. Caricato, A. V. Marenich, 
 J. Bloino, B. G. Janesko, R. Gomperts, B. Mennucci, H. P. Hratchian, 
 J. V. Ortiz, A. F. Izmaylov, J. L. Sonnenberg, D. Williams-Young, 
 F. Ding, F. Lipparini, F. Egidi, J. Goings, B. Peng, A. Petrone, 
 T. Henderson, D. Ranasinghe, V. G. Zakrzewski, J. Gao, N. Rega, 
 G. Zheng, W. Liang, M. Hada, M. Ehara, K. Toyota, R. Fukuda, 
 J. Hasegawa, M. Ishida, T. Nakajima, Y. Honda, O. Kitao, H. Nakai, 
 T. Vreven, K. Throssell, J. A. Montgomery, Jr., J. E. Peralta, 
 F. Ogliaro, M. J. Bearpark, J. J. Heyd, E. N. Brothers, K. N. Kudin, 
 V. N. Staroverov, T. A. Keith, R. Kobayashi, J. Normand, 
 K. Raghavachari, A. P. Rendell, J. C. Burant, S. S. Iyengar, 
 J. Tomasi, M. Cossi, J. M. Millam, M. Klene, C. Adamo, R. Cammi, 
 J. W. Ochterski, R. L. Martin, K. Morokuma, O. Farkas, 
 J. B. Foresman, and D. J. Fox, Gaussian, Inc., Wallingford CT, 2019.
 
 ******************************************
 Gaussian 16:  EM64L-G16RevC.01  3-Jul-2019
                 8-Jul-2023 
 ******************************************
 ----------------------------------------------------------------------
 #P HF/6-31G(d) SCF(Conver=8,XQC,MaxConventionalCycles=64,MaxCycle=128)
  NoSymm Test Pop=mk IOp(6/33=2) GFInput GFPrint
 ----------------------------------------------------------------------
 1/38=1,172=1/1;
 2/12=2,15=1,17=6,18=5,40=1/2;
 3/5=1,6=6,7=1,11=9,24=110,25=1,30=1/1,2,3;
 4//1;
 5/5=2,6=8,7=128,8=3,13=1,38=5,85=64/2,8;
 6/7=2,8=2,9=2,10=2,15=8,20=1,28=1,33=2/1,2;
 99/5=1,9=1/99;
 -------------------------------------------------
 MEP step - Input generated by PyRED DVE-DMDS-OPLS
 -------------------------------------------------
 Symbolic Z-matrix:
 Charge =  0 Multiplicity = 1
 C                    -6.12624   3.27964  -2.285 
 H                    -5.86785   2.28443  -2.62898 
 H                    -6.51179   3.20225  -1.27459 
 H                    -6.91041   3.67263  -2.92438 
 C                    -4.90987   4.18358  -2.32009 
 H                    -4.52725   4.26932  -3.33586 
 H                    -5.17133   5.1869   -1.98544 
 O                    -3.92723   3.64315  -1.48431 
 C                    -2.7465    4.38356  -1.41764 
 H                    -2.93943   5.36343  -0.97897 
 H                    -2.33343   4.53588  -2.4124 
 C                    -1.73331   3.64574  -0.56688 
 H                    -0.88468   4.29861  -0.39439 
 H                    -2.17447   3.41062   0.39777 
 O                    -1.2462    2.49806  -1.19994 
 C                    -1.88162   1.27929  -0.90559 
 H                    -1.78464   0.6579   -1.78713 
 H                    -2.93692   1.43651  -0.71719 
 C                    -1.25437   0.55455   0.27387 
 H                    -1.89277  -0.28013   0.54152 
 H                    -1.19494   1.21557   1.13759 
 O                     0.        0.        0. 
 C                     1.09603   0.87077   0. 
 H                     1.07624   1.49933   0.88852 
 H                     1.0816    1.51833  -0.86656 
 C                     2.34366   0.        0. 
 H                     2.35877  -0.60381  -0.89885 
 H                     2.31357  -0.65972   0.85653 
 S                     3.83094   1.04721   0.04742 
 C                     5.14323  -0.17594  -0.24918 
 H                     4.89406  -0.76722  -1.12114 
 H                     6.01699   0.41276  -0.49675 
 C                     5.42926  -1.07787   0.94877 
 H                     4.5448   -1.64291   1.21315 
 H                     5.70014  -0.48595   1.81365 
 S                     6.703    -2.34671   0.66299 
 C                     8.26014  -1.39363   0.6925 
 H                     8.97752  -2.00535   1.22279 
 H                     8.11143  -0.50005   1.28379 
 C                     8.80632  -1.06537  -0.6974 
 H                     8.92371  -1.98114  -1.2612 
 H                     8.12444  -0.43817  -1.25657 
 S                     10.44746  -0.26893  -0.66625 
 C                     10.05776   1.49818  -0.86302 
 H                     11.0183   1.95748  -1.06465 
 H                     9.4562    1.62342  -1.7559 
 C                     9.39947   2.17674   0.33393 
 H                     9.295     3.24126   0.14429 
 H                     8.40752   1.78213   0.52458 
 H                     9.99321   2.04617   1.2312 
 
 ITRead=  0  0  0  0  0  0  0  0  0  0  0  0  0  0  0  0  0  0  0  0
 ITRead=  0  0  0  0  0  0  0  0  0  0  0  0  0  0  0  0  0  0  0  0
 ITRead=  0  0  0  0  0  0  0  0  0  0
 MicOpt= -1 -1 -1 -1 -1 -1 -1 -1 -1 -1 -1 -1 -1 -1 -1 -1 -1 -1 -1 -1
 MicOpt= -1 -1 -1 -1 -1 -1 -1 -1 -1 -1 -1 -1 -1 -1 -1 -1 -1 -1 -1 -1
 MicOpt= -1 -1 -1 -1 -1 -1 -1 -1 -1 -1
 NAtoms=     50 NQM=       50 NQMF=       0 NMMI=      0 NMMIF=      0
                NMic=       0 NMicF=      0.
                          Input orientation:                          
 ---------------------------------------------------------------------
 Center     Atomic      Atomic             Coordinates (Angstroms)
 Number     Number       Type             X           Y           Z
 ---------------------------------------------------------------------
      1          6           0       -6.126238    3.279635   -2.285000
      2          1           0       -5.867847    2.284426   -2.628983
      3          1           0       -6.511790    3.202254   -1.274589
      4          1           0       -6.910411    3.672634   -2.924381
      5          6           0       -4.909871    4.183577   -2.320090
      6          1           0       -4.527248    4.269320   -3.335861
      7          1           0       -5.171325    5.186896   -1.985440
      8          8           0       -3.927229    3.643149   -1.484308
      9          6           0       -2.746495    4.383558   -1.417643
     10          1           0       -2.939427    5.363427   -0.978966
     11          1           0       -2.333432    4.535880   -2.412400
     12          6           0       -1.733312    3.645742   -0.566880
     13          1           0       -0.884678    4.298609   -0.394385
     14          1           0       -2.174465    3.410617    0.397772
     15          8           0       -1.246199    2.498060   -1.199939
     16          6           0       -1.881622    1.279286   -0.905590
     17          1           0       -1.784643    0.657901   -1.787132
     18          1           0       -2.936915    1.436506   -0.717186
     19          6           0       -1.254367    0.554549    0.273866
     20          1           0       -1.892770   -0.280125    0.541523
     21          1           0       -1.194938    1.215567    1.137589
     22          8           0        0.000000    0.000000    0.000000
     23          6           0        1.096034    0.870765    0.000000
     24          1           0        1.076235    1.499334    0.888518
     25          1           0        1.081600    1.518330   -0.866556
     26          6           0        2.343664    0.000000    0.000000
     27          1           0        2.358770   -0.603811   -0.898846
     28          1           0        2.313570   -0.659722    0.856526
     29         16           0        3.830935    1.047209    0.047416
     30          6           0        5.143231   -0.175938   -0.249183
     31          1           0        4.894063   -0.767217   -1.121143
     32          1           0        6.016993    0.412759   -0.496745
     33          6           0        5.429262   -1.077871    0.948772
     34          1           0        4.544804   -1.642911    1.213152
     35          1           0        5.700143   -0.485951    1.813648
     36         16           0        6.702997   -2.346705    0.662989
     37          6           0        8.260140   -1.393625    0.692502
     38          1           0        8.977515   -2.005350    1.222791
     39          1           0        8.111430   -0.500045    1.283789
     40          6           0        8.806317   -1.065366   -0.697403
     41          1           0        8.923711   -1.981141   -1.261197
     42          1           0        8.124445   -0.438171   -1.256572
     43         16           0       10.447465   -0.268928   -0.666252
     44          6           0       10.057761    1.498177   -0.863017
     45          1           0       11.018298    1.957481   -1.064646
     46          1           0        9.456204    1.623420   -1.755902
     47          6           0        9.399472    2.176744    0.333925
     48          1           0        9.295004    3.241263    0.144289
     49          1           0        8.407517    1.782130    0.524577
     50          1           0        9.993209    2.046173    1.231196
 ---------------------------------------------------------------------
 Stoichiometry    C14H30O3S3
 Framework group  C1[X(C14H30O3S3)]
 Standard basis: 6-31G(d) (6D, 7F)
   372 basis functions,   752 primitive gaussians,   372 cartesian basis functions
    93 alpha electrons       93 beta electrons
 Requested convergence on RMS density matrix=1.00D-08 within  64 cycles.
 Requested convergence on MAX density matrix=1.00D-06.
 Requested convergence on             energy=1.00D-06.
 SCF Done:  E(RHF) =  -1964.69215272     A.U. after   13 cycles
            NFock= 13  Conv=0.50D-08     -V/T= 2.0006
 Mulliken charges:
     1  C   -0.490960
     2  H    0.174064
     3  H    0.172692
     4  H    0.159645
     5  C    0.024006
     6  H    0.143493
     7  H    0.138139
     8  O   -0.628472
     9  C    0.017614
    10  H    0.134495
    11  H    0.154735
    12  C   -0.007005
    13  H    0.169545
    14  H    0.152686
    15  O   -0.636209
    16  C   -0.019490
    17  H    0.179522
    18  H    0.177018
    19  C   -0.003226
    20  H    0.169376
    21  H    0.141146
    22  O   -0.636132
    23  C    0.018064
    24  H    0.145377
    25  H    0.190895
    26  C   -0.477939
    27  H    0.200099
    28  H    0.197829
    29  S    0.108544
    30  C   -0.475099
    31  H    0.209629
    32  H    0.194784
    33  C   -0.472869
    34  H    0.208278
    35  H    0.206291
    36  S    0.115529
    37  C   -0.475770
    38  H    0.217393
    39  H    0.199682
    40  C   -0.473508
    41  H    0.216116
    42  H    0.194257
    43  S    0.111556
    44  C   -0.471868
    45  H    0.200905
    46  H    0.190643
    47  C   -0.475630
    48  H    0.171329
    49  H    0.157708
    50  H    0.181092
 Sum of Mulliken charges =  -0.00000
 Dipole moment (field-independent basis, Debye):
    X=             -3.3337    Y=              3.5245    Z=              0.0053  Tot=              4.8514
 Quadrupole moment (field-independent basis, Debye-Ang):
   XX=           -161.7455   YY=           -141.5849   ZZ=           -148.6131
   XY=              8.3836   XZ=              3.5975   YZ=             -1.9061
 Traceless Quadrupole moment (field-independent basis, Debye-Ang):
   XX=            -11.0977   YY=              9.0629   ZZ=              2.0347
   XY=              8.3836   XZ=              3.5975   YZ=             -1.9061
 Octapole moment (field-independent basis, Debye-Ang**2):
  XXX=          -1721.3840  YYY=           -322.7829  ZZZ=            176.4792  XYY=           -516.9189
  XXY=             63.5210  XXZ=             51.4265  XZZ=           -489.5055  YZZ=           -124.8474
  YYZ=             34.6019  XYZ=             17.4759
 Hexadecapole moment (field-independent basis, Debye-Ang**3):
 XXXX=         -37468.7225 YYYY=          -4165.6587 ZZZZ=          -1134.5507 XXXY=           3394.2838
 XXXZ=           -211.0735 YYYX=           1778.8514 YYYZ=            667.1279 ZZZX=           -592.9711
 ZZZY=            737.5316 XXYY=          -6055.3567 XXZZ=          -5826.4620 YYZZ=           -896.5447
 XXYZ=             59.0272 YYXZ=           -168.4135 ZZXY=            591.0013
 Merz-Kollman atomic radii used.
 Atom Element Radius
    1     6    1.50
    2     1    1.20
    3     1    1.20
    4     1    1.20
    5     6    1.50
    6     1    1.20
    7     1    1.20
    8     8    1.40
    9     6    1.50
   10     1    1.20
   11     1    1.20
   12     6    1.50
   13     1    1.20
   14     1    1.20
   15     8    1.40
   16     6    1.50
   17     1    1.20
   18     1    1.20
   19     6    1.50
   20     1    1.20
   21     1    1.20
   22     8    1.40
   23     6    1.50
   24     1    1.20
   25     1    1.20
   26     6    1.50
   27     1    1.20
   28     1    1.20
   29    16    1.75
   30     6    1.50
   31     1    1.20
   32     1    1.20
   33     6    1.50
   34     1    1.20
   35     1    1.20
   36    16    1.75
   37     6    1.50
   38     1    1.20
   39     1    1.20
   40     6    1.50
   41     1    1.20
   42     1    1.20
   43    16    1.75
   44     6    1.50
   45     1    1.20
   46     1    1.20
   47     6    1.50
   48     1    1.20
   49     1    1.20
   50     1    1.20
 Generate VDW surfaces: Layer= 4 Dens= 1 Start= 1.400 Inc= 0.200
            Electrostatic Properties Using The SCF Density.


       Atomic Center    1 is at  -6.126238  3.279635 -2.285000
       Atomic Center    2 is at  -5.867847  2.284426 -2.628983
       Atomic Center    3 is at  -6.511790  3.202254 -1.274589
       Atomic Center    4 is at  -6.910411  3.672634 -2.924381
       Atomic Center    5 is at  -4.909871  4.183577 -2.320090
       Atomic Center    6 is at  -4.527248  4.269320 -3.335861
       Atomic Center    7 is at  -5.171325  5.186896 -1.985440
       Atomic Center    8 is at  -3.927229  3.643149 -1.484308
       Atomic Center    9 is at  -2.746495  4.383558 -1.417643
       Atomic Center   10 is at  -2.939427  5.363427 -0.978966
       Atomic Center   11 is at  -2.333432  4.535880 -2.412400
       Atomic Center   12 is at  -1.733312  3.645742 -0.566880
       Atomic Center   13 is at  -0.884678  4.298609 -0.394385
       Atomic Center   14 is at  -2.174465  3.410617  0.397772
       Atomic Center   15 is at  -1.246199  2.498060 -1.199939
       Atomic Center   16 is at  -1.881622  1.279286 -0.905590
       Atomic Center   17 is at  -1.784643  0.657901 -1.787132
       Atomic Center   18 is at  -2.936915  1.436506 -0.717186
       Atomic Center   19 is at  -1.254367  0.554549  0.273866
       Atomic Center   20 is at  -1.892770 -0.280125  0.541523
       Atomic Center   21 is at  -1.194938  1.215567  1.137589
       Atomic Center   22 is at   0.000000  0.000000  0.000000
       Atomic Center   23 is at   1.096034  0.870765  0.000000
       Atomic Center   24 is at   1.076235  1.499334  0.888518
       Atomic Center   25 is at   1.081600  1.518330 -0.866556
       Atomic Center   26 is at   2.343664  0.000000  0.000000
       Atomic Center   27 is at   2.358770 -0.603811 -0.898846
       Atomic Center   28 is at   2.313570 -0.659722  0.856526
       Atomic Center   29 is at   3.830935  1.047209  0.047416
       Atomic Center   30 is at   5.143231 -0.175938 -0.249183
       Atomic Center   31 is at   4.894063 -0.767217 -1.121143
       Atomic Center   32 is at   6.016993  0.412759 -0.496745
       Atomic Center   33 is at   5.429262 -1.077871  0.948772
       Atomic Center   34 is at   4.544804 -1.642911  1.213152
       Atomic Center   35 is at   5.700143 -0.485951  1.813648
       Atomic Center   36 is at   6.702997 -2.346705  0.662989
       Atomic Center   37 is at   8.260140 -1.393625  0.692502
       Atomic Center   38 is at   8.977515 -2.005350  1.222791
       Atomic Center   39 is at   8.111430 -0.500045  1.283789
       Atomic Center   40 is at   8.806317 -1.065366 -0.697403
       Atomic Center   41 is at   8.923711 -1.981141 -1.261197
       Atomic Center   42 is at   8.124445 -0.438171 -1.256572
       Atomic Center   43 is at  10.447465 -0.268928 -0.666252
       Atomic Center   44 is at  10.057761  1.498177 -0.863017
       Atomic Center   45 is at  11.018298  1.957481 -1.064646
       Atomic Center   46 is at   9.456204  1.623420 -1.755902
       Atomic Center   47 is at   9.399472  2.176744  0.333925
       Atomic Center   48 is at   9.295004  3.241263  0.144289
       Atomic Center   49 is at   8.407517  1.782130  0.524577
       Atomic Center   50 is at   9.993209  2.046173  1.231196
      ESP Fit Center   51 is at  -6.385059  1.479493 -1.235000
      ESP Fit Center   52 is at  -6.870908  5.243169 -2.285000
      ESP Fit Center   53 is at  -7.698111  1.887077 -2.285000
      ESP Fit Center   54 is at  -6.126238  3.279635 -4.385000
      ESP Fit Center   55 is at  -5.562699  1.345277 -1.269834
      ESP Fit Center   56 is at  -6.666734  0.900712 -2.109834
      ESP Fit Center   57 is at  -5.590396  0.710925 -2.109834
      ESP Fit Center   58 is at  -4.643880  1.257396 -2.109834
      ESP Fit Center   59 is at  -4.270072  2.284426 -3.148132
      ESP Fit Center   60 is at  -7.369264  1.737955 -3.148132
      ESP Fit Center   61 is at  -6.666734  0.900712 -3.148132
      ESP Fit Center   62 is at  -5.590396  0.710925 -3.148132
      ESP Fit Center   63 is at  -4.643880  1.257396 -3.148132
      ESP Fit Center   64 is at  -4.880368  2.284426 -3.988132
      ESP Fit Center   65 is at  -6.666734  1.704000 -3.988132
      ESP Fit Center   66 is at  -5.562699  1.345277 -3.988132
      ESP Fit Center   67 is at  -5.867847  2.284426 -4.308983
      ESP Fit Center   68 is at  -6.511790  3.202254  0.405411
      ESP Fit Center   69 is at  -5.524311  3.202254  0.084560
      ESP Fit Center   70 is at  -6.206642  4.141403  0.084560
      ESP Fit Center   71 is at  -7.310677  3.782680  0.084560
      ESP Fit Center   72 is at  -7.310677  2.621828  0.084560
      ESP Fit Center   73 is at  -6.206642  2.263105  0.084560
      ESP Fit Center   74 is at  -7.310677  4.585968 -0.755440
      ESP Fit Center   75 is at  -8.013207  3.748725 -0.755440
      ESP Fit Center   76 is at  -8.013207  2.655783 -0.755440
      ESP Fit Center   77 is at  -7.310677  1.818540 -0.755440
      ESP Fit Center   78 is at  -6.234339  1.628753 -0.755440
      ESP Fit Center   79 is at  -7.709298  5.056348 -2.405232
      ESP Fit Center   80 is at  -8.411828  4.219105 -2.405232
      ESP Fit Center   81 is at  -8.411828  3.126163 -2.405232
      ESP Fit Center   82 is at  -6.632960  5.246135 -3.443530
      ESP Fit Center   83 is at  -7.709298  5.056348 -3.443530
      ESP Fit Center   84 is at  -8.411828  4.219105 -3.443530
      ESP Fit Center   85 is at  -8.411828  3.126163 -3.443530
      ESP Fit Center   86 is at  -7.709298  2.288920 -3.443530
      ESP Fit Center   87 is at  -6.605263  4.611783 -4.283530
      ESP Fit Center   88 is at  -7.709298  4.253060 -4.283530
      ESP Fit Center   89 is at  -7.709298  3.092208 -4.283530
      ESP Fit Center   90 is at  -6.605263  2.733485 -4.283530
      ESP Fit Center   91 is at  -6.910411  3.672634 -4.604381
      ESP Fit Center   92 is at  -6.100836  5.558023 -3.370090
      ESP Fit Center   93 is at  -4.154375  2.529272 -3.370090
      ESP Fit Center   94 is at  -3.303281  5.296350 -3.855010
      ESP Fit Center   95 is at  -4.249797  5.842821 -3.855010
      ESP Fit Center   96 is at  -5.326135  5.653034 -3.855010
      ESP Fit Center   97 is at  -4.249797  2.695819 -3.855010
      ESP Fit Center   98 is at  -3.303281  3.242290 -3.855010
      ESP Fit Center   99 is at  -3.539769  4.269320 -4.695010
      ESP Fit Center  100 is at  -4.222100  5.208469 -4.695010
      ESP Fit Center  101 is at  -5.326135  4.849746 -4.695010
      ESP Fit Center  102 is at  -5.326135  3.688894 -4.695010
      ESP Fit Center  103 is at  -4.222100  3.330171 -4.695010
      ESP Fit Center  104 is at  -4.527248  4.269320 -5.015861
      ESP Fit Center  105 is at  -5.171325  5.186896 -0.305440
      ESP Fit Center  106 is at  -4.866177  6.126045 -0.626291
      ESP Fit Center  107 is at  -5.970212  5.767322 -0.626291
      ESP Fit Center  108 is at  -4.893874  6.760397 -1.466291
      ESP Fit Center  109 is at  -5.970212  6.570610 -1.466291
      ESP Fit Center  110 is at  -6.672742  5.733367 -1.466291
      ESP Fit Center  111 is at  -3.947358  6.213926 -2.504589
      ESP Fit Center  112 is at  -4.893874  6.760397 -2.504589
      ESP Fit Center  113 is at  -5.970212  6.570610 -2.504589
      ESP Fit Center  114 is at  -6.672742  5.733367 -2.504589
      ESP Fit Center  115 is at  -4.866177  6.126045 -3.344589
      ESP Fit Center  116 is at  -5.970212  5.767322 -3.344589
      ESP Fit Center  117 is at  -3.927229  3.643149  0.475692
      ESP Fit Center  118 is at  -4.417229  4.491854  0.213102
      ESP Fit Center  119 is at  -4.907229  3.643149  0.213102
      ESP Fit Center  120 is at  -4.417229  2.794444  0.213102
      ESP Fit Center  121 is at  -3.402701  2.028816 -2.464308
      ESP Fit Center  122 is at  -3.437229  2.794444 -3.181718
      ESP Fit Center  123 is at  -3.796495  4.383558  0.401010
      ESP Fit Center  124 is at  -3.005316  6.183700 -2.467643
      ESP Fit Center  125 is at  -2.939427  5.363427  0.701034
      ESP Fit Center  126 is at  -2.634279  6.302576  0.380183
      ESP Fit Center  127 is at  -3.738314  5.943853  0.380183
      ESP Fit Center  128 is at  -1.715460  6.390457 -0.459817
      ESP Fit Center  129 is at  -2.661976  6.936928 -0.459817
      ESP Fit Center  130 is at  -3.738314  6.747141 -0.459817
      ESP Fit Center  131 is at  -4.440844  5.909898 -0.459817
      ESP Fit Center  132 is at  -1.715460  6.390457 -1.498115
      ESP Fit Center  133 is at  -2.661976  6.936928 -1.498115
      ESP Fit Center  134 is at  -3.738314  6.747141 -1.498115
      ESP Fit Center  135 is at  -2.634279  6.302576 -2.338115
      ESP Fit Center  136 is at  -0.735657  4.535880 -2.931549
      ESP Fit Center  137 is at  -1.109465  5.562910 -2.931549
      ESP Fit Center  138 is at  -2.055981  6.109381 -2.931549
      ESP Fit Center  139 is at  -3.132319  5.919594 -2.931549
      ESP Fit Center  140 is at  -2.055981  2.962379 -2.931549
      ESP Fit Center  141 is at  -1.109465  3.508850 -2.931549
      ESP Fit Center  142 is at  -1.345953  4.535880 -3.771549
      ESP Fit Center  143 is at  -2.028284  5.475029 -3.771549
      ESP Fit Center  144 is at  -3.132319  5.116306 -3.771549
      ESP Fit Center  145 is at  -2.028284  3.596731 -3.771549
      ESP Fit Center  146 is at  -2.333432  4.535880 -4.092400
      ESP Fit Center  147 is at  -0.683312  3.645742  1.251773
      ESP Fit Center  148 is at  -1.208312  4.555069  1.251773
      ESP Fit Center  149 is at  -1.992133  5.445884  0.483120
      ESP Fit Center  150 is at  -0.203363  2.662504  0.483120
      ESP Fit Center  151 is at  -0.884678  4.298609  1.285615
      ESP Fit Center  152 is at   0.102801  4.298609  0.964764
      ESP Fit Center  153 is at  -0.579530  5.237758  0.964764
      ESP Fit Center  154 is at   0.713097  4.298609  0.124764
      ESP Fit Center  155 is at   0.339289  5.325639  0.124764
      ESP Fit Center  156 is at  -0.607227  5.872110  0.124764
      ESP Fit Center  157 is at  -1.683565  5.682323  0.124764
      ESP Fit Center  158 is at   0.339289  3.271579  0.124764
      ESP Fit Center  159 is at   0.713097  4.298609 -0.913534
      ESP Fit Center  160 is at   0.339289  5.325639 -0.913534
      ESP Fit Center  161 is at  -0.607227  5.872110 -0.913534
      ESP Fit Center  162 is at   0.102801  4.298609 -1.753534
      ESP Fit Center  163 is at  -0.579530  5.237758 -1.753534
      ESP Fit Center  164 is at  -2.174465  3.410617  2.077772
      ESP Fit Center  165 is at  -1.186986  3.410617  1.756921
      ESP Fit Center  166 is at  -1.869317  4.349766  1.756921
      ESP Fit Center  167 is at  -2.973352  3.991043  1.756921
      ESP Fit Center  168 is at  -2.973352  2.830191  1.756921
      ESP Fit Center  169 is at  -2.973352  4.794331  0.916921
      ESP Fit Center  170 is at  -3.675882  3.957088  0.916921
      ESP Fit Center  171 is at  -3.675882  2.864146  0.916921
      ESP Fit Center  172 is at  -2.973352  2.026903  0.916921
      ESP Fit Center  173 is at  -0.266199  2.498060  0.497471
      ESP Fit Center  174 is at   0.451211  3.478060 -1.199939
      ESP Fit Center  175 is at   0.451211  2.498060 -2.179939
      ESP Fit Center  176 is at   0.127034  3.495772 -2.179939
      ESP Fit Center  177 is at  -0.266199  2.498060 -2.897349
      ESP Fit Center  178 is at  -0.756199  3.346765 -2.897349
      ESP Fit Center  179 is at  -2.226199  2.498060 -2.897349
      ESP Fit Center  180 is at  -0.756199  1.649355 -2.897349
      ESP Fit Center  181 is at  -1.246199  2.498060 -3.159939
      ESP Fit Center  182 is at  -2.583530 -0.725813 -1.267983
      ESP Fit Center  183 is at  -1.507192 -0.915600 -1.267983
      ESP Fit Center  184 is at  -0.186868  0.657901 -2.306281
      ESP Fit Center  185 is at  -3.286060  0.111430 -2.306281
      ESP Fit Center  186 is at  -2.583530 -0.725813 -2.306281
      ESP Fit Center  187 is at  -1.507192 -0.915600 -2.306281
      ESP Fit Center  188 is at  -0.560676 -0.369129 -2.306281
      ESP Fit Center  189 is at  -0.797164  0.657901 -3.146281
      ESP Fit Center  190 is at  -1.479495  1.597050 -3.146281
      ESP Fit Center  191 is at  -2.583530  1.238327 -3.146281
      ESP Fit Center  192 is at  -2.583530  0.077475 -3.146281
      ESP Fit Center  193 is at  -1.479495 -0.281248 -3.146281
      ESP Fit Center  194 is at  -1.784643  0.657901 -3.467132
      ESP Fit Center  195 is at  -3.735802  2.016932  0.641963
      ESP Fit Center  196 is at  -3.735802  0.856080  0.641963
      ESP Fit Center  197 is at  -4.438332  1.982977 -0.198037
      ESP Fit Center  198 is at  -4.438332  0.890035 -0.198037
      ESP Fit Center  199 is at  -3.735802  0.052792 -0.198037
      ESP Fit Center  200 is at  -4.438332  0.890035 -1.236335
      ESP Fit Center  201 is at  -3.735802  0.052792 -1.236335
      ESP Fit Center  202 is at  -3.735802  0.856080 -2.076335
      ESP Fit Center  203 is at  -0.729367 -0.354778  2.092519
      ESP Fit Center  204 is at  -2.999352  1.066923  1.323866
      ESP Fit Center  205 is at  -1.892770 -0.280125  2.221523
      ESP Fit Center  206 is at  -2.691657  0.300301  1.900672
      ESP Fit Center  207 is at  -2.691657 -0.860551  1.900672
      ESP Fit Center  208 is at  -1.587622 -1.219274  1.900672
      ESP Fit Center  209 is at  -3.394187  0.266346  1.060672
      ESP Fit Center  210 is at  -3.394187 -0.826596  1.060672
      ESP Fit Center  211 is at  -2.691657 -1.663839  1.060672
      ESP Fit Center  212 is at  -1.615319 -1.853626  1.060672
      ESP Fit Center  213 is at  -3.394187 -0.826596  0.022374
      ESP Fit Center  214 is at  -2.691657 -1.663839  0.022374
      ESP Fit Center  215 is at  -1.615319 -1.853626  0.022374
      ESP Fit Center  216 is at  -2.691657 -0.860551 -0.817626
      ESP Fit Center  217 is at  -1.587622 -1.219274 -0.817626
      ESP Fit Center  218 is at  -1.194938  1.215567  2.817589
      ESP Fit Center  219 is at  -0.207459  1.215567  2.496738
      ESP Fit Center  220 is at  -0.889790  2.154716  2.496738
      ESP Fit Center  221 is at  -1.993825  1.795993  2.496738
      ESP Fit Center  222 is at  -1.993825  0.635141  2.496738
      ESP Fit Center  223 is at  -0.889790  0.276418  2.496738
      ESP Fit Center  224 is at  -0.917487  2.789068  1.656738
      ESP Fit Center  225 is at  -2.696355  1.762038  1.656738
      ESP Fit Center  226 is at   0.000000  0.000000  1.960000
      ESP Fit Center  227 is at  -0.490000 -0.848705  1.697410
      ESP Fit Center  228 is at   0.490000 -0.848705  1.697410
      ESP Fit Center  229 is at  -0.524528 -1.614333  0.980000
      ESP Fit Center  230 is at   0.524528 -1.614333  0.980000
      ESP Fit Center  231 is at  -0.980000 -1.697410  0.000000
      ESP Fit Center  232 is at  -0.000000 -1.960000  0.000000
      ESP Fit Center  233 is at   0.980000 -1.697410  0.000000
      ESP Fit Center  234 is at  -0.524528 -1.614333 -0.980000
      ESP Fit Center  235 is at   0.524528 -1.614333 -0.980000
      ESP Fit Center  236 is at  -0.490000 -0.848705 -1.697410
      ESP Fit Center  237 is at   0.490000 -0.848705 -1.697410
      ESP Fit Center  238 is at   0.000000  0.000000 -1.960000
      ESP Fit Center  239 is at   1.349161  2.955454  0.000000
      ESP Fit Center  240 is at   0.351364  2.834299  0.000000
      ESP Fit Center  241 is at   1.076235  1.499334  2.568518
      ESP Fit Center  242 is at   2.063714  1.499334  2.247667
      ESP Fit Center  243 is at   1.381383  2.438483  2.247667
      ESP Fit Center  244 is at   0.277348  2.079760  2.247667
      ESP Fit Center  245 is at   0.277348  0.918908  2.247667
      ESP Fit Center  246 is at   1.381383  0.560185  2.247667
      ESP Fit Center  247 is at   2.300202  2.526364  1.407667
      ESP Fit Center  248 is at   1.353686  3.072835  1.407667
      ESP Fit Center  249 is at   0.277348  2.883048  1.407667
      ESP Fit Center  250 is at   1.353686  3.072835  0.369369
      ESP Fit Center  251 is at   0.277348  2.883048  0.369369
      ESP Fit Center  252 is at   1.359051  3.091831 -0.347407
      ESP Fit Center  253 is at   2.305567  2.545360 -1.385705
      ESP Fit Center  254 is at   1.359051  3.091831 -1.385705
      ESP Fit Center  255 is at   2.069079  1.518330 -2.225705
      ESP Fit Center  256 is at   1.386748  2.457479 -2.225705
      ESP Fit Center  257 is at   0.282713  0.937904 -2.225705
      ESP Fit Center  258 is at   1.386748  0.579181 -2.225705
      ESP Fit Center  259 is at   1.081600  1.518330 -2.546556
      ESP Fit Center  260 is at   1.598994 -1.963534  0.000000
      ESP Fit Center  261 is at   2.596791 -2.084689  0.000000
      ESP Fit Center  262 is at   1.559883 -1.987525 -0.379697
      ESP Fit Center  263 is at   2.636221 -2.177312 -0.379697
      ESP Fit Center  264 is at   0.857353 -1.150282 -1.417995
      ESP Fit Center  265 is at   1.559883 -1.987525 -1.417995
      ESP Fit Center  266 is at   2.636221 -2.177312 -1.417995
      ESP Fit Center  267 is at   3.346249 -0.603811 -2.257995
      ESP Fit Center  268 is at   2.663918  0.335338 -2.257995
      ESP Fit Center  269 is at   1.559883 -0.023385 -2.257995
      ESP Fit Center  270 is at   1.559883 -1.184237 -2.257995
      ESP Fit Center  271 is at   2.663918 -1.542960 -2.257995
      ESP Fit Center  272 is at   2.358770 -0.603811 -2.578846
      ESP Fit Center  273 is at   2.313570 -0.659722  2.536526
      ESP Fit Center  274 is at   3.301049 -0.659722  2.215675
      ESP Fit Center  275 is at   2.618718  0.279427  2.215675
      ESP Fit Center  276 is at   1.514683 -0.079296  2.215675
      ESP Fit Center  277 is at   1.514683 -1.240148  2.215675
      ESP Fit Center  278 is at   2.618718 -1.598871  2.215675
      ESP Fit Center  279 is at   0.812153 -1.206193  1.375675
      ESP Fit Center  280 is at   1.514683 -2.043436  1.375675
      ESP Fit Center  281 is at   2.591021 -2.233223  1.375675
      ESP Fit Center  282 is at   1.514683 -2.043436  0.337377
      ESP Fit Center  283 is at   2.591021 -2.233223  0.337377
      ESP Fit Center  284 is at   3.830935  1.047209  2.497416
      ESP Fit Center  285 is at   4.893950  1.047209  2.254790
      ESP Fit Center  286 is at   4.362443  1.967807  2.254790
      ESP Fit Center  287 is at   3.299427  1.967807  2.254790
      ESP Fit Center  288 is at   2.767920  1.047209  2.254790
      ESP Fit Center  289 is at   3.299427  0.126611  2.254790
      ESP Fit Center  290 is at   5.442345  2.082800  1.574966
      ESP Fit Center  291 is at   4.626657  2.789597  1.574966
      ESP Fit Center  292 is at   3.558333  2.943199  1.574966
      ESP Fit Center  293 is at   2.576558  2.494838  1.574966
      ESP Fit Center  294 is at   5.982965  2.083572  0.592592
      ESP Fit Center  295 is at   5.320186  2.914671  0.592592
      ESP Fit Center  296 is at   4.362443  3.375896  0.592592
      ESP Fit Center  297 is at   3.299427  3.375896  0.592592
      ESP Fit Center  298 is at   2.341684  2.914671  0.592592
      ESP Fit Center  299 is at   5.320186  2.914671 -0.497760
      ESP Fit Center  300 is at   4.362443  3.375896 -0.497760
      ESP Fit Center  301 is at   3.299427  3.375896 -0.497760
      ESP Fit Center  302 is at   2.341684  2.914671 -0.497760
      ESP Fit Center  303 is at   5.442345  2.082800 -1.480134
      ESP Fit Center  304 is at   4.626657  2.789597 -1.480134
      ESP Fit Center  305 is at   3.558333  2.943199 -1.480134
      ESP Fit Center  306 is at   2.576558  2.494838 -1.480134
      ESP Fit Center  307 is at   4.893950  1.047209 -2.159958
      ESP Fit Center  308 is at   4.362443  1.967807 -2.159958
      ESP Fit Center  309 is at   3.299427  1.967807 -2.159958
      ESP Fit Center  310 is at   2.767920  1.047209 -2.159958
      ESP Fit Center  311 is at   3.299427  0.126611 -2.159958
      ESP Fit Center  312 is at   3.830935  1.047209 -2.402584
      ESP Fit Center  313 is at   6.193231 -0.175938 -2.067836
      ESP Fit Center  314 is at   4.095176 -2.150931 -0.601994
      ESP Fit Center  315 is at   4.095176 -2.150931 -1.640292
      ESP Fit Center  316 is at   5.171514 -2.340718 -1.640292
      ESP Fit Center  317 is at   5.881542 -0.767217 -2.480292
      ESP Fit Center  318 is at   5.199211  0.171932 -2.480292
      ESP Fit Center  319 is at   4.095176 -0.186791 -2.480292
      ESP Fit Center  320 is at   4.095176 -1.347643 -2.480292
      ESP Fit Center  321 is at   5.199211 -1.706366 -2.480292
      ESP Fit Center  322 is at   4.894063 -0.767217 -2.801143
      ESP Fit Center  323 is at   6.322141  1.351908  0.862404
      ESP Fit Center  324 is at   6.294444  1.986260  0.022404
      ESP Fit Center  325 is at   7.240960  1.439789 -1.015894
      ESP Fit Center  326 is at   6.294444  1.986260 -1.015894
      ESP Fit Center  327 is at   6.322141  1.351908 -1.855894
      ESP Fit Center  328 is at   6.016993  0.412759 -2.176745
      ESP Fit Center  329 is at   4.544804 -1.642911  2.893152
      ESP Fit Center  330 is at   3.745917 -1.062485  2.572301
      ESP Fit Center  331 is at   3.745917 -2.223337  2.572301
      ESP Fit Center  332 is at   4.849952 -2.582060  2.572301
      ESP Fit Center  333 is at   3.043387 -2.189382  1.732301
      ESP Fit Center  334 is at   3.745917 -3.026625  1.732301
      ESP Fit Center  335 is at   3.043387 -2.189382  0.694003
      ESP Fit Center  336 is at   3.745917 -3.026625  0.694003
      ESP Fit Center  337 is at   3.745917 -2.223337 -0.145997
      ESP Fit Center  338 is at   5.700143 -0.485951  3.493648
      ESP Fit Center  339 is at   6.687622 -0.485951  3.172797
      ESP Fit Center  340 is at   6.005291  0.453198  3.172797
      ESP Fit Center  341 is at   4.901256  0.094475  3.172797
      ESP Fit Center  342 is at   4.901256 -1.066377  3.172797
      ESP Fit Center  343 is at   6.005291 -1.425100  3.172797
      ESP Fit Center  344 is at   6.924110  0.541079  2.332797
      ESP Fit Center  345 is at   5.977594  1.087550  2.332797
      ESP Fit Center  346 is at   4.901256  0.897763  2.332797
      ESP Fit Center  347 is at   4.198726  0.060520  2.332797
      ESP Fit Center  348 is at   5.977594  1.087550  1.294499
      ESP Fit Center  349 is at   6.702997 -2.346705  3.112989
      ESP Fit Center  350 is at   7.766012 -2.346705  2.870363
      ESP Fit Center  351 is at   7.234505 -1.426107  2.870363
      ESP Fit Center  352 is at   5.639982 -2.346705  2.870363
      ESP Fit Center  353 is at   6.171489 -3.267303  2.870363
      ESP Fit Center  354 is at   7.234505 -3.267303  2.870363
      ESP Fit Center  355 is at   5.448620 -3.794334  2.190539
      ESP Fit Center  356 is at   6.430395 -4.242695  2.190539
      ESP Fit Center  357 is at   7.498719 -4.089093  2.190539
      ESP Fit Center  358 is at   8.314407 -3.382296  2.190539
      ESP Fit Center  359 is at   4.550967 -3.383068  1.208165
      ESP Fit Center  360 is at   5.213746 -4.214167  1.208165
      ESP Fit Center  361 is at   6.171489 -4.675392  1.208165
      ESP Fit Center  362 is at   7.234505 -4.675392  1.208165
      ESP Fit Center  363 is at   8.192248 -4.214167  1.208165
      ESP Fit Center  364 is at   4.550967 -3.383068  0.117813
      ESP Fit Center  365 is at   5.213746 -4.214167  0.117813
      ESP Fit Center  366 is at   6.171489 -4.675392  0.117813
      ESP Fit Center  367 is at   7.234505 -4.675392  0.117813
      ESP Fit Center  368 is at   8.192248 -4.214167  0.117813
      ESP Fit Center  369 is at   8.855027 -3.383068  0.117813
      ESP Fit Center  370 is at   4.865101 -2.886360 -0.864561
      ESP Fit Center  371 is at   5.448620 -3.794334 -0.864561
      ESP Fit Center  372 is at   6.430395 -4.242695 -0.864561
      ESP Fit Center  373 is at   7.498719 -4.089093 -0.864561
      ESP Fit Center  374 is at   5.639982 -2.346705 -1.544385
      ESP Fit Center  375 is at   6.171489 -3.267303 -1.544385
      ESP Fit Center  376 is at   7.234505 -3.267303 -1.544385
      ESP Fit Center  377 is at   6.702997 -2.346705 -1.787011
      ESP Fit Center  378 is at   8.260140 -1.393625  2.792502
      ESP Fit Center  379 is at   9.790089 -0.410387  1.742502
      ESP Fit Center  380 is at   8.977515 -2.005350  2.902791
      ESP Fit Center  381 is at   9.964994 -2.005350  2.581940
      ESP Fit Center  382 is at   9.282663 -1.066201  2.581940
      ESP Fit Center  383 is at   9.282663 -2.944499  2.581940
      ESP Fit Center  384 is at  10.575290 -2.005350  1.741940
      ESP Fit Center  385 is at  10.201482 -0.978320  1.741940
      ESP Fit Center  386 is at   9.254966 -3.578851  1.741940
      ESP Fit Center  387 is at  10.201482 -3.032380  1.741940
      ESP Fit Center  388 is at   9.254966 -3.578851  0.703642
      ESP Fit Center  389 is at  10.201482 -3.032380  0.703642
      ESP Fit Center  390 is at   8.111430 -0.500045  2.963789
      ESP Fit Center  391 is at   9.098909 -0.500045  2.642938
      ESP Fit Center  392 is at   8.416578  0.439104  2.642938
      ESP Fit Center  393 is at   7.312543  0.080381  2.642938
      ESP Fit Center  394 is at   9.335397  0.526985  1.802938
      ESP Fit Center  395 is at   7.312543  0.883669  1.802938
      ESP Fit Center  396 is at   8.806317 -1.065366 -2.797403
      ESP Fit Center  397 is at   9.201162 -3.554642 -0.742048
      ESP Fit Center  398 is at  10.147678 -3.008171 -0.742048
      ESP Fit Center  399 is at   7.422294 -2.527612 -1.780346
      ESP Fit Center  400 is at   8.124824 -3.364855 -1.780346
      ESP Fit Center  401 is at   9.201162 -3.554642 -1.780346
      ESP Fit Center  402 is at  10.147678 -3.008171 -1.780346
      ESP Fit Center  403 is at   9.911190 -1.981141 -2.620346
      ESP Fit Center  404 is at   8.124824 -2.561567 -2.620346
      ESP Fit Center  405 is at   9.228859 -2.920290 -2.620346
      ESP Fit Center  406 is at   8.923711 -1.981141 -2.941197
      ESP Fit Center  407 is at   7.325558  0.945543 -1.775721
      ESP Fit Center  408 is at   6.623028 -0.984642 -1.775721
      ESP Fit Center  409 is at   8.429593  0.500978 -2.615721
      ESP Fit Center  410 is at   7.325558  0.142255 -2.615721
      ESP Fit Center  411 is at   7.325558 -1.018597 -2.615721
      ESP Fit Center  412 is at   8.124445 -0.438171 -2.936572
      ESP Fit Center  413 is at  10.447465 -0.268928  1.783748
      ESP Fit Center  414 is at  11.510480 -0.268928  1.541122
      ESP Fit Center  415 is at  10.978973  0.651670  1.541122
      ESP Fit Center  416 is at  10.978973 -1.189526  1.541122
      ESP Fit Center  417 is at  12.362952 -0.268928  0.861298
      ESP Fit Center  418 is at  12.058875  0.766663  0.861298
      ESP Fit Center  419 is at  11.243187 -2.011316  0.861298
      ESP Fit Center  420 is at  12.058875 -1.304519  0.861298
      ESP Fit Center  421 is at  12.836038 -0.268928 -0.121076
      ESP Fit Center  422 is at  12.599495  0.767435 -0.121076
      ESP Fit Center  423 is at  10.978973 -2.597615 -0.121076
      ESP Fit Center  424 is at  11.936716 -2.136390 -0.121076
      ESP Fit Center  425 is at  12.599495 -1.305291 -0.121076
      ESP Fit Center  426 is at  12.836038 -0.268928 -1.211428
      ESP Fit Center  427 is at  12.599495  0.767435 -1.211428
      ESP Fit Center  428 is at  10.978973 -2.597615 -1.211428
      ESP Fit Center  429 is at  11.936716 -2.136390 -1.211428
      ESP Fit Center  430 is at  12.599495 -1.305291 -1.211428
      ESP Fit Center  431 is at  12.362952 -0.268928 -2.193802
      ESP Fit Center  432 is at  12.058875  0.766663 -2.193802
      ESP Fit Center  433 is at  11.243187 -2.011316 -2.193802
      ESP Fit Center  434 is at  12.058875 -1.304519 -2.193802
      ESP Fit Center  435 is at  11.510480 -0.268928 -2.873626
      ESP Fit Center  436 is at  10.978973  0.651670 -2.873626
      ESP Fit Center  437 is at   9.384450 -0.268928 -2.873626
      ESP Fit Center  438 is at   9.915957 -1.189526 -2.873626
      ESP Fit Center  439 is at  10.978973 -1.189526 -2.873626
      ESP Fit Center  440 is at  10.447465 -0.268928 -3.116252
      ESP Fit Center  441 is at   9.798940  3.298319 -1.913017
      ESP Fit Center  442 is at  11.107761  1.498177 -2.681670
      ESP Fit Center  443 is at  12.005777  1.957481  0.294503
      ESP Fit Center  444 is at  12.616073  1.957481 -0.545497
      ESP Fit Center  445 is at  12.242265  2.984511 -0.545497
      ESP Fit Center  446 is at  11.295749  3.530982 -0.545497
      ESP Fit Center  447 is at  12.616073  1.957481 -1.583795
      ESP Fit Center  448 is at  12.242265  2.984511 -1.583795
      ESP Fit Center  449 is at  11.295749  3.530982 -1.583795
      ESP Fit Center  450 is at  12.005777  1.957481 -2.423795
      ESP Fit Center  451 is at  11.323446  2.896630 -2.423795
      ESP Fit Center  452 is at  11.018298  1.957481 -2.744646
      ESP Fit Center  453 is at   7.954787  2.169891 -1.236753
      ESP Fit Center  454 is at   9.733655  3.196921 -2.275051
      ESP Fit Center  455 is at   8.657317  3.007134 -2.275051
      ESP Fit Center  456 is at   7.954787  2.169891 -2.275051
      ESP Fit Center  457 is at   7.954787  1.076949 -2.275051
      ESP Fit Center  458 is at  10.443683  1.623420 -3.115051
      ESP Fit Center  459 is at   9.761352  2.562569 -3.115051
      ESP Fit Center  460 is at   8.657317  2.203846 -3.115051
      ESP Fit Center  461 is at   8.657317  1.042994 -3.115051
      ESP Fit Center  462 is at   9.761352  0.684271 -3.115051
      ESP Fit Center  463 is at   9.456204  1.623420 -3.435902
      ESP Fit Center  464 is at   8.874472  3.086071  2.152578
      ESP Fit Center  465 is at  11.258930  3.152663  0.333925
      ESP Fit Center  466 is at   7.654487  2.689118 -0.716075
      ESP Fit Center  467 is at   9.600152  4.180412  1.503438
      ESP Fit Center  468 is at   8.496117  3.821689  1.503438
      ESP Fit Center  469 is at  10.518971  4.268293  0.663438
      ESP Fit Center  470 is at   9.572455  4.814764  0.663438
      ESP Fit Center  471 is at   8.496117  4.624977  0.663438
      ESP Fit Center  472 is at   7.793587  3.787734  0.663438
      ESP Fit Center  473 is at  10.518971  4.268293 -0.374860
      ESP Fit Center  474 is at   9.572455  4.814764 -0.374860
      ESP Fit Center  475 is at   8.496117  4.624977 -0.374860
      ESP Fit Center  476 is at   7.793587  3.787734 -0.374860
      ESP Fit Center  477 is at   9.600152  4.180412 -1.214860
      ESP Fit Center  478 is at   8.496117  3.821689 -1.214860
      ESP Fit Center  479 is at   8.407517  1.782130  2.204577
      ESP Fit Center  480 is at   7.608630  2.362556  1.883726
      ESP Fit Center  481 is at   7.608630  1.201704  1.883726
      ESP Fit Center  482 is at   7.608630  3.165844  1.043726
      ESP Fit Center  483 is at   6.906100  2.328601  1.043726
      ESP Fit Center  484 is at   6.906100  1.235659  1.043726
      ESP Fit Center  485 is at   6.906100  2.328601  0.005428
      ESP Fit Center  486 is at   7.608630  2.362556 -0.834572
      ESP Fit Center  487 is at   7.608630  1.201704 -0.834572
      ESP Fit Center  488 is at   9.993209  2.046173  2.911196
      ESP Fit Center  489 is at  10.980688  2.046173  2.590345
      ESP Fit Center  490 is at  10.298357  2.985322  2.590345
      ESP Fit Center  491 is at   9.194322  2.626599  2.590345
      ESP Fit Center  492 is at   9.194322  1.465747  2.590345
      ESP Fit Center  493 is at  10.298357  1.107024  2.590345
      ESP Fit Center  494 is at  11.590984  2.046173  1.750345
      ESP Fit Center  495 is at  11.217176  3.073203  1.750345
      ESP Fit Center  496 is at  10.270660  3.619674  1.750345
      ESP Fit Center  497 is at  10.270660  0.472672  1.750345
      ESP Fit Center  498 is at  11.217176  1.019143  1.750345
      ESP Fit Center  499 is at  11.590984  2.046173  0.712047
      ESP Fit Center  500 is at  -5.346755  1.572806 -0.788624
      ESP Fit Center  501 is at  -7.585096  5.108985 -1.750950
      ESP Fit Center  502 is at  -8.466065  3.279635 -1.750950
      ESP Fit Center  503 is at  -8.234349  2.264422 -1.750950
      ESP Fit Center  504 is at  -7.585096  1.450285 -1.750950
      ESP Fit Center  505 is at  -8.234349  2.264422 -2.819050
      ESP Fit Center  506 is at  -7.355016  1.861550 -3.781376
      ESP Fit Center  507 is at  -6.646898  2.377825 -4.447325
      ESP Fit Center  508 is at  -6.126238  3.279635 -4.685000
      ESP Fit Center  509 is at  -6.381671  0.703039 -1.668983
      ESP Fit Center  510 is at  -5.354023  0.703039 -1.668983
      ESP Fit Center  511 is at  -7.530616  1.324426 -2.628983
      ESP Fit Center  512 is at  -6.827847  0.621657 -2.628983
      ESP Fit Center  513 is at  -5.867847  0.364426 -2.628983
      ESP Fit Center  514 is at  -4.907847  0.621657 -2.628983
      ESP Fit Center  515 is at  -4.205078  1.324426 -2.628983
      ESP Fit Center  516 is at  -7.213055  1.307075 -3.588983
      ESP Fit Center  517 is at  -6.381671  0.703039 -3.588983
      ESP Fit Center  518 is at  -5.354023  0.703039 -3.588983
      ESP Fit Center  519 is at  -4.522639  1.307075 -3.588983
      ESP Fit Center  520 is at  -4.907847  2.284426 -4.291752
      ESP Fit Center  521 is at  -6.347847  1.453042 -4.291752
      ESP Fit Center  522 is at  -5.387847  1.453042 -4.291752
      ESP Fit Center  523 is at  -5.867847  2.284426 -4.548983
      ESP Fit Center  524 is at  -6.511790  3.202254  0.645411
      ESP Fit Center  525 is at  -5.551790  3.202254  0.388180
      ESP Fit Center  526 is at  -6.031790  4.033638  0.388180
      ESP Fit Center  527 is at  -6.991790  4.033638  0.388180
      ESP Fit Center  528 is at  -7.471790  3.202254  0.388180
      ESP Fit Center  529 is at  -6.991790  2.370870  0.388180
      ESP Fit Center  530 is at  -6.031790  2.370870  0.388180
      ESP Fit Center  531 is at  -7.025614  4.783641 -0.314589
      ESP Fit Center  532 is at  -7.856998  4.179605 -0.314589
      ESP Fit Center  533 is at  -8.174559  3.202254 -0.314589
      ESP Fit Center  534 is at  -7.856998  2.224903 -0.314589
      ESP Fit Center  535 is at  -7.025614  1.620867 -0.314589
      ESP Fit Center  536 is at  -5.997966  1.620867 -0.314589
      ESP Fit Center  537 is at  -8.174559  4.162254 -1.274589
      ESP Fit Center  538 is at  -8.431790  3.202254 -1.274589
      ESP Fit Center  539 is at  -8.174559  2.242254 -1.274589
      ESP Fit Center  540 is at  -7.471790  1.539485 -1.274589
      ESP Fit Center  541 is at  -8.255619  4.649985 -1.964381
      ESP Fit Center  542 is at  -8.573180  3.672634 -1.964381
      ESP Fit Center  543 is at  -6.910411  5.592634 -2.924381
      ESP Fit Center  544 is at  -7.870411  5.335403 -2.924381
      ESP Fit Center  545 is at  -8.573180  4.632634 -2.924381
      ESP Fit Center  546 is at  -8.830411  3.672634 -2.924381
      ESP Fit Center  547 is at  -8.573180  2.712634 -2.924381
      ESP Fit Center  548 is at  -6.396587  5.254021 -3.884381
      ESP Fit Center  549 is at  -7.424235  5.254021 -3.884381
      ESP Fit Center  550 is at  -8.255619  4.649985 -3.884381
      ESP Fit Center  551 is at  -8.573180  3.672634 -3.884381
      ESP Fit Center  552 is at  -8.255619  2.695283 -3.884381
      ESP Fit Center  553 is at  -6.430411  4.504018 -4.587150
      ESP Fit Center  554 is at  -7.390411  4.504018 -4.587150
      ESP Fit Center  555 is at  -7.870411  3.672634 -4.587150
      ESP Fit Center  556 is at  -7.390411  2.841250 -4.587150
      ESP Fit Center  557 is at  -6.910411  3.672634 -4.844381
      ESP Fit Center  558 is at  -5.176910  6.040874 -3.816466
      ESP Fit Center  559 is at  -6.138649  5.601662 -3.816466
      ESP Fit Center  560 is at  -3.567248  5.932089 -3.335861
      ESP Fit Center  561 is at  -2.864479  4.269320 -4.295861
      ESP Fit Center  562 is at  -3.182040  5.246671 -4.295861
      ESP Fit Center  563 is at  -4.013424  5.850707 -4.295861
      ESP Fit Center  564 is at  -5.041072  5.850707 -4.295861
      ESP Fit Center  565 is at  -5.872456  5.246671 -4.295861
      ESP Fit Center  566 is at  -4.013424  2.687933 -4.295861
      ESP Fit Center  567 is at  -3.182040  3.291969 -4.295861
      ESP Fit Center  568 is at  -3.567248  4.269320 -4.998630
      ESP Fit Center  569 is at  -4.047248  5.100704 -4.998630
      ESP Fit Center  570 is at  -5.007248  5.100704 -4.998630
      ESP Fit Center  571 is at  -5.487248  4.269320 -4.998630
      ESP Fit Center  572 is at  -5.007248  3.437936 -4.998630
      ESP Fit Center  573 is at  -4.047248  3.437936 -4.998630
      ESP Fit Center  574 is at  -4.527248  4.269320 -5.255861
      ESP Fit Center  575 is at  -5.171325  5.186896 -0.065440
      ESP Fit Center  576 is at  -4.691325  6.018280 -0.322671
      ESP Fit Center  577 is at  -5.651325  6.018280 -0.322671
      ESP Fit Center  578 is at  -6.131325  5.186896 -0.322671
      ESP Fit Center  579 is at  -4.657501  6.768283 -1.025440
      ESP Fit Center  580 is at  -5.685149  6.768283 -1.025440
      ESP Fit Center  581 is at  -6.516533  6.164247 -1.025440
      ESP Fit Center  582 is at  -4.211325  6.849665 -1.985440
      ESP Fit Center  583 is at  -5.171325  7.106896 -1.985440
      ESP Fit Center  584 is at  -6.131325  6.849665 -1.985440
      ESP Fit Center  585 is at  -6.834094  6.146896 -1.985440
      ESP Fit Center  586 is at  -4.657501  6.768283 -2.945440
      ESP Fit Center  587 is at  -5.685149  6.768283 -2.945440
      ESP Fit Center  588 is at  -6.516533  6.164247 -2.945440
      ESP Fit Center  589 is at  -4.413179  4.484839  0.533862
      ESP Fit Center  590 is at  -4.899129  3.643149  0.533862
      ESP Fit Center  591 is at  -4.413179  2.801459  0.533862
      ESP Fit Center  592 is at  -3.386047  1.977561 -2.880925
      ESP Fit Center  593 is at  -0.638384  5.398771 -1.951693
      ESP Fit Center  594 is at  -1.287637  6.212908 -1.951693
      ESP Fit Center  595 is at  -2.939427  5.363427  0.941034
      ESP Fit Center  596 is at  -2.459427  6.194811  0.683803
      ESP Fit Center  597 is at  -3.419427  6.194811  0.683803
      ESP Fit Center  598 is at  -3.899427  5.363427  0.683803
      ESP Fit Center  599 is at  -1.594219  6.340778 -0.018966
      ESP Fit Center  600 is at  -2.425603  6.944814 -0.018966
      ESP Fit Center  601 is at  -3.453251  6.944814 -0.018966
      ESP Fit Center  602 is at  -4.284635  6.340778 -0.018966
      ESP Fit Center  603 is at  -4.602196  5.363427 -0.018966
      ESP Fit Center  604 is at  -1.276658  6.323427 -0.978966
      ESP Fit Center  605 is at  -1.979427  7.026196 -0.978966
      ESP Fit Center  606 is at  -2.939427  7.283427 -0.978966
      ESP Fit Center  607 is at  -3.899427  7.026196 -0.978966
      ESP Fit Center  608 is at  -2.425603  6.944814 -1.938966
      ESP Fit Center  609 is at  -3.453251  6.944814 -1.938966
      ESP Fit Center  610 is at  -0.413432  4.535880 -2.412400
      ESP Fit Center  611 is at  -0.670663  5.495880 -2.412400
      ESP Fit Center  612 is at  -1.373432  6.198649 -2.412400
      ESP Fit Center  613 is at  -0.670663  4.535880 -3.372400
      ESP Fit Center  614 is at  -0.988224  5.513231 -3.372400
      ESP Fit Center  615 is at  -1.819608  6.117267 -3.372400
      ESP Fit Center  616 is at  -2.847256  6.117267 -3.372400
      ESP Fit Center  617 is at  -2.847256  2.954493 -3.372400
      ESP Fit Center  618 is at  -1.819608  2.954493 -3.372400
      ESP Fit Center  619 is at  -0.988224  3.558529 -3.372400
      ESP Fit Center  620 is at  -1.373432  4.535880 -4.075169
      ESP Fit Center  621 is at  -1.853432  5.367264 -4.075169
      ESP Fit Center  622 is at  -2.813432  5.367264 -4.075169
      ESP Fit Center  623 is at  -2.813432  3.704496 -4.075169
      ESP Fit Center  624 is at  -1.853432  3.704496 -4.075169
      ESP Fit Center  625 is at  -2.333432  4.535880 -4.332400
      ESP Fit Center  626 is at  -0.691991  3.645742  1.595445
      ESP Fit Center  627 is at  -2.000351  5.503039  0.929496
      ESP Fit Center  628 is at   0.075322  4.298609  1.268384
      ESP Fit Center  629 is at  -0.404678  5.129993  1.268384
      ESP Fit Center  630 is at   0.778091  4.298609  0.565615
      ESP Fit Center  631 is at   0.460530  5.275960  0.565615
      ESP Fit Center  632 is at  -0.370854  5.879996  0.565615
      ESP Fit Center  633 is at  -1.398502  5.879996  0.565615
      ESP Fit Center  634 is at   0.460530  3.321258  0.565615
      ESP Fit Center  635 is at   1.035322  4.298609 -0.394385
      ESP Fit Center  636 is at   0.778091  5.258609 -0.394385
      ESP Fit Center  637 is at   0.075322  5.961378 -0.394385
      ESP Fit Center  638 is at  -0.884678  6.218609 -0.394385
      ESP Fit Center  639 is at   0.778091  4.298609 -1.354385
      ESP Fit Center  640 is at   0.460530  5.275960 -1.354385
      ESP Fit Center  641 is at  -0.370854  5.879996 -1.354385
      ESP Fit Center  642 is at   0.075322  4.298609 -2.057154
      ESP Fit Center  643 is at  -0.404678  5.129993 -2.057154
      ESP Fit Center  644 is at  -2.174465  3.410617  2.317772
      ESP Fit Center  645 is at  -1.214465  3.410617  2.060541
      ESP Fit Center  646 is at  -1.694465  4.242001  2.060541
      ESP Fit Center  647 is at  -2.654465  4.242001  2.060541
      ESP Fit Center  648 is at  -3.134465  3.410617  2.060541
      ESP Fit Center  649 is at  -2.654465  2.579233  2.060541
      ESP Fit Center  650 is at  -2.688289  4.992004  1.357772
      ESP Fit Center  651 is at  -3.519673  4.387968  1.357772
      ESP Fit Center  652 is at  -3.837234  3.410617  1.357772
      ESP Fit Center  653 is at  -3.519673  2.433266  1.357772
      ESP Fit Center  654 is at   0.687494  3.512940 -1.698386
      ESP Fit Center  655 is at   0.505104  2.498060 -2.596556
      ESP Fit Center  656 is at   0.170635  3.527450 -2.596556
      ESP Fit Center  657 is at   0.170635  1.468670 -2.596556
      ESP Fit Center  658 is at  -0.274299  2.498060 -3.218109
      ESP Fit Center  659 is at  -0.760249  3.339750 -3.218109
      ESP Fit Center  660 is at  -2.218099  2.498060 -3.218109
      ESP Fit Center  661 is at  -0.760249  1.656370 -3.218109
      ESP Fit Center  662 is at  -1.246199  2.498060 -3.439939
      ESP Fit Center  663 is at  -3.340480 -0.550064 -1.439640
      ESP Fit Center  664 is at  -3.682010  0.750644 -2.401966
      ESP Fit Center  665 is at  -2.744643 -1.004868 -1.787132
      ESP Fit Center  666 is at  -1.784643 -1.262099 -1.787132
      ESP Fit Center  667 is at  -0.121874  0.657901 -2.747132
      ESP Fit Center  668 is at  -3.447412  0.657901 -2.747132
      ESP Fit Center  669 is at  -3.129851 -0.319450 -2.747132
      ESP Fit Center  670 is at  -2.298467 -0.923486 -2.747132
      ESP Fit Center  671 is at  -1.270819 -0.923486 -2.747132
      ESP Fit Center  672 is at  -0.439435 -0.319450 -2.747132
      ESP Fit Center  673 is at  -0.824643  0.657901 -3.449901
      ESP Fit Center  674 is at  -1.304643  1.489285 -3.449901
      ESP Fit Center  675 is at  -2.264643  1.489285 -3.449901
      ESP Fit Center  676 is at  -2.744643  0.657901 -3.449901
      ESP Fit Center  677 is at  -2.264643 -0.173483 -3.449901
      ESP Fit Center  678 is at  -1.304643 -0.173483 -3.449901
      ESP Fit Center  679 is at  -1.784643  0.657901 -3.707132
      ESP Fit Center  680 is at  -3.896915  1.436506  0.945583
      ESP Fit Center  681 is at  -4.599684  1.436506  0.242814
      ESP Fit Center  682 is at  -4.282123  0.459155  0.242814
      ESP Fit Center  683 is at  -4.856915  1.436506 -0.717186
      ESP Fit Center  684 is at  -4.599684  0.476506 -0.717186
      ESP Fit Center  685 is at  -3.896915 -0.226263 -0.717186
      ESP Fit Center  686 is at  -4.282123  0.459155 -1.677186
      ESP Fit Center  687 is at  -3.896915  1.436506 -2.379955
      ESP Fit Center  688 is at  -0.733707 -0.347261  2.436191
      ESP Fit Center  689 is at  -3.054755  1.083191  1.770242
      ESP Fit Center  690 is at  -1.521406 -1.302748 -1.222510
      ESP Fit Center  691 is at  -1.892770 -0.280125  2.461523
      ESP Fit Center  692 is at  -2.852770 -0.280125  2.204292
      ESP Fit Center  693 is at  -2.372770 -1.111509  2.204292
      ESP Fit Center  694 is at  -1.412770 -1.111509  2.204292
      ESP Fit Center  695 is at  -3.555539 -0.280125  1.501523
      ESP Fit Center  696 is at  -3.237978 -1.257476  1.501523
      ESP Fit Center  697 is at  -2.406594 -1.861512  1.501523
      ESP Fit Center  698 is at  -1.378946 -1.861512  1.501523
      ESP Fit Center  699 is at  -3.812770 -0.280125  0.541523
      ESP Fit Center  700 is at  -3.555539 -1.240125  0.541523
      ESP Fit Center  701 is at  -2.852770 -1.942894  0.541523
      ESP Fit Center  702 is at  -1.892770 -2.200125  0.541523
      ESP Fit Center  703 is at  -3.237978 -1.257476 -0.418477
      ESP Fit Center  704 is at  -2.406594 -1.861512 -0.418477
      ESP Fit Center  705 is at  -1.378946 -1.861512 -0.418477
      ESP Fit Center  706 is at  -2.372770 -1.111509 -1.121246
      ESP Fit Center  707 is at  -1.194938  1.215567  3.057589
      ESP Fit Center  708 is at  -0.234938  1.215567  2.800358
      ESP Fit Center  709 is at  -0.714938  2.046951  2.800358
      ESP Fit Center  710 is at  -1.674938  2.046951  2.800358
      ESP Fit Center  711 is at  -2.154938  1.215567  2.800358
      ESP Fit Center  712 is at  -1.674938  0.384183  2.800358
      ESP Fit Center  713 is at  -0.714938  0.384183  2.800358
      ESP Fit Center  714 is at  -0.681114  2.796954  2.097589
      ESP Fit Center  715 is at  -2.540146  2.192918  2.097589
      ESP Fit Center  716 is at  -2.857707  1.215567  2.097589
      ESP Fit Center  717 is at   0.485950 -0.841690  2.018170
      ESP Fit Center  718 is at  -0.541182 -1.665588  1.396617
      ESP Fit Center  719 is at   0.541182 -1.665588  1.396617
      ESP Fit Center  720 is at  -0.774400 -2.041924  0.498447
      ESP Fit Center  721 is at   0.263233 -2.167916  0.498447
      ESP Fit Center  722 is at  -0.774400 -2.041924 -0.498447
      ESP Fit Center  723 is at   0.263233 -2.167916 -0.498447
      ESP Fit Center  724 is at  -0.541182 -1.665588 -1.396617
      ESP Fit Center  725 is at   0.541182 -1.665588 -1.396617
      ESP Fit Center  726 is at  -0.485950 -0.841690 -2.018170
      ESP Fit Center  727 is at   0.485950 -0.841690 -2.018170
      ESP Fit Center  728 is at   0.000000  0.000000 -2.240000
      ESP Fit Center  729 is at   1.076235  1.499334  2.808518
      ESP Fit Center  730 is at   2.036235  1.499334  2.551287
      ESP Fit Center  731 is at   1.556235  2.330718  2.551287
      ESP Fit Center  732 is at   0.596235  2.330718  2.551287
      ESP Fit Center  733 is at   0.116235  1.499334  2.551287
      ESP Fit Center  734 is at   0.596235  0.667950  2.551287
      ESP Fit Center  735 is at   1.556235  0.667950  2.551287
      ESP Fit Center  736 is at   1.590059  3.080721  1.848518
      ESP Fit Center  737 is at   0.562411  3.080721  1.848518
      ESP Fit Center  738 is at   2.036235  3.162103  0.888518
      ESP Fit Center  739 is at   1.076235  3.419334  0.888518
      ESP Fit Center  740 is at   0.116235  3.162103  0.888518
      ESP Fit Center  741 is at   2.041600  3.181099 -0.866556
      ESP Fit Center  742 is at   1.081600  3.438330 -0.866556
      ESP Fit Center  743 is at   1.595424  3.099717 -1.826556
      ESP Fit Center  744 is at   2.041600  1.518330 -2.529325
      ESP Fit Center  745 is at   1.561600  2.349714 -2.529325
      ESP Fit Center  746 is at   0.601600  2.349714 -2.529325
      ESP Fit Center  747 is at   0.601600  0.686946 -2.529325
      ESP Fit Center  748 is at   1.561600  0.686946 -2.529325
      ESP Fit Center  749 is at   1.081600  1.518330 -2.786556
      ESP Fit Center  750 is at   1.398770 -2.266580 -0.898846
      ESP Fit Center  751 is at   2.358770 -2.523811 -0.898846
      ESP Fit Center  752 is at   3.318770 -2.266580 -0.898846
      ESP Fit Center  753 is at   1.013562 -1.581162 -1.858846
      ESP Fit Center  754 is at   1.844946 -2.185198 -1.858846
      ESP Fit Center  755 is at   2.872594 -2.185198 -1.858846
      ESP Fit Center  756 is at   3.318770 -0.603811 -2.561615
      ESP Fit Center  757 is at   2.838770  0.227573 -2.561615
      ESP Fit Center  758 is at   1.878770  0.227573 -2.561615
      ESP Fit Center  759 is at   1.398770 -0.603811 -2.561615
      ESP Fit Center  760 is at   1.878770 -1.435195 -2.561615
      ESP Fit Center  761 is at   2.838770 -1.435195 -2.561615
      ESP Fit Center  762 is at   2.358770 -0.603811 -2.818846
      ESP Fit Center  763 is at   2.313570 -0.659722  2.776526
      ESP Fit Center  764 is at   3.273570 -0.659722  2.519295
      ESP Fit Center  765 is at   2.793570  0.171662  2.519295
      ESP Fit Center  766 is at   1.833570  0.171662  2.519295
      ESP Fit Center  767 is at   1.353570 -0.659722  2.519295
      ESP Fit Center  768 is at   1.833570 -1.491106  2.519295
      ESP Fit Center  769 is at   2.793570 -1.491106  2.519295
      ESP Fit Center  770 is at   0.968362 -1.637073  1.816526
      ESP Fit Center  771 is at   1.799746 -2.241109  1.816526
      ESP Fit Center  772 is at   1.353570 -2.322491  0.856526
      ESP Fit Center  773 is at   2.313570 -2.579722  0.856526
      ESP Fit Center  774 is at   3.830935  1.047209  2.847416
      ESP Fit Center  775 is at   4.366692  1.975167  2.634279
      ESP Fit Center  776 is at   3.295178  1.975167  2.634279
      ESP Fit Center  777 is at   2.759421  1.047209  2.634279
      ESP Fit Center  778 is at   3.295178  0.119251  2.634279
      ESP Fit Center  779 is at   5.545578  2.037158  2.027315
      ESP Fit Center  780 is at   4.820884  2.761852  2.027315
      ESP Fit Center  781 is at   3.830935  3.027108  2.027315
      ESP Fit Center  782 is at   2.840986  2.761852  2.027315
      ESP Fit Center  783 is at   6.194152  2.099381  1.118930
      ESP Fit Center  784 is at   5.561884  2.969623  1.118930
      ESP Fit Center  785 is at   4.630320  3.507462  1.118930
      ESP Fit Center  786 is at   3.560534  3.619901  1.118930
      ESP Fit Center  787 is at   2.537504  3.287498  1.118930
      ESP Fit Center  788 is at   5.900160  2.933557  0.047416
      ESP Fit Center  789 is at   5.079002  3.553666  0.047416
      ESP Fit Center  790 is at   4.089286  3.835265  0.047416
      ESP Fit Center  791 is at   3.064679  3.740321  0.047416
      ESP Fit Center  792 is at   2.143558  3.281657  0.047416
      ESP Fit Center  793 is at   5.561884  2.969623 -1.024098
      ESP Fit Center  794 is at   4.630320  3.507462 -1.024098
      ESP Fit Center  795 is at   3.560534  3.619901 -1.024098
      ESP Fit Center  796 is at   2.537504  3.287498 -1.024098
      ESP Fit Center  797 is at   5.545578  2.037158 -1.932483
      ESP Fit Center  798 is at   4.820884  2.761852 -1.932483
      ESP Fit Center  799 is at   3.830935  3.027108 -1.932483
      ESP Fit Center  800 is at   2.840986  2.761852 -1.932483
      ESP Fit Center  801 is at   4.902449  1.047209 -2.539447
      ESP Fit Center  802 is at   4.366692  1.975167 -2.539447
      ESP Fit Center  803 is at   3.295178  1.975167 -2.539447
      ESP Fit Center  804 is at   2.759421  1.047209 -2.539447
      ESP Fit Center  805 is at   3.295178  0.119251 -2.539447
      ESP Fit Center  806 is at   3.830935  1.047209 -2.752584
      ESP Fit Center  807 is at   5.663891  0.725872 -2.411508
      ESP Fit Center  808 is at   3.934063 -2.429986 -1.121143
      ESP Fit Center  809 is at   3.548855 -1.744568 -2.081143
      ESP Fit Center  810 is at   4.380239 -2.348604 -2.081143
      ESP Fit Center  811 is at   5.407887 -2.348604 -2.081143
      ESP Fit Center  812 is at   6.239271 -1.744568 -2.081143
      ESP Fit Center  813 is at   5.854063 -0.767217 -2.783912
      ESP Fit Center  814 is at   5.374063  0.064167 -2.783912
      ESP Fit Center  815 is at   4.414063  0.064167 -2.783912
      ESP Fit Center  816 is at   3.934063 -0.767217 -2.783912
      ESP Fit Center  817 is at   4.414063 -1.598601 -2.783912
      ESP Fit Center  818 is at   5.374063 -1.598601 -2.783912
      ESP Fit Center  819 is at   4.894063 -0.767217 -3.041143
      ESP Fit Center  820 is at   6.496993  1.244143  1.166024
      ESP Fit Center  821 is at   7.362201  1.390110 -1.456745
      ESP Fit Center  822 is at   6.530817  1.994146 -1.456745
      ESP Fit Center  823 is at   6.496993  1.244143 -2.159514
      ESP Fit Center  824 is at   6.016993  0.412759 -2.416745
      ESP Fit Center  825 is at   4.387941 -1.077871  3.111097
      ESP Fit Center  826 is at   4.908602 -1.979681  3.111097
      ESP Fit Center  827 is at   4.544804 -1.642911  3.133152
      ESP Fit Center  828 is at   3.584804 -1.642911  2.875921
      ESP Fit Center  829 is at   4.064804 -2.474295  2.875921
      ESP Fit Center  830 is at   3.199596 -2.620262  2.173152
      ESP Fit Center  831 is at   4.030980 -3.224298  2.173152
      ESP Fit Center  832 is at   2.882035 -2.602911  1.213152
      ESP Fit Center  833 is at   3.584804 -3.305680  1.213152
      ESP Fit Center  834 is at   3.199596 -2.620262  0.253152
      ESP Fit Center  835 is at   4.030980 -3.224298  0.253152
      ESP Fit Center  836 is at   4.064804 -2.474295 -0.449617
      ESP Fit Center  837 is at   5.700143 -0.485951  3.733648
      ESP Fit Center  838 is at   6.660143 -0.485951  3.476417
      ESP Fit Center  839 is at   6.180143  0.345433  3.476417
      ESP Fit Center  840 is at   5.220143  0.345433  3.476417
      ESP Fit Center  841 is at   4.740143 -0.485951  3.476417
      ESP Fit Center  842 is at   5.220143 -1.317335  3.476417
      ESP Fit Center  843 is at   6.180143 -1.317335  3.476417
      ESP Fit Center  844 is at   7.045351  0.491400  2.773648
      ESP Fit Center  845 is at   6.213967  1.095436  2.773648
      ESP Fit Center  846 is at   5.186319  1.095436  2.773648
      ESP Fit Center  847 is at   4.354935  0.491400  2.773648
      ESP Fit Center  848 is at   6.660143  1.176818  1.813648
      ESP Fit Center  849 is at   6.702997 -2.346705  3.462989
      ESP Fit Center  850 is at   7.774511 -2.346705  3.249852
      ESP Fit Center  851 is at   7.238754 -1.418747  3.249852
      ESP Fit Center  852 is at   5.631483 -2.346705  3.249852
      ESP Fit Center  853 is at   6.167240 -3.274663  3.249852
      ESP Fit Center  854 is at   7.238754 -3.274663  3.249852
      ESP Fit Center  855 is at   4.988354 -3.336654  2.642888
      ESP Fit Center  856 is at   5.713048 -4.061348  2.642888
      ESP Fit Center  857 is at   6.702997 -4.326604  2.642888
      ESP Fit Center  858 is at   7.692946 -4.061348  2.642888
      ESP Fit Center  859 is at   8.417640 -3.336654  2.642888
      ESP Fit Center  860 is at   4.610181 -3.867225  1.734503
      ESP Fit Center  861 is at   5.409566 -4.586994  1.734503
      ESP Fit Center  862 is at   6.432596 -4.919397  1.734503
      ESP Fit Center  863 is at   7.502382 -4.806958  1.734503
      ESP Fit Center  864 is at   8.433946 -4.269119  1.734503
      ESP Fit Center  865 is at   4.322389 -3.820715  0.662989
      ESP Fit Center  866 is at   5.015620 -4.581153  0.662989
      ESP Fit Center  867 is at   5.936741 -5.039817  0.662989
      ESP Fit Center  868 is at   6.961348 -5.134761  0.662989
      ESP Fit Center  869 is at   7.951064 -4.853162  0.662989
      ESP Fit Center  870 is at   8.772222 -4.233053  0.662989
      ESP Fit Center  871 is at   4.172663 -2.884544 -0.408525
      ESP Fit Center  872 is at   4.610181 -3.867225 -0.408525
      ESP Fit Center  873 is at   5.409566 -4.586994 -0.408525
      ESP Fit Center  874 is at   6.432596 -4.919397 -0.408525
      ESP Fit Center  875 is at   7.502382 -4.806958 -0.408525
      ESP Fit Center  876 is at   8.433946 -4.269119 -0.408525
      ESP Fit Center  877 is at   4.988354 -3.336654 -1.316910
      ESP Fit Center  878 is at   5.713048 -4.061348 -1.316910
      ESP Fit Center  879 is at   6.702997 -4.326604 -1.316910
      ESP Fit Center  880 is at   7.692946 -4.061348 -1.316910
      ESP Fit Center  881 is at   6.167240 -3.274663 -1.923874
      ESP Fit Center  882 is at   7.238754 -3.274663 -1.923874
      ESP Fit Center  883 is at   6.702997 -2.346705 -2.137011
      ESP Fit Center  884 is at   8.260140 -1.393625  3.092502
      ESP Fit Center  885 is at   9.838664 -0.379169  2.188878
      ESP Fit Center  886 is at   8.977515 -2.005350  3.142791
      ESP Fit Center  887 is at   9.937515 -2.005350  2.885560
      ESP Fit Center  888 is at   9.457515 -1.173966  2.885560
      ESP Fit Center  889 is at   8.497515 -2.836734  2.885560
      ESP Fit Center  890 is at   9.457515 -2.836734  2.885560
      ESP Fit Center  891 is at  10.640284 -2.005350  2.182791
      ESP Fit Center  892 is at  10.322723 -1.027999  2.182791
      ESP Fit Center  893 is at   9.491339 -3.586737  2.182791
      ESP Fit Center  894 is at  10.322723 -2.982701  2.182791
      ESP Fit Center  895 is at   8.977515 -3.925350  1.222791
      ESP Fit Center  896 is at   9.937515 -3.668119  1.222791
      ESP Fit Center  897 is at  10.640284 -2.965350  1.222791
      ESP Fit Center  898 is at   9.491339 -3.586737  0.262791
      ESP Fit Center  899 is at  10.322723 -2.982701  0.262791
      ESP Fit Center  900 is at   8.111430 -0.500045  3.203789
      ESP Fit Center  901 is at   9.071430 -0.500045  2.946558
      ESP Fit Center  902 is at   8.591430  0.331339  2.946558
      ESP Fit Center  903 is at   7.631430  0.331339  2.946558
      ESP Fit Center  904 is at   9.456638  0.477306  2.243789
      ESP Fit Center  905 is at   7.597606  1.081342  2.243789
      ESP Fit Center  906 is at   8.806317 -1.065366 -3.097403
      ESP Fit Center  907 is at   9.437535 -3.562528 -0.301197
      ESP Fit Center  908 is at   8.923711 -3.901141 -1.261197
      ESP Fit Center  909 is at   9.883711 -3.643910 -1.261197
      ESP Fit Center  910 is at   7.578503 -2.958492 -2.221197
      ESP Fit Center  911 is at   8.409887 -3.562528 -2.221197
      ESP Fit Center  912 is at   9.437535 -3.562528 -2.221197
      ESP Fit Center  913 is at  10.268919 -2.958492 -2.221197
      ESP Fit Center  914 is at   9.883711 -1.981141 -2.923966
      ESP Fit Center  915 is at   7.963711 -1.981141 -2.923966
      ESP Fit Center  916 is at   8.443711 -2.812525 -2.923966
      ESP Fit Center  917 is at   9.403711 -2.812525 -2.923966
      ESP Fit Center  918 is at   8.923711 -1.981141 -3.181197
      ESP Fit Center  919 is at   7.610621  1.143216 -2.216572
      ESP Fit Center  920 is at   6.779237 -1.415522 -2.216572
      ESP Fit Center  921 is at   7.644445  0.393213 -2.919341
      ESP Fit Center  922 is at   7.164445 -0.438171 -2.919341
      ESP Fit Center  923 is at   7.644445 -1.269555 -2.919341
      ESP Fit Center  924 is at   8.124445 -0.438171 -3.176572
      ESP Fit Center  925 is at  10.447465 -0.268928  2.133748
      ESP Fit Center  926 is at  11.518979 -0.268928  1.920611
      ESP Fit Center  927 is at  10.983222 -1.196886  1.920611
      ESP Fit Center  928 is at  12.427364 -0.268928  1.313647
      ESP Fit Center  929 is at  12.162108  0.721021  1.313647
      ESP Fit Center  930 is at  11.437414 -1.983571  1.313647
      ESP Fit Center  931 is at  12.162108 -1.258877  1.313647
      ESP Fit Center  932 is at  13.034328 -0.268928  0.405262
      ESP Fit Center  933 is at  12.810682  0.783244  0.405262
      ESP Fit Center  934 is at  11.246850 -2.729181  0.405262
      ESP Fit Center  935 is at  12.178414 -2.191342  0.405262
      ESP Fit Center  936 is at  12.810682 -1.321100  0.405262
      ESP Fit Center  937 is at  13.247465 -0.268928 -0.666252
      ESP Fit Center  938 is at  13.058387  0.742549 -0.666252
      ESP Fit Center  939 is at  10.705816 -3.056984 -0.666252
      ESP Fit Center  940 is at  11.695532 -2.775385 -0.666252
      ESP Fit Center  941 is at  12.516690 -2.155276 -0.666252
      ESP Fit Center  942 is at  13.058387 -1.280405 -0.666252
      ESP Fit Center  943 is at  13.034328 -0.268928 -1.737766
      ESP Fit Center  944 is at  12.810682  0.783244 -1.737766
      ESP Fit Center  945 is at  11.246850 -2.729181 -1.737766
      ESP Fit Center  946 is at  12.178414 -2.191342 -1.737766
      ESP Fit Center  947 is at  12.810682 -1.321100 -1.737766
      ESP Fit Center  948 is at  12.427364 -0.268928 -2.646151
      ESP Fit Center  949 is at  12.162108  0.721021 -2.646151
      ESP Fit Center  950 is at  10.447465 -2.248827 -2.646151
      ESP Fit Center  951 is at  11.437414 -1.983571 -2.646151
      ESP Fit Center  952 is at  12.162108 -1.258877 -2.646151
      ESP Fit Center  953 is at  11.518979 -0.268928 -3.253115
      ESP Fit Center  954 is at  10.983222  0.659030 -3.253115
      ESP Fit Center  955 is at   9.375951 -0.268928 -3.253115
      ESP Fit Center  956 is at   9.911708 -1.196886 -3.253115
      ESP Fit Center  957 is at  10.983222 -1.196886 -3.253115
      ESP Fit Center  958 is at  10.447465 -0.268928 -3.466252
      ESP Fit Center  959 is at  11.099082  1.498177 -3.025342
      ESP Fit Center  960 is at  11.978298  1.957481  0.598123
      ESP Fit Center  961 is at  12.681067  1.957481 -0.104646
      ESP Fit Center  962 is at  12.363506  2.934832 -0.104646
      ESP Fit Center  963 is at  11.532122  3.538868 -0.104646
      ESP Fit Center  964 is at  12.938298  1.957481 -1.064646
      ESP Fit Center  965 is at  12.681067  2.917481 -1.064646
      ESP Fit Center  966 is at  11.978298  3.620250 -1.064646
      ESP Fit Center  967 is at  11.018298  3.877481 -1.064646
      ESP Fit Center  968 is at  12.681067  1.957481 -2.024646
      ESP Fit Center  969 is at  12.363506  2.934832 -2.024646
      ESP Fit Center  970 is at  11.532122  3.538868 -2.024646
      ESP Fit Center  971 is at  11.978298  1.957481 -2.727415
      ESP Fit Center  972 is at  11.498298  2.788865 -2.727415
      ESP Fit Center  973 is at   8.496204  3.286189 -1.755902
      ESP Fit Center  974 is at   7.793435  2.583420 -1.755902
      ESP Fit Center  975 is at   7.536204  1.623420 -1.755902
      ESP Fit Center  976 is at   9.970028  3.204807 -2.715902
      ESP Fit Center  977 is at   8.942380  3.204807 -2.715902
      ESP Fit Center  978 is at   8.110996  2.600771 -2.715902
      ESP Fit Center  979 is at   7.793435  1.623420 -2.715902
      ESP Fit Center  980 is at  10.416204  1.623420 -3.418671
      ESP Fit Center  981 is at   9.936204  2.454804 -3.418671
      ESP Fit Center  982 is at   8.976204  2.454804 -3.418671
      ESP Fit Center  983 is at   8.496204  1.623420 -3.418671
      ESP Fit Center  984 is at   8.976204  0.792036 -3.418671
      ESP Fit Center  985 is at   9.936204  0.792036 -3.418671
      ESP Fit Center  986 is at   9.456204  1.623420 -3.675902
      ESP Fit Center  987 is at   8.878812  3.078554  2.496250
      ESP Fit Center  988 is at   8.358151  2.176744  2.496250
      ESP Fit Center  989 is at  10.178955  3.883573  1.830301
      ESP Fit Center  990 is at   8.170694  3.594829  1.830301
      ESP Fit Center  991 is at  11.507583  3.191957  0.867975
      ESP Fit Center  992 is at   7.291361  3.191957 -0.200125
      ESP Fit Center  993 is at   7.599084  2.705386 -1.162451
      ESP Fit Center  994 is at   9.775004  4.072647  1.807058
      ESP Fit Center  995 is at   8.815004  4.072647  1.807058
      ESP Fit Center  996 is at  10.640212  4.218614  1.104289
      ESP Fit Center  997 is at   9.808828  4.822650  1.104289
      ESP Fit Center  998 is at   8.781180  4.822650  1.104289
      ESP Fit Center  999 is at   7.949796  4.218614  1.104289
      ESP Fit Center 1000 is at  10.957773  4.201263  0.144289
      ESP Fit Center 1001 is at  10.255004  4.904032  0.144289
      ESP Fit Center 1002 is at   9.295004  5.161263  0.144289
      ESP Fit Center 1003 is at   8.335004  4.904032  0.144289
      ESP Fit Center 1004 is at   7.632235  4.201263  0.144289
      ESP Fit Center 1005 is at  10.640212  4.218614 -0.815711
      ESP Fit Center 1006 is at   9.808828  4.822650 -0.815711
      ESP Fit Center 1007 is at   8.781180  4.822650 -0.815711
      ESP Fit Center 1008 is at   7.949796  4.218614 -0.815711
      ESP Fit Center 1009 is at   9.775004  4.072647 -1.518480
      ESP Fit Center 1010 is at   8.815004  4.072647 -1.518480
      ESP Fit Center 1011 is at   7.927517  2.613514  2.187346
      ESP Fit Center 1012 is at   7.447517  1.782130  2.187346
      ESP Fit Center 1013 is at   7.062309  2.759481  1.484577
      ESP Fit Center 1014 is at   6.744748  1.782130  1.484577
      ESP Fit Center 1015 is at   6.744748  2.742130  0.524577
      ESP Fit Center 1016 is at   7.062309  2.759481 -0.435423
      ESP Fit Center 1017 is at   7.447517  1.782130 -1.138192
      ESP Fit Center 1018 is at   9.993209  2.046173  3.151196
      ESP Fit Center 1019 is at  10.953209  2.046173  2.893965
      ESP Fit Center 1020 is at  10.473209  2.877557  2.893965
      ESP Fit Center 1021 is at   9.513209  2.877557  2.893965
      ESP Fit Center 1022 is at   9.033209  2.046173  2.893965
      ESP Fit Center 1023 is at   9.513209  1.214789  2.893965
      ESP Fit Center 1024 is at  10.473209  1.214789  2.893965
      ESP Fit Center 1025 is at  11.655978  2.046173  2.191196
      ESP Fit Center 1026 is at  11.338417  3.023524  2.191196
      ESP Fit Center 1027 is at  10.507033  3.627560  2.191196
      ESP Fit Center 1028 is at  10.507033  0.464786  2.191196
      ESP Fit Center 1029 is at  11.338417  1.068822  2.191196
      ESP Fit Center 1030 is at  11.913209  2.046173  1.231196
      ESP Fit Center 1031 is at  11.655978  3.006173  1.231196
      ESP Fit Center 1032 is at  -5.333133  1.542976 -0.375812
      ESP Fit Center 1033 is at  -7.681518  5.229894 -1.251755
      ESP Fit Center 1034 is at  -8.373682  4.361947 -1.251755
      ESP Fit Center 1035 is at  -7.681518  1.329376 -1.251755
      ESP Fit Center 1036 is at  -8.620713  2.246390 -2.285000
      ESP Fit Center 1037 is at  -8.035426  1.370447 -2.285000
      ESP Fit Center 1038 is at  -7.681518  1.329376 -3.318245
      ESP Fit Center 1039 is at  -7.376490  1.836767 -4.194188
      ESP Fit Center 1040 is at  -6.642861  2.384818 -4.779475
      ESP Fit Center 1041 is at  -5.609615  2.384818 -4.779475
      ESP Fit Center 1042 is at  -6.126238  3.279635 -4.985000
      ESP Fit Center 1043 is at  -6.134063  0.432851 -1.548983
      ESP Fit Center 1044 is at  -5.090765  0.582855 -1.548983
      ESP Fit Center 1045 is at  -7.484630  0.852081 -2.628983
      ESP Fit Center 1046 is at  -6.633794  0.264791 -2.628983
      ESP Fit Center 1047 is at  -5.607488  0.140175 -2.628983
      ESP Fit Center 1048 is at  -4.640827  0.506781 -2.628983
[...]
 1321 Fit      -0.010473
 1322 Fit      -0.002604
 1323 Fit      -0.010267
 1324 Fit       0.003443
 1325 Fit       0.002421
 1326 Fit       0.006071
 1327 Fit      -0.000117
 1328 Fit       0.005065
 1329 Fit       0.003703
 1330 Fit      -0.000666
 1331 Fit       0.004521
 1332 Fit       0.004573
 1333 Fit       0.002151
 1334 Fit       0.004089
 1335 Fit       0.012410
 1336 Fit       0.010905
 1337 Fit       0.002221
 1338 Fit      -0.001189
 1339 Fit       0.001333
 1340 Fit       0.004808
 1341 Fit       0.001935
 1342 Fit       0.004595
 1343 Fit       0.005865
 1344 Fit       0.002111
 1345 Fit       0.005437
 1346 Fit       0.003513
 1347 Fit       0.005727
 1348 Fit       0.006429
 1349 Fit       0.001825
 1350 Fit       0.001667
 1351 Fit       0.000491
 1352 Fit      -0.001428
 1353 Fit       0.008073
 1354 Fit      -0.002004
 1355 Fit      -0.010807
 1356 Fit      -0.008846
 1357 Fit      -0.002206
 1358 Fit      -0.007888
 1359 Fit      -0.015657
 1360 Fit      -0.015889
 1361 Fit      -0.008934
 1362 Fit      -0.016637
 1363 Fit      -0.019489
 1364 Fit      -0.016377
 1365 Fit      -0.008926
 1366 Fit      -0.010397
 1367 Fit      -0.017053
 1368 Fit      -0.018989
 1369 Fit      -0.015925
 1370 Fit      -0.008692
 1371 Fit      -0.006277
 1372 Fit      -0.013843
 1373 Fit      -0.017350
 1374 Fit      -0.016256
 1375 Fit      -0.010972
 1376 Fit      -0.002631
 1377 Fit       0.002585
 1378 Fit      -0.007020
 1379 Fit      -0.013685
 1380 Fit      -0.016534
 1381 Fit      -0.014929
 1382 Fit      -0.009312
 1383 Fit      -0.001038
 1384 Fit      -0.002905
 1385 Fit      -0.011190
 1386 Fit      -0.015919
 1387 Fit      -0.016186
 1388 Fit      -0.011740
 1389 Fit      -0.003104
 1390 Fit      -0.009418
 1391 Fit      -0.015615
 1392 Fit      -0.016027
 1393 Fit      -0.010157
 1394 Fit      -0.013921
 1395 Fit      -0.010795
 1396 Fit      -0.008238
 1397 Fit       0.000075
 1398 Fit      -0.003592
 1399 Fit      -0.000913
 1400 Fit      -0.000780
 1401 Fit      -0.000017
 1402 Fit      -0.000733
 1403 Fit      -0.005354
 1404 Fit       0.000010
 1405 Fit      -0.000215
 1406 Fit      -0.000380
 1407 Fit       0.001563
 1408 Fit      -0.001805
 1409 Fit       0.004674
 1410 Fit       0.005269
 1411 Fit       0.002110
 1412 Fit       0.006832
 1413 Fit       0.010869
 1414 Fit      -0.000386
 1415 Fit       0.005052
 1416 Fit       0.000737
 1417 Fit       0.001357
 1418 Fit      -0.006197
 1419 Fit      -0.000724
 1420 Fit       0.000531
 1421 Fit      -0.004147
 1422 Fit       0.000309
 1423 Fit      -0.000347
 1424 Fit      -0.000842
 1425 Fit      -0.000944
 1426 Fit       0.011384
 1427 Fit       0.007439
 1428 Fit       0.002552
 1429 Fit       0.005253
 1430 Fit      -0.009518
 1431 Fit      -0.015083
 1432 Fit      -0.012387
 1433 Fit      -0.016389
 1434 Fit      -0.010319
 1435 Fit      -0.012009
 1436 Fit      -0.017371
 1437 Fit      -0.015059
 1438 Fit      -0.008784
 1439 Fit      -0.000543
 1440 Fit      -0.008274
 1441 Fit      -0.015264
 1442 Fit      -0.017559
 1443 Fit      -0.013574
 1444 Fit      -0.006453
 1445 Fit      -0.002594
 1446 Fit      -0.010842
 1447 Fit      -0.016069
 1448 Fit      -0.017061
 1449 Fit      -0.013698
 1450 Fit      -0.005846
 1451 Fit      -0.004100
 1452 Fit      -0.012176
 1453 Fit      -0.017081
 1454 Fit      -0.017677
 1455 Fit      -0.015485
 1456 Fit      -0.007579
 1457 Fit      -0.012544
 1458 Fit      -0.018208
 1459 Fit      -0.019317
 1460 Fit      -0.017271
 1461 Fit      -0.009908
 1462 Fit      -0.009842
 1463 Fit      -0.017245
 1464 Fit      -0.020178
 1465 Fit      -0.016648
 1466 Fit      -0.008898
 1467 Fit      -0.003453
 1468 Fit      -0.009874
 1469 Fit      -0.016889
 1470 Fit      -0.011956
 1471 Fit       0.009490
 1472 Fit       0.010286
 1473 Fit      -0.001613
 1474 Fit       0.003394
 1475 Fit       0.007038
 1476 Fit       0.008715
 1477 Fit       0.003731
 1478 Fit       0.007115
 1479 Fit       0.008741
 1480 Fit       0.009900
 1481 Fit       0.002867
 1482 Fit       0.006566
 1483 Fit       0.008006
 1484 Fit       0.008802
 1485 Fit       0.001546
 1486 Fit       0.005469
 1487 Fit       0.010612
 1488 Fit       0.014685
 1489 Fit       0.008670
 1490 Fit       0.009543
 1491 Fit       0.011260
 1492 Fit       0.014523
 1493 Fit       0.001091
 1494 Fit       0.005772
 1495 Fit       0.008079
 1496 Fit       0.009040
 1497 Fit       0.005576
 1498 Fit       0.005184
 1499 Fit       0.003762
 1500 Fit       0.005298
 1501 Fit       0.003517
 1502 Fit       0.003243
 1503 Fit       0.004690
 1504 Fit       0.007324
 1505 Fit       0.006289
 1506 Fit       0.011598
 1507 Fit       0.005656
 1508 Fit       0.005658
 1509 Fit       0.004489
 1510 Fit       0.007776
 1511 Fit       0.007504
 1512 Fit       0.007558
 1513 Fit       0.006807
 1514 Fit       0.005105
 1515 Fit       0.003988
 1516 Fit       0.010168
 1517 Fit       0.008911
 1518 Fit       0.008289
 1519 Fit       0.007004
 1520 Fit       0.006287
 1521 Fit       0.010009
 1522 Fit       0.009131
 1523 Fit       0.009440
 1524 Fit       0.003680
 1525 Fit       0.006074
 1526 Fit       0.003853
 1527 Fit       0.003954
 1528 Fit       0.003011
 1529 Fit       0.004232
 1530 Fit       0.004036
 1531 Fit       0.004783
 1532 Fit       0.003861
 1533 Fit       0.000891
 1534 Fit       0.001659
 1535 Fit       0.004017
 1536 Fit       0.004095
 1537 Fit      -0.004464
 1538 Fit       0.001974
 1539 Fit       0.004980
 1540 Fit      -0.003543
 1541 Fit       0.006893
 1542 Fit       0.001707
 1543 Fit       0.000674
 1544 Fit      -0.000730
 1545 Fit       0.007472
 1546 Fit       0.004510
 1547 Fit       0.003378
 1548 Fit       0.002467
 1549 Fit       0.001907
 1550 Fit       0.002838
 1551 Fit       0.002432
 1552 Fit       0.003370
 1553 Fit       0.003640
 1554 Fit       0.004391
 1555 Fit       0.004447
 1556 Fit       0.006337
 1557 Fit       0.001081
 1558 Fit       0.002187
 1559 Fit       0.002489
 1560 Fit       0.002226
 1561 Fit       0.002923
 1562 Fit       0.003212
 1563 Fit       0.002764
 1564 Fit       0.000666
 1565 Fit       0.003305
 1566 Fit       0.003419
 1567 Fit       0.002594
 1568 Fit       0.000413
 1569 Fit       0.003566
 1570 Fit       0.003190
 1571 Fit       0.002357
 1572 Fit      -0.003963
 1573 Fit       0.000889
 1574 Fit       0.004184
 1575 Fit       0.004304
 1576 Fit       0.003052
 1577 Fit       0.000021
 1578 Fit       0.005273
 1579 Fit       0.005244
 1580 Fit       0.004805
 1581 Fit       0.004191
 1582 Fit       0.003224
 1583 Fit       0.001713
 1584 Fit      -0.001242
 1585 Fit       0.004696
 1586 Fit       0.003995
 1587 Fit       0.003272
 1588 Fit       0.002382
 1589 Fit       0.007499
 1590 Fit       0.006192
 1591 Fit       0.005002
 1592 Fit       0.010095
 1593 Fit       0.008432
 1594 Fit       0.007274
 1595 Fit       0.006071
 1596 Fit       0.004680
 1597 Fit       0.009982
 1598 Fit       0.008603
 1599 Fit       0.007399
 1600 Fit       0.005962
 1601 Fit       0.004413
 1602 Fit       0.009412
 1603 Fit       0.008361
 1604 Fit       0.006887
 1605 Fit       0.005260
 1606 Fit       0.006983
 1607 Fit       0.001817
 1608 Fit       0.009802
 1609 Fit       0.010052
 1610 Fit       0.010641
 1611 Fit      -0.007004
 1612 Fit       0.010591
 1613 Fit       0.004631
 1614 Fit       0.007557
 1615 Fit       0.008529
 1616 Fit       0.009170
 1617 Fit       0.010063
 1618 Fit       0.003988
 1619 Fit       0.001393
 1620 Fit       0.001119
 1621 Fit       0.005725
 1622 Fit       0.007581
 1623 Fit       0.008444
 1624 Fit       0.008094
 1625 Fit       0.006173
 1626 Fit       0.004683
 1627 Fit       0.006917
 1628 Fit       0.006733
 1629 Fit       0.009162
 1630 Fit       0.008132
 1631 Fit       0.007181
 1632 Fit       0.010606
 1633 Fit       0.009632
 1634 Fit       0.009098
 1635 Fit       0.008564
 1636 Fit       0.010195
 1637 Fit       0.009801
 1638 Fit       0.009737
 1639 Fit       0.009957
 1640 Fit       0.009963
 1641 Fit       0.010504
 1642 Fit       0.000643
 1643 Fit      -0.003921
 1644 Fit      -0.002687
 1645 Fit       0.003181
 1646 Fit       0.009690
 1647 Fit       0.010502
 1648 Fit       0.009403
 1649 Fit       0.010200
 1650 Fit       0.011873
 1651 Fit       0.009659
 1652 Fit       0.006794
 1653 Fit       0.011516
 1654 Fit       0.010436
 1655 Fit       0.009262
 1656 Fit       0.006456
 1657 Fit       0.011725
 1658 Fit       0.010842
 1659 Fit       0.010534
 1660 Fit       0.010455
 1661 Fit       0.010906
 1662 Fit       0.010456
 1663 Fit       0.010662
 1664 Fit       0.010576
 1665 Fit      -0.004223
 1666 Fit       0.004086
 1667 Fit       0.007666
 1668 Fit       0.009220
 1669 Fit      -0.001862
 1670 Fit       0.004023
 1671 Fit       0.007042
 1672 Fit       0.008789
 1673 Fit      -0.007991
 1674 Fit      -0.010286
 1675 Fit       0.001318
 1676 Fit       0.005621
 1677 Fit      -0.001808
 1678 Fit       0.004517
 1679 Fit       0.007709
 1680 Fit       0.011504
 1681 Fit       0.007566
 1682 Fit       0.009176
 1683 Fit       0.004204
 1684 Fit       0.006627
 1685 Fit       0.009389
 1686 Fit       0.011924
 1687 Fit      -0.000033
 1688 Fit       0.004093
 1689 Fit       0.007745
 1690 Fit       0.010744
 1691 Fit      -0.003819
 1692 Fit       0.002250
 1693 Fit       0.006891
 1694 Fit       0.010713
 1695 Fit      -0.006661
 1696 Fit       0.001918
 1697 Fit       0.007968
 1698 Fit       0.010384
 1699 Fit       0.010568
 1700 Fit       0.010039
 1701 Fit       0.009577
 1702 Fit       0.008881
 1703 Fit       0.011156
 1704 Fit       0.011059
 1705 Fit       0.008592
 1706 Fit       0.005329
 1707 Fit       0.005433
 1708 Fit       0.010052
 1709 Fit      -0.013971
 1710 Fit      -0.017917
 1711 Fit      -0.015334
 1712 Fit      -0.017440
 1713 Fit      -0.011576
 1714 Fit      -0.014713
 1715 Fit      -0.014575
 1716 Fit       0.004414
 1717 Fit       0.001915
 1718 Fit       0.001825
 1719 Fit      -0.002114
 1720 Fit       0.002195
 1721 Fit      -0.000784
 1722 Fit      -0.007204
 1723 Fit      -0.011336
 1724 Fit      -0.000050
 1725 Fit       0.000798
 1726 Fit      -0.001025
 1727 Fit      -0.004694
 1728 Fit      -0.007936
 1729 Fit      -0.007715
 1730 Fit      -0.011932
 1731 Fit      -0.007982
 1732 Fit      -0.002579
 1733 Fit      -0.001142
 1734 Fit      -0.003490
 1735 Fit      -0.004552
 1736 Fit       0.007447
 1737 Fit      -0.002021
 1738 Fit       0.004206
 1739 Fit       0.002898
 1740 Fit       0.006672
 1741 Fit       0.001066
 1742 Fit       0.004144
 1743 Fit       0.002757
 1744 Fit      -0.000314
 1745 Fit      -0.006361
 1746 Fit       0.008550
 1747 Fit      -0.009034
 1748 Fit       0.005766
 1749 Fit       0.002996
 1750 Fit       0.007958
 1751 Fit       0.006321
 1752 Fit       0.004139
 1753 Fit       0.000394
 1754 Fit      -0.005639
 1755 Fit       0.007721
 1756 Fit       0.006296
 1757 Fit       0.004016
 1758 Fit       0.000135
 1759 Fit      -0.006610
 1760 Fit       0.006272
 1761 Fit       0.003601
 1762 Fit      -0.000974
 1763 Fit      -0.009517
 1764 Fit       0.003392
 1765 Fit      -0.002844
 1766 Fit       0.005843
 1767 Fit       0.004665
 1768 Fit       0.007446
 1769 Fit       0.008611
 1770 Fit       0.007180
 1771 Fit       0.004380
 1772 Fit       0.002332
 1773 Fit       0.009180
 1774 Fit       0.009398
 1775 Fit      -0.005977
 1776 Fit      -0.011595
 1777 Fit      -0.014497
 1778 Fit      -0.014613
 1779 Fit      -0.016718
 1780 Fit      -0.011562
 1781 Fit      -0.016778
 1782 Fit      -0.014676
 1783 Fit      -0.011912
 1784 Fit      -0.015558
 1785 Fit      -0.011816
 1786 Fit      -0.001408
 1787 Fit      -0.010568
 1788 Fit       0.002402
 1789 Fit       0.000911
 1790 Fit       0.005314
 1791 Fit       0.001596
 1792 Fit       0.000433
 1793 Fit      -0.000419
 1794 Fit       0.005066
 1795 Fit       0.000808
 1796 Fit      -0.008881
 1797 Fit      -0.012223
 1798 Fit      -0.010251
 1799 Fit      -0.012378
 1800 Fit      -0.011144
 1801 Fit      -0.006917
 1802 Fit      -0.011853
 1803 Fit      -0.006800
 1804 Fit      -0.011698
 1805 Fit      -0.003187
 1806 Fit       0.001635
 1807 Fit      -0.006264
 1808 Fit      -0.000640
 1809 Fit       0.003498
 1810 Fit       0.002441
 1811 Fit      -0.005088
 1812 Fit      -0.004963
 1813 Fit      -0.001411
 1814 Fit       0.002497
 1815 Fit      -0.000905
 1816 Fit       0.001503
 1817 Fit       0.000305
 1818 Fit      -0.000384
 1819 Fit       0.001307
 1820 Fit       0.004517
 1821 Fit      -0.003535
 1822 Fit       0.002021
 1823 Fit      -0.009660
 1824 Fit      -0.001164
 1825 Fit      -0.003761
 1826 Fit      -0.006905
 1827 Fit      -0.008837
 1828 Fit      -0.008532
 1829 Fit      -0.005165
 1830 Fit      -0.002936
 1831 Fit      -0.003529
 1832 Fit      -0.008859
 1833 Fit      -0.009997
 1834 Fit      -0.007101
 1835 Fit       0.004014
 1836 Fit      -0.004129
 1837 Fit      -0.008649
 1838 Fit      -0.009421
 1839 Fit      -0.006375
 1840 Fit       0.001489
 1841 Fit      -0.005174
 1842 Fit      -0.008640
 1843 Fit      -0.008603
 1844 Fit      -0.005141
 1845 Fit      -0.002380
 1846 Fit      -0.007424
 1847 Fit      -0.009429
 1848 Fit      -0.008317
 1849 Fit      -0.004816
 1850 Fit       0.003281
 1851 Fit      -0.004900
 1852 Fit      -0.009686
 1853 Fit      -0.010985
 1854 Fit      -0.009544
 1855 Fit      -0.002809
 1856 Fit      -0.009591
 1857 Fit      -0.012741
 1858 Fit      -0.012897
 1859 Fit      -0.002572
 1860 Fit      -0.009497
 1861 Fit      -0.013399
 1862 Fit      -0.013926
 1863 Fit      -0.003675
 1864 Fit      -0.009802
 1865 Fit      -0.012224
 1866 Fit      -0.008666
 1867 Fit      -0.002812
 1868 Fit      -0.007593
 1869 Fit       0.006090
 1870 Fit       0.002505
 1871 Fit       0.003905
 1872 Fit      -0.000386
 1873 Fit       0.003864
 1874 Fit       0.002709
 1875 Fit       0.002660
 1876 Fit       0.002941
 1877 Fit       0.001559
 1878 Fit       0.002746
 1879 Fit       0.010180
 1880 Fit       0.008731
 1881 Fit       0.001199
 1882 Fit      -0.001731
 1883 Fit       0.000541
 1884 Fit       0.002947
 1885 Fit       0.000456
 1886 Fit       0.005214
 1887 Fit       0.002402
 1888 Fit       0.002606
 1889 Fit       0.002588
 1890 Fit       0.003724
 1891 Fit       0.002259
 1892 Fit       0.003781
 1893 Fit       0.004534
 1894 Fit       0.001330
 1895 Fit       0.001047
 1896 Fit      -0.000112
 1897 Fit       0.009582
 1898 Fit       0.005861
 1899 Fit      -0.001057
 1900 Fit      -0.008008
 1901 Fit      -0.006947
 1902 Fit      -0.002077
 1903 Fit      -0.001461
 1904 Fit      -0.006226
 1905 Fit      -0.011680
 1906 Fit      -0.011884
 1907 Fit      -0.007630
 1908 Fit      -0.012979
 1909 Fit      -0.015007
 1910 Fit      -0.012946
 1911 Fit      -0.007977
 1912 Fit      -0.009084
 1913 Fit      -0.013904
 1914 Fit      -0.015380
 1915 Fit      -0.013322
 1916 Fit      -0.008324
 1917 Fit      -0.001133
 1918 Fit      -0.008399
 1919 Fit      -0.013004
 1920 Fit      -0.014714
 1921 Fit      -0.013351
 1922 Fit      -0.009294
 1923 Fit      -0.003177
 1924 Fit       0.000010
 1925 Fit      -0.006645
 1926 Fit      -0.011305
 1927 Fit      -0.013683
 1928 Fit      -0.013463
 1929 Fit      -0.010748
 1930 Fit      -0.006098
 1931 Fit      -0.000281
 1932 Fit      -0.002970
 1933 Fit      -0.008817
 1934 Fit      -0.012507
 1935 Fit      -0.013475
 1936 Fit      -0.011511
 1937 Fit      -0.007003
 1938 Fit      -0.000712
 1939 Fit      -0.003032
 1940 Fit      -0.009440
 1941 Fit      -0.012863
 1942 Fit      -0.012985
 1943 Fit      -0.009649
 1944 Fit      -0.007090
 1945 Fit      -0.011826
 1946 Fit      -0.012170
 1947 Fit      -0.007878
 1948 Fit      -0.009727
 1949 Fit      -0.007660
 1950 Fit      -0.005173
 1951 Fit      -0.000626
 1952 Fit      -0.002053
 1953 Fit      -0.001667
 1954 Fit      -0.001469
 1955 Fit      -0.002003
 1956 Fit      -0.004557
 1957 Fit      -0.001753
 1958 Fit      -0.001454
 1959 Fit      -0.002100
 1960 Fit      -0.000585
 1961 Fit      -0.003353
 1962 Fit       0.000382
 1963 Fit       0.003842
 1964 Fit       0.001669
 1965 Fit       0.005309
 1966 Fit       0.008220
 1967 Fit      -0.001001
 1968 Fit       0.000262
 1969 Fit       0.000372
 1970 Fit      -0.004187
 1971 Fit      -0.000649
 1972 Fit      -0.001396
 1973 Fit      -0.004801
 1974 Fit      -0.001692
 1975 Fit      -0.001215
 1976 Fit      -0.000097
 1977 Fit      -0.001179
 1978 Fit      -0.002114
 1979 Fit      -0.001717
 1980 Fit       0.011544
 1981 Fit       0.008660
 1982 Fit       0.005667
 1983 Fit       0.003850
 1984 Fit      -0.006144
 1985 Fit      -0.010619
 1986 Fit      -0.008828
 1987 Fit      -0.012442
 1988 Fit      -0.007841
 1989 Fit      -0.009237
 1990 Fit      -0.013169
 1991 Fit      -0.012291
 1992 Fit      -0.007674
 1993 Fit      -0.001267
 1994 Fit      -0.006959
 1995 Fit      -0.012315
 1996 Fit      -0.014058
 1997 Fit      -0.011439
 1998 Fit      -0.006518
 1999 Fit       0.000007
 2000 Fit      -0.004176
 2001 Fit      -0.009952
 2002 Fit      -0.013382
 2003 Fit      -0.013900
 2004 Fit      -0.011056
 2005 Fit      -0.005958
 2006 Fit      -0.001379
 2007 Fit      -0.007205
 2008 Fit      -0.011696
 2009 Fit      -0.014089
 2010 Fit      -0.013887
 2011 Fit      -0.011643
 2012 Fit      -0.005916
 2013 Fit      -0.006445
 2014 Fit      -0.011733
 2015 Fit      -0.014690
 2016 Fit      -0.014698
 2017 Fit      -0.012813
 2018 Fit      -0.007072
 2019 Fit      -0.011052
 2020 Fit      -0.014975
 2021 Fit      -0.015649
 2022 Fit      -0.013477
 2023 Fit      -0.008233
 2024 Fit      -0.008682
 2025 Fit      -0.013650
 2026 Fit      -0.015584
 2027 Fit      -0.012383
 2028 Fit      -0.006771
 2029 Fit      -0.001826
 2030 Fit      -0.002885
 2031 Fit      -0.007728
 2032 Fit      -0.012652
 2033 Fit      -0.008778
 2034 Fit       0.008054
 2035 Fit       0.005486
 2036 Fit      -0.001776
 2037 Fit       0.005323
 2038 Fit       0.002027
 2039 Fit       0.005290
 2040 Fit       0.007073
 2041 Fit       0.008410
 2042 Fit       0.001853
 2043 Fit       0.005134
 2044 Fit       0.006846
 2045 Fit       0.007927
 2046 Fit       0.001046
 2047 Fit       0.004623
 2048 Fit       0.006233
 2049 Fit       0.000359
 2050 Fit       0.004077
 2051 Fit       0.008690
 2052 Fit       0.008412
 2053 Fit       0.009415
 2054 Fit       0.013972
 2055 Fit       0.006110
 2056 Fit       0.007116
 2057 Fit       0.007723
 2058 Fit       0.008759
 2059 Fit       0.010544
 2060 Fit       0.000677
 2061 Fit       0.004582
 2062 Fit       0.006382
 2063 Fit       0.006864
 2064 Fit       0.003900
 2065 Fit       0.003871
 2066 Fit       0.003450
 2067 Fit       0.004667
 2068 Fit       0.003148
 2069 Fit       0.002912
 2070 Fit       0.004181
 2071 Fit       0.003991
 2072 Fit       0.002438
 2073 Fit       0.005303
 2074 Fit       0.005339
 2075 Fit       0.002117
 2076 Fit       0.007983
 2077 Fit       0.003120
 2078 Fit       0.005604
 2079 Fit       0.008433
 2080 Fit       0.008729
 2081 Fit       0.004497
 2082 Fit       0.004393
 2083 Fit       0.003522
 2084 Fit       0.005794
 2085 Fit       0.005886
 2086 Fit       0.005464
 2087 Fit       0.004272
 2088 Fit       0.002794
 2089 Fit       0.007265
 2090 Fit       0.006974
 2091 Fit       0.006399
 2092 Fit       0.005163
 2093 Fit       0.003757
 2094 Fit       0.008007
 2095 Fit       0.007303
 2096 Fit       0.006355
 2097 Fit       0.006283
 2098 Fit       0.008409
 2099 Fit       0.007908
 2100 Fit       0.004436
 2101 Fit       0.003123
 2102 Fit       0.002186
 2103 Fit       0.003389
 2104 Fit       0.003511
 2105 Fit       0.004129
 2106 Fit       0.003221
 2107 Fit       0.000779
 2108 Fit       0.001033
 2109 Fit       0.003137
 2110 Fit       0.003562
 2111 Fit      -0.003228
 2112 Fit       0.000422
 2113 Fit       0.003371
 2114 Fit       0.004053
 Job cpu time:       0 days  0 hours  4 minutes 51.3 seconds.
 Normal termination of Gaussian 16 at Sat Jul  8 20:30:20 2023.
