 Copyright (c) 1988-2019, Gaussian, Inc.  All Rights Reserved.
  
 This is part of the Gaussian(R) 16 program.  It is based on
 the Gaussian(R) 09 system (copyright 2009, Gaussian, Inc.),
 the Gaussian(R) 03 system (copyright 2003, Gaussian, Inc.),
 the Gaussian(R) 98 system (copyright 1998, Gaussian, Inc.),
 the Gaussian(R) 94 system (copyright 1995, Gaussian, Inc.),
 the Gaussian 92(TM) system (copyright 1992, Gaussian, Inc.),
 the Gaussian 90(TM) system (copyright 1990, Gaussian, Inc.),
 the Gaussian 88(TM) system (copyright 1988, Gaussian, Inc.),
 the Gaussian 86(TM) system (copyright 1986, Carnegie Mellon
 University), and the Gaussian 82(TM) system (copyright 1983,
 Carnegie Mellon University). Gaussian is a federally registered
 trademark of Gaussian, Inc.
 Cite this work as:
 Gaussian 16, Revision C.01,
 M. J. Frisch, G. W. Trucks, H. B. Schlegel, G. E. Scuseria, 
 M. A. Robb, J. R. Cheeseman, G. Scalmani, V. Barone, 
 G. A. Petersson, H. Nakatsuji, X. Li, M. Caricato, A. V. Marenich, 
 J. Bloino, B. G. Janesko, R. Gomperts, B. Mennucci, H. P. Hratchian, 
 J. V. Ortiz, A. F. Izmaylov, J. L. Sonnenberg, D. Williams-Young, 
 F. Ding, F. Lipparini, F. Egidi, J. Goings, B. Peng, A. Petrone, 
 T. Henderson, D. Ranasinghe, V. G. Zakrzewski, J. Gao, N. Rega, 
 G. Zheng, W. Liang, M. Hada, M. Ehara, K. Toyota, R. Fukuda, 
 J. Hasegawa, M. Ishida, T. Nakajima, Y. Honda, O. Kitao, H. Nakai, 
 T. Vreven, K. Throssell, J. A. Montgomery, Jr., J. E. Peralta, 
 F. Ogliaro, M. J. Bearpark, J. J. Heyd, E. N. Brothers, K. N. Kudin, 
 V. N. Staroverov, T. A. Keith, R. Kobayashi, J. Normand, 
 K. Raghavachari, A. P. Rendell, J. C. Burant, S. S. Iyengar, 
 J. Tomasi, M. Cossi, J. M. Millam, M. Klene, C. Adamo, R. Cammi, 
 J. W. Ochterski, R. L. Martin, K. Morokuma, O. Farkas, 
 J. B. Foresman, and D. J. Fox, Gaussian, Inc., Wallingford CT, 2019.
 
 ******************************************
 Gaussian 16:  EM64L-G16RevC.01  3-Jul-2019
                 8-Jul-2023 
 ******************************************
 ----------------------------------------------------------------------
 #P HF/6-31G(d) SCF(Conver=8,XQC,MaxConventionalCycles=64,MaxCycle=128)
  NoSymm Test Pop=mk IOp(6/33=2) GFInput GFPrint
 ----------------------------------------------------------------------
 1/38=1,172=1/1;
 2/12=2,15=1,17=6,18=5,40=1/2;
 3/5=1,6=6,7=1,11=9,24=110,25=1,30=1/1,2,3;
 4//1;
 5/5=2,6=8,7=128,8=3,13=1,38=5,85=64/2,8;
 6/7=2,8=2,9=2,10=2,15=8,20=1,28=1,33=2/1,2;
 99/5=1,9=1/99;
 -------------------------------------------------
 MEP step - Input generated by PyRED DVE-DMDS-OPLS
 -------------------------------------------------
 Symbolic Z-matrix:
 Charge =  0 Multiplicity = 1
 C                    -5.90616  -3.42034   3.03621 
 H                    -6.83081  -2.92111   2.76673 
 H                    -5.77037  -4.26709   2.37207 
 H                    -6.01671  -3.79407   4.04979 
 C                    -4.70559  -2.48681   2.95277 
 H                    -4.84888  -1.62476   3.60198 
 H                    -3.81685  -3.0048    3.2901 
 O                    -4.42403  -2.06092   1.64795 
 C                    -5.25924  -1.07075   1.12582 
 H                    -5.34719  -0.23966   1.82275 
 H                    -6.25833  -1.46214   0.94077 
 C                    -4.68919  -0.56394  -0.18397 
 H                    -4.48927  -1.4057   -0.84203 
 H                    -5.43416   0.06494  -0.65907 
 O                    -3.54849   0.22608  -0.02552 
 C                    -2.31297  -0.43353  -0.00563 
 H                    -2.20235  -1.06625  -0.88314 
 H                    -2.20876  -1.05626   0.87259 
 C                    -1.24327   0.63855  -0.01622 
 H                    -1.3582    1.28201   0.85341 
 H                    -1.34873   1.25742  -0.90432 
 O                     0.        0.        0. 
 C                     1.09763   0.86023   0. 
 H                     1.07131   1.50611   0.87568 
 H                     1.08545   1.50071  -0.87877 
 C                     2.35111   0.        0. 
 H                     2.37609  -0.59736  -0.90211 
 H                     2.32871  -0.68574   0.83676 
 S                     3.89036   0.96643   0.01487 
 C                     4.09589   1.35455   1.78296 
 H                     4.7447    2.21926   1.81584 
 H                     3.14693   1.65892   2.20405 
 C                     4.69484   0.20245   2.58811 
 H                     5.65506  -0.08751   2.18128 
 H                     4.05275  -0.66624   2.53213 
 S                     4.89188   0.58163   4.3635 
 C                     6.67073   0.94155   4.51314 
 H                     7.22832   0.12417   4.07413 
 H                     6.86694   0.92678   5.57733 
 C                     7.10336   2.28504   3.93147 
 H                     6.92356   2.32842   2.86433 
 H                     6.53072   3.0822    4.38745 
 S                     8.84853   2.69073   4.24197 
 C                     9.69761   1.64557   3.01721 
 H                     9.50873   0.60101   3.23121 
 H                     9.29771   1.86533   2.03399 
 C                     11.19875   1.9198    3.04961 
 H                     11.41207   2.95661   2.81536 
 H                     11.61611   1.69981   4.02601 
 H                     11.70437   1.29655   2.31932 
 
 ITRead=  0  0  0  0  0  0  0  0  0  0  0  0  0  0  0  0  0  0  0  0
 ITRead=  0  0  0  0  0  0  0  0  0  0  0  0  0  0  0  0  0  0  0  0
 ITRead=  0  0  0  0  0  0  0  0  0  0
 MicOpt= -1 -1 -1 -1 -1 -1 -1 -1 -1 -1 -1 -1 -1 -1 -1 -1 -1 -1 -1 -1
 MicOpt= -1 -1 -1 -1 -1 -1 -1 -1 -1 -1 -1 -1 -1 -1 -1 -1 -1 -1 -1 -1
 MicOpt= -1 -1 -1 -1 -1 -1 -1 -1 -1 -1
 NAtoms=     50 NQM=       50 NQMF=       0 NMMI=      0 NMMIF=      0
                NMic=       0 NMicF=      0.
                          Input orientation:                          
 ---------------------------------------------------------------------
 Center     Atomic      Atomic             Coordinates (Angstroms)
 Number     Number       Type             X           Y           Z
 ---------------------------------------------------------------------
      1          6           0       -5.906162   -3.420341    3.036207
      2          1           0       -6.830812   -2.921108    2.766734
      3          1           0       -5.770366   -4.267088    2.372070
      4          1           0       -6.016709   -3.794073    4.049795
      5          6           0       -4.705585   -2.486813    2.952769
      6          1           0       -4.848883   -1.624755    3.601984
      7          1           0       -3.816845   -3.004804    3.290101
      8          8           0       -4.424030   -2.060918    1.647947
      9          6           0       -5.259240   -1.070754    1.125819
     10          1           0       -5.347186   -0.239658    1.822746
     11          1           0       -6.258328   -1.462135    0.940770
     12          6           0       -4.689185   -0.563936   -0.183974
     13          1           0       -4.489273   -1.405704   -0.842031
     14          1           0       -5.434159    0.064937   -0.659071
     15          8           0       -3.548488    0.226082   -0.025519
     16          6           0       -2.312965   -0.433527   -0.005628
     17          1           0       -2.202351   -1.066249   -0.883139
     18          1           0       -2.208756   -1.056262    0.872589
     19          6           0       -1.243272    0.638549   -0.016215
     20          1           0       -1.358201    1.282014    0.853405
     21          1           0       -1.348733    1.257423   -0.904320
     22          8           0        0.000000    0.000000    0.000000
     23          6           0        1.097628    0.860225    0.000000
     24          1           0        1.071312    1.506112    0.875682
     25          1           0        1.085449    1.500706   -0.878768
     26          6           0        2.351106    0.000000    0.000000
     27          1           0        2.376087   -0.597359   -0.902108
     28          1           0        2.328705   -0.685739    0.836760
     29         16           0        3.890364    0.966429    0.014870
     30          6           0        4.095887    1.354547    1.782957
     31          1           0        4.744697    2.219258    1.815843
     32          1           0        3.146933    1.658920    2.204047
     33          6           0        4.694840    0.202453    2.588114
     34          1           0        5.655059   -0.087507    2.181280
     35          1           0        4.052748   -0.666244    2.532125
     36         16           0        4.891884    0.581626    4.363501
     37          6           0        6.670726    0.941551    4.513142
     38          1           0        7.228316    0.124167    4.074130
     39          1           0        6.866938    0.926784    5.577328
     40          6           0        7.103357    2.285037    3.931466
     41          1           0        6.923555    2.328422    2.864334
     42          1           0        6.530720    3.082200    4.387451
     43         16           0        8.848529    2.690731    4.241974
     44          6           0        9.697613    1.645569    3.017207
     45          1           0        9.508728    0.601008    3.231209
     46          1           0        9.297711    1.865330    2.033995
     47          6           0       11.198752    1.919800    3.049608
     48          1           0       11.412074    2.956606    2.815364
     49          1           0       11.616113    1.699811    4.026011
     50          1           0       11.704368    1.296548    2.319321
 ---------------------------------------------------------------------
 Stoichiometry    C14H30O3S3
 Framework group  C1[X(C14H30O3S3)]
 Standard basis: 6-31G(d) (6D, 7F)
   372 basis functions,   752 primitive gaussians,   372 cartesian basis functions
    93 alpha electrons       93 beta electrons
 Requested convergence on RMS density matrix=1.00D-08 within  64 cycles.
 Requested convergence on MAX density matrix=1.00D-06.
 Requested convergence on             energy=1.00D-06.
 SCF Done:  E(RHF) =  -1964.69613928     A.U. after   13 cycles
            NFock= 13  Conv=0.50D-08     -V/T= 2.0006
 Mulliken charges:
     1  C   -0.505921
     2  H    0.162182
     3  H    0.175069
     4  H    0.161411
     5  C    0.015042
     6  H    0.142346
     7  H    0.173093
     8  O   -0.627751
     9  C    0.007644
    10  H    0.151120
    11  H    0.137082
    12  C    0.004392
    13  H    0.156364
    14  H    0.168235
    15  O   -0.647501
    16  C    0.012185
    17  H    0.148463
    18  H    0.182554
    19  C    0.012341
    20  H    0.151334
    21  H    0.151320
    22  O   -0.642396
    23  C    0.040292
    24  H    0.143773
    25  H    0.157705
    26  C   -0.494556
    27  H    0.213766
    28  H    0.203386
    29  S    0.106200
    30  C   -0.472120
    31  H    0.206293
    32  H    0.208487
    33  C   -0.476966
    34  H    0.203749
    35  H    0.207732
    36  S    0.116579
    37  C   -0.470681
    38  H    0.195757
    39  H    0.218464
    40  C   -0.479556
    41  H    0.190478
    42  H    0.216666
    43  S    0.120853
    44  C   -0.459285
    45  H    0.186625
    46  H    0.187241
    47  C   -0.495912
    48  H    0.182208
    49  H    0.180347
    50  H    0.173865
 Sum of Mulliken charges =  -0.00000
 Dipole moment (field-independent basis, Debye):
    X=             -1.5910    Y=             -1.4357    Z=             -0.3468  Tot=              2.1709
 Quadrupole moment (field-independent basis, Debye-Ang):
   XX=           -128.4191   YY=           -154.9616   ZZ=           -158.4770
   XY=             -6.0864   XZ=            -12.3454   YZ=             -6.4636
 Traceless Quadrupole moment (field-independent basis, Debye-Ang):
   XX=             18.8668   YY=             -7.6757   ZZ=            -11.1911
   XY=             -6.0864   XZ=            -12.3454   YZ=             -6.4636
 Octapole moment (field-independent basis, Debye-Ang**2):
  XXX=          -1023.2576  YYY=           -196.9711  ZZZ=           -963.4121  XYY=           -399.9493
  XXY=           -175.5150  XXZ=           -329.2731  XZZ=           -466.8412  YZZ=            -99.3809
  YYZ=           -312.7418  XYZ=            -39.5871
 Hexadecapole moment (field-independent basis, Debye-Ang**3):
 XXXX=         -27957.1444 YYYY=          -2621.6002 ZZZZ=          -7020.7599 XXXY=          -4236.4088
 XXXZ=          -4955.9041 YYYX=          -3773.6931 YYYZ=           -746.1015 ZZZX=          -4974.7740
 ZZZY=           -822.6115 XXYY=          -5940.5064 XXZZ=          -6762.6008 YYZZ=          -1606.8489
 XXYZ=           -809.5405 YYXZ=          -1708.0747 ZZXY=          -1419.5697
 Merz-Kollman atomic radii used.
 Atom Element Radius
    1     6    1.50
    2     1    1.20
    3     1    1.20
    4     1    1.20
    5     6    1.50
    6     1    1.20
    7     1    1.20
    8     8    1.40
    9     6    1.50
   10     1    1.20
   11     1    1.20
   12     6    1.50
   13     1    1.20
   14     1    1.20
   15     8    1.40
   16     6    1.50
   17     1    1.20
   18     1    1.20
   19     6    1.50
   20     1    1.20
   21     1    1.20
   22     8    1.40
   23     6    1.50
   24     1    1.20
   25     1    1.20
   26     6    1.50
   27     1    1.20
   28     1    1.20
   29    16    1.75
   30     6    1.50
   31     1    1.20
   32     1    1.20
   33     6    1.50
   34     1    1.20
   35     1    1.20
   36    16    1.75
   37     6    1.50
   38     1    1.20
   39     1    1.20
   40     6    1.50
   41     1    1.20
   42     1    1.20
   43    16    1.75
   44     6    1.50
   45     1    1.20
   46     1    1.20
   47     6    1.50
   48     1    1.20
   49     1    1.20
   50     1    1.20
 Generate VDW surfaces: Layer= 4 Dens= 1 Start= 1.400 Inc= 0.200
            Electrostatic Properties Using The SCF Density.


       Atomic Center    1 is at  -5.906162 -3.420341  3.036207
       Atomic Center    2 is at  -6.830812 -2.921108  2.766734
       Atomic Center    3 is at  -5.770366 -4.267088  2.372070
       Atomic Center    4 is at  -6.016709 -3.794073  4.049795
       Atomic Center    5 is at  -4.705585 -2.486813  2.952769
       Atomic Center    6 is at  -4.848883 -1.624755  3.601984
       Atomic Center    7 is at  -3.816845 -3.004804  3.290101
       Atomic Center    8 is at  -4.424030 -2.060918  1.647947
       Atomic Center    9 is at  -5.259240 -1.070754  1.125819
       Atomic Center   10 is at  -5.347186 -0.239658  1.822746
       Atomic Center   11 is at  -6.258328 -1.462135  0.940770
       Atomic Center   12 is at  -4.689185 -0.563936 -0.183974
       Atomic Center   13 is at  -4.489273 -1.405704 -0.842031
       Atomic Center   14 is at  -5.434159  0.064937 -0.659071
       Atomic Center   15 is at  -3.548488  0.226082 -0.025519
       Atomic Center   16 is at  -2.312965 -0.433527 -0.005628
       Atomic Center   17 is at  -2.202351 -1.066249 -0.883139
       Atomic Center   18 is at  -2.208756 -1.056262  0.872589
       Atomic Center   19 is at  -1.243272  0.638549 -0.016215
       Atomic Center   20 is at  -1.358201  1.282014  0.853405
       Atomic Center   21 is at  -1.348733  1.257423 -0.904320
       Atomic Center   22 is at   0.000000  0.000000  0.000000
       Atomic Center   23 is at   1.097628  0.860225  0.000000
       Atomic Center   24 is at   1.071312  1.506112  0.875682
       Atomic Center   25 is at   1.085449  1.500706 -0.878768
       Atomic Center   26 is at   2.351106  0.000000  0.000000
       Atomic Center   27 is at   2.376087 -0.597359 -0.902108
       Atomic Center   28 is at   2.328705 -0.685739  0.836760
       Atomic Center   29 is at   3.890364  0.966429  0.014870
       Atomic Center   30 is at   4.095887  1.354547  1.782957
       Atomic Center   31 is at   4.744697  2.219258  1.815843
       Atomic Center   32 is at   3.146933  1.658920  2.204047
       Atomic Center   33 is at   4.694840  0.202453  2.588114
       Atomic Center   34 is at   5.655059 -0.087507  2.181280
       Atomic Center   35 is at   4.052748 -0.666244  2.532125
       Atomic Center   36 is at   4.891884  0.581626  4.363501
       Atomic Center   37 is at   6.670726  0.941551  4.513142
       Atomic Center   38 is at   7.228316  0.124167  4.074130
       Atomic Center   39 is at   6.866938  0.926784  5.577328
       Atomic Center   40 is at   7.103357  2.285037  3.931466
       Atomic Center   41 is at   6.923555  2.328422  2.864334
       Atomic Center   42 is at   6.530720  3.082200  4.387451
       Atomic Center   43 is at   8.848529  2.690731  4.241974
       Atomic Center   44 is at   9.697613  1.645569  3.017207
       Atomic Center   45 is at   9.508728  0.601008  3.231209
       Atomic Center   46 is at   9.297711  1.865330  2.033995
       Atomic Center   47 is at  11.198752  1.919800  3.049608
       Atomic Center   48 is at  11.412074  2.956606  2.815364
       Atomic Center   49 is at  11.616113  1.699811  4.026011
       Atomic Center   50 is at  11.704368  1.296548  2.319321
      ESP Fit Center   51 is at  -4.376213 -4.403579  4.086207
      ESP Fit Center   52 is at  -7.478035 -4.812899  3.036207
      ESP Fit Center   53 is at  -7.629699 -2.340682  4.125883
      ESP Fit Center   54 is at  -6.553361 -1.347607  3.285883
      ESP Fit Center   55 is at  -7.629699 -1.537394  3.285883
      ESP Fit Center   56 is at  -8.332229 -2.374637  3.285883
      ESP Fit Center   57 is at  -8.332229 -3.467579  3.285883
      ESP Fit Center   58 is at  -7.629699 -1.537394  2.247585
      ESP Fit Center   59 is at  -8.332229 -2.374637  2.247585
      ESP Fit Center   60 is at  -8.332229 -3.467579  2.247585
      ESP Fit Center   61 is at  -7.629699 -2.340682  1.407585
      ESP Fit Center   62 is at  -7.629699 -3.501534  1.407585
      ESP Fit Center   63 is at  -6.569253 -5.650802  2.891219
      ESP Fit Center   64 is at  -5.492915 -5.840589  2.891219
      ESP Fit Center   65 is at  -4.546399 -5.294118  2.891219
      ESP Fit Center   66 is at  -4.172591 -4.267088  1.852921
      ESP Fit Center   67 is at  -7.271783 -4.813559  1.852921
      ESP Fit Center   68 is at  -6.569253 -5.650802  1.852921
      ESP Fit Center   69 is at  -5.492915 -5.840589  1.852921
      ESP Fit Center   70 is at  -4.546399 -5.294118  1.852921
      ESP Fit Center   71 is at  -4.782887 -4.267088  1.012921
      ESP Fit Center   72 is at  -6.569253 -3.686662  1.012921
      ESP Fit Center   73 is at  -6.569253 -4.847514  1.012921
      ESP Fit Center   74 is at  -5.465218 -5.206237  1.012921
      ESP Fit Center   75 is at  -5.770366 -4.267088  0.692070
      ESP Fit Center   76 is at  -6.016709 -3.794073  5.729795
      ESP Fit Center   77 is at  -5.029230 -3.794073  5.408944
      ESP Fit Center   78 is at  -5.711561 -2.854924  5.408944
      ESP Fit Center   79 is at  -6.815596 -3.213647  5.408944
      ESP Fit Center   80 is at  -6.815596 -4.374499  5.408944
      ESP Fit Center   81 is at  -5.711561 -4.733222  5.408944
      ESP Fit Center   82 is at  -7.518126 -3.247602  4.568944
      ESP Fit Center   83 is at  -7.518126 -4.340544  4.568944
      ESP Fit Center   84 is at  -6.815596 -5.177787  4.568944
      ESP Fit Center   85 is at  -5.739258 -5.367574  4.568944
      ESP Fit Center   86 is at  -4.792742 -4.821103  4.568944
      ESP Fit Center   87 is at  -4.705585 -2.486813  5.052769
      ESP Fit Center   88 is at  -3.175636 -1.503575  4.002769
      ESP Fit Center   89 is at  -2.846127 -1.510894  2.952769
      ESP Fit Center   90 is at  -3.512649 -0.758547  2.952769
      ESP Fit Center   91 is at  -3.950089 -4.141118  1.902769
      ESP Fit Center   92 is at  -4.848883 -1.624755  5.281984
      ESP Fit Center   93 is at  -3.861404 -1.624755  4.961133
      ESP Fit Center   94 is at  -4.543735 -0.685606  4.961133
      ESP Fit Center   95 is at  -5.647770 -1.044329  4.961133
      ESP Fit Center   96 is at  -5.647770 -2.205181  4.961133
      ESP Fit Center   97 is at  -3.624916 -0.597725  4.121133
      ESP Fit Center   98 is at  -4.571432 -0.051254  4.121133
      ESP Fit Center   99 is at  -5.647770 -0.241041  4.121133
      ESP Fit Center  100 is at  -6.350300 -1.078284  4.121133
      ESP Fit Center  101 is at  -3.624916 -0.597725  3.082835
      ESP Fit Center  102 is at  -6.350300 -1.078284  3.082835
      ESP Fit Center  103 is at  -3.816845 -3.004804  4.970101
      ESP Fit Center  104 is at  -2.829366 -3.004804  4.649250
      ESP Fit Center  105 is at  -3.511697 -2.065655  4.649250
      ESP Fit Center  106 is at  -3.511697 -3.943953  4.649250
      ESP Fit Center  107 is at  -2.219070 -3.004804  3.809250
      ESP Fit Center  108 is at  -2.592878 -1.977774  3.809250
      ESP Fit Center  109 is at  -3.539394 -4.578305  3.809250
      ESP Fit Center  110 is at  -2.592878 -4.031834  3.809250
      ESP Fit Center  111 is at  -2.219070 -3.004804  2.770952
      ESP Fit Center  112 is at  -2.592878 -1.977774  2.770952
      ESP Fit Center  113 is at  -3.539394 -4.578305  2.770952
      ESP Fit Center  114 is at  -2.592878 -4.031834  2.770952
      ESP Fit Center  115 is at  -3.511697 -3.943953  1.930952
      ESP Fit Center  116 is at  -3.050797 -1.063206  2.627947
      ESP Fit Center  117 is at  -3.444030 -3.758328  1.647947
      ESP Fit Center  118 is at  -2.726620 -3.040918  1.647947
      ESP Fit Center  119 is at  -5.797263 -3.058630  0.667947
      ESP Fit Center  120 is at  -4.948558 -3.675251  0.667947
      ESP Fit Center  121 is at  -3.899502 -3.675251  0.667947
      ESP Fit Center  122 is at  -3.050797 -3.058630  0.667947
      ESP Fit Center  123 is at  -4.914030 -2.909623 -0.049463
      ESP Fit Center  124 is at  -3.934030 -2.909623 -0.049463
      ESP Fit Center  125 is at  -6.309240 -1.070754  2.944472
      ESP Fit Center  126 is at  -7.004225 -0.558380  2.175819
      ESP Fit Center  127 is at  -6.831113  0.321804  1.125819
      ESP Fit Center  128 is at  -5.518061 -2.870896  0.075819
      ESP Fit Center  129 is at  -5.042038  0.699491  3.181895
      ESP Fit Center  130 is at  -6.146073  0.340768  3.181895
      ESP Fit Center  131 is at  -3.749411 -0.239658  2.341895
      ESP Fit Center  132 is at  -4.123219  0.787372  2.341895
      ESP Fit Center  133 is at  -5.069735  1.333843  2.341895
      ESP Fit Center  134 is at  -6.146073  1.144056  2.341895
      ESP Fit Center  135 is at  -6.848603  0.306813  2.341895
      ESP Fit Center  136 is at  -5.069735  1.333843  1.303597
      ESP Fit Center  137 is at  -6.146073  1.144056  1.303597
      ESP Fit Center  138 is at  -6.848603  0.306813  1.303597
      ESP Fit Center  139 is at  -7.057215 -0.881709  2.299919
      ESP Fit Center  140 is at  -7.759745 -0.915664  1.459919
      ESP Fit Center  141 is at  -7.759745 -2.008606  1.459919
      ESP Fit Center  142 is at  -7.057215 -0.078421  0.421621
      ESP Fit Center  143 is at  -7.759745 -0.915664  0.421621
      ESP Fit Center  144 is at  -7.759745 -2.008606  0.421621
      ESP Fit Center  145 is at  -7.057215 -2.845849  0.421621
      ESP Fit Center  146 is at  -5.980877 -3.035636  0.421621
      ESP Fit Center  147 is at  -7.057215 -0.881709 -0.418379
      ESP Fit Center  148 is at  -7.057215 -2.042561 -0.418379
      ESP Fit Center  149 is at  -5.953180 -2.401284 -0.418379
      ESP Fit Center  150 is at  -4.164185  0.345391 -2.002627
      ESP Fit Center  151 is at  -4.689185 -0.563936 -2.283974
      ESP Fit Center  152 is at  -5.288160 -2.789418 -0.322882
      ESP Fit Center  153 is at  -4.211822 -2.979205 -0.322882
      ESP Fit Center  154 is at  -3.265306 -2.432734 -0.322882
      ESP Fit Center  155 is at  -5.990690 -1.952175 -1.361180
      ESP Fit Center  156 is at  -5.288160 -2.789418 -1.361180
      ESP Fit Center  157 is at  -4.211822 -2.979205 -1.361180
      ESP Fit Center  158 is at  -3.265306 -2.432734 -1.361180
      ESP Fit Center  159 is at  -3.501794 -1.405704 -2.201180
      ESP Fit Center  160 is at  -5.288160 -0.825278 -2.201180
      ESP Fit Center  161 is at  -5.288160 -1.986130 -2.201180
      ESP Fit Center  162 is at  -4.184125 -2.344853 -2.201180
      ESP Fit Center  163 is at  -4.489273 -1.405704 -2.522031
      ESP Fit Center  164 is at  -5.156708  1.638438 -0.139922
      ESP Fit Center  165 is at  -6.233046  1.448651 -0.139922
      ESP Fit Center  166 is at  -6.935576  0.611408 -0.139922
      ESP Fit Center  167 is at  -5.156708  1.638438 -1.178220
      ESP Fit Center  168 is at  -6.233046  1.448651 -1.178220
      ESP Fit Center  169 is at  -6.935576  0.611408 -1.178220
      ESP Fit Center  170 is at  -6.935576 -0.481534 -1.178220
      ESP Fit Center  171 is at  -5.129011  1.004086 -2.018220
      ESP Fit Center  172 is at  -6.233046  0.645363 -2.018220
      ESP Fit Center  173 is at  -6.233046 -0.515489 -2.018220
      ESP Fit Center  174 is at  -5.434159  0.064937 -2.339071
      ESP Fit Center  175 is at  -3.548488  0.226082  1.934481
      ESP Fit Center  176 is at  -3.058488  1.074787  1.671891
      ESP Fit Center  177 is at  -4.038488  1.074787  1.671891
      ESP Fit Center  178 is at  -3.023960  1.840415  0.954481
      ESP Fit Center  179 is at  -4.073016  1.840415  0.954481
      ESP Fit Center  180 is at  -4.921721  1.223794  0.954481
      ESP Fit Center  181 is at  -3.548488  2.186082 -0.025519
      ESP Fit Center  182 is at  -4.528488  1.923492 -0.025519
      ESP Fit Center  183 is at  -3.023960  1.840415 -1.005519
      ESP Fit Center  184 is at  -4.073016  1.840415 -1.005519
      ESP Fit Center  185 is at  -3.058488  1.074787 -1.722929
      ESP Fit Center  186 is at  -4.038488  1.074787 -1.722929
      ESP Fit Center  187 is at  -3.548488  0.226082 -1.985519
      ESP Fit Center  188 is at  -2.837965  0.475800  1.813025
      ESP Fit Center  189 is at  -3.057635 -2.397061 -0.005628
      ESP Fit Center  190 is at  -2.059838 -2.518216 -0.005628
      ESP Fit Center  191 is at  -1.120029 -2.161793 -0.005628
      ESP Fit Center  192 is at  -3.001238 -2.449963 -0.363990
      ESP Fit Center  193 is at  -1.924900 -2.639750 -0.363990
      ESP Fit Center  194 is at  -0.978384 -2.093279 -0.363990
      ESP Fit Center  195 is at  -3.001238 -2.449963 -1.402288
      ESP Fit Center  196 is at  -1.924900 -2.639750 -1.402288
      ESP Fit Center  197 is at  -0.978384 -2.093279 -1.402288
      ESP Fit Center  198 is at  -1.214872 -1.066249 -2.242288
      ESP Fit Center  199 is at  -1.897203 -0.127100 -2.242288
      ESP Fit Center  200 is at  -3.001238 -0.485823 -2.242288
      ESP Fit Center  201 is at  -3.001238 -1.646675 -2.242288
      ESP Fit Center  202 is at  -1.897203 -2.005398 -2.242288
      ESP Fit Center  203 is at  -2.202351 -1.066249 -2.563139
      ESP Fit Center  204 is at  -2.208756 -1.056262  2.552589
      ESP Fit Center  205 is at  -1.221277 -1.056262  2.231738
      ESP Fit Center  206 is at  -1.903608 -0.117113  2.231738
      ESP Fit Center  207 is at  -3.007643 -0.475836  2.231738
      ESP Fit Center  208 is at  -1.903608 -1.995411  2.231738
      ESP Fit Center  209 is at  -1.931305 -2.629763  1.391738
      ESP Fit Center  210 is at  -0.984789 -2.083292  1.391738
      ESP Fit Center  211 is at  -1.931305 -2.629763  0.353440
      ESP Fit Center  212 is at  -0.984789 -2.083292  0.353440
      ESP Fit Center  213 is at  -0.990145  2.723238 -0.016215
      ESP Fit Center  214 is at  -1.987942  2.602083 -0.016215
      ESP Fit Center  215 is at  -0.718272 -0.270778 -1.834868
      ESP Fit Center  216 is at  -1.358201  1.282014  2.533405
      ESP Fit Center  217 is at  -0.370722  1.282014  2.212554
      ESP Fit Center  218 is at  -1.053053  2.221163  2.212554
      ESP Fit Center  219 is at  -2.157088  1.862440  2.212554
      ESP Fit Center  220 is at  -2.157088  0.701588  2.212554
      ESP Fit Center  221 is at  -1.053053  0.342865  2.212554
      ESP Fit Center  222 is at  -1.080750  2.855515  1.372554
      ESP Fit Center  223 is at  -2.157088  2.665728  1.372554
      ESP Fit Center  224 is at  -2.859618  1.828485  1.372554
      ESP Fit Center  225 is at  -1.080750  2.855515  0.334256
      ESP Fit Center  226 is at  -2.157088  2.665728  0.334256
      ESP Fit Center  227 is at  -1.071282  2.830924 -0.385171
      ESP Fit Center  228 is at  -2.147620  2.641137 -0.385171
      ESP Fit Center  229 is at  -1.071282  2.830924 -1.423469
      ESP Fit Center  230 is at  -2.147620  2.641137 -1.423469
      ESP Fit Center  231 is at  -2.850150  1.803894 -1.423469
      ESP Fit Center  232 is at  -0.361254  1.257423 -2.263469
      ESP Fit Center  233 is at  -1.043585  2.196572 -2.263469
      ESP Fit Center  234 is at  -2.147620  1.837849 -2.263469
      ESP Fit Center  235 is at  -2.147620  0.676997 -2.263469
      ESP Fit Center  236 is at  -1.043585  0.318274 -2.263469
      ESP Fit Center  237 is at  -1.348733  1.257423 -2.584320
      ESP Fit Center  238 is at   0.000000  0.000000  1.960000
      ESP Fit Center  239 is at  -0.490000 -0.848705  1.697410
      ESP Fit Center  240 is at   0.490000 -0.848705  1.697410
      ESP Fit Center  241 is at  -0.524528 -1.614333  0.980000
      ESP Fit Center  242 is at   0.524528 -1.614333  0.980000
      ESP Fit Center  243 is at  -0.000000 -1.960000  0.000000
      ESP Fit Center  244 is at   0.980000 -1.697410  0.000000
      ESP Fit Center  245 is at  -0.524528 -1.614333 -0.980000
      ESP Fit Center  246 is at   0.524528 -1.614333 -0.980000
      ESP Fit Center  247 is at  -0.490000 -0.848705 -1.697410
      ESP Fit Center  248 is at   0.490000 -0.848705 -1.697410
      ESP Fit Center  249 is at   0.000000  0.000000 -1.960000
      ESP Fit Center  250 is at   1.350755  2.944914  0.000000
      ESP Fit Center  251 is at   0.352958  2.823759  0.000000
      ESP Fit Center  252 is at   1.071312  1.506112  2.555682
      ESP Fit Center  253 is at   1.376460  2.445261  2.234831
      ESP Fit Center  254 is at   0.272425  2.086538  2.234831
      ESP Fit Center  255 is at   0.272425  0.925686  2.234831
      ESP Fit Center  256 is at   1.376460  0.566963  2.234831
      ESP Fit Center  257 is at   1.348763  3.079613  1.394831
      ESP Fit Center  258 is at   0.272425  2.889826  1.394831
      ESP Fit Center  259 is at   1.348763  3.079613  0.356533
      ESP Fit Center  260 is at   0.272425  2.889826  0.356533
      ESP Fit Center  261 is at   1.362900  3.074207 -0.359619
      ESP Fit Center  262 is at   0.286562  2.884420 -0.359619
      ESP Fit Center  263 is at   2.309416  2.527736 -1.397917
      ESP Fit Center  264 is at   1.362900  3.074207 -1.397917
      ESP Fit Center  265 is at   0.286562  2.884420 -1.397917
      ESP Fit Center  266 is at   2.072928  1.500706 -2.237917
      ESP Fit Center  267 is at   1.390597  2.439855 -2.237917
      ESP Fit Center  268 is at   0.286562  2.081132 -2.237917
      ESP Fit Center  269 is at   0.286562  0.920280 -2.237917
      ESP Fit Center  270 is at   1.390597  0.561557 -2.237917
      ESP Fit Center  271 is at   1.085449  1.500706 -2.558768
      ESP Fit Center  272 is at   1.606436 -1.963534  0.000000
      ESP Fit Center  273 is at   3.544042 -1.728266  0.000000
      ESP Fit Center  274 is at   1.577200 -1.981073 -0.382959
      ESP Fit Center  275 is at   2.653538 -2.170860 -0.382959
      ESP Fit Center  276 is at   0.874670 -1.143830 -1.421257
      ESP Fit Center  277 is at   1.577200 -1.981073 -1.421257
      ESP Fit Center  278 is at   2.653538 -2.170860 -1.421257
      ESP Fit Center  279 is at   3.600054 -1.624389 -1.421257
      ESP Fit Center  280 is at   3.363566 -0.597359 -2.261257
      ESP Fit Center  281 is at   2.681235  0.341790 -2.261257
      ESP Fit Center  282 is at   1.577200 -0.016933 -2.261257
      ESP Fit Center  283 is at   1.577200 -1.177785 -2.261257
      ESP Fit Center  284 is at   2.681235 -1.536508 -2.261257
      ESP Fit Center  285 is at   2.376087 -0.597359 -2.582108
      ESP Fit Center  286 is at   2.328705 -0.685739  2.516760
      ESP Fit Center  287 is at   1.529818 -0.105313  2.195909
      ESP Fit Center  288 is at   1.529818 -1.266165  2.195909
      ESP Fit Center  289 is at   2.633853 -1.624888  2.195909
      ESP Fit Center  290 is at   0.827288 -1.232210  1.355909
      ESP Fit Center  291 is at   1.529818 -2.069453  1.355909
      ESP Fit Center  292 is at   2.606156 -2.259240  1.355909
      ESP Fit Center  293 is at   1.529818 -2.069453  0.317611
      ESP Fit Center  294 is at   2.606156 -2.259240  0.317611
      ESP Fit Center  295 is at   3.552672 -1.712769  0.317611
      ESP Fit Center  296 is at   6.278937  0.966429  0.560046
      ESP Fit Center  297 is at   6.042394  2.002792  0.560046
      ESP Fit Center  298 is at   4.421872  3.295116  0.560046
      ESP Fit Center  299 is at   3.358856  3.295116  0.560046
      ESP Fit Center  300 is at   2.401113  2.833891  0.560046
      ESP Fit Center  301 is at   4.421872 -1.362258  0.560046
      ESP Fit Center  302 is at   5.379615 -0.901033  0.560046
      ESP Fit Center  303 is at   6.278937  0.966429 -0.530306
      ESP Fit Center  304 is at   6.042394  2.002792 -0.530306
      ESP Fit Center  305 is at   5.379615  2.833891 -0.530306
      ESP Fit Center  306 is at   4.421872  3.295116 -0.530306
      ESP Fit Center  307 is at   3.358856  3.295116 -0.530306
      ESP Fit Center  308 is at   2.401113  2.833891 -0.530306
      ESP Fit Center  309 is at   4.421872 -1.362258 -0.530306
      ESP Fit Center  310 is at   5.379615 -0.901033 -0.530306
      ESP Fit Center  311 is at   6.042394 -0.069934 -0.530306
      ESP Fit Center  312 is at   5.805851  0.966429 -1.512680
      ESP Fit Center  313 is at   5.501774  2.002020 -1.512680
      ESP Fit Center  314 is at   4.686086  2.708817 -1.512680
      ESP Fit Center  315 is at   3.617762  2.862419 -1.512680
      ESP Fit Center  316 is at   2.635987  2.414058 -1.512680
      ESP Fit Center  317 is at   4.686086 -0.775959 -1.512680
      ESP Fit Center  318 is at   5.501774 -0.069162 -1.512680
      ESP Fit Center  319 is at   4.953379  0.966429 -2.192504
      ESP Fit Center  320 is at   4.421872  1.887027 -2.192504
      ESP Fit Center  321 is at   3.358856  1.887027 -2.192504
      ESP Fit Center  322 is at   2.827349  0.966429 -2.192504
      ESP Fit Center  323 is at   3.358856  0.045831 -2.192504
      ESP Fit Center  324 is at   4.421872  0.045831 -2.192504
      ESP Fit Center  325 is at   3.890364  0.966429 -2.435130
      ESP Fit Center  326 is at   3.351217  3.318081  1.782957
      ESP Fit Center  327 is at   5.049845  3.158407  3.174992
      ESP Fit Center  328 is at   5.022148  3.792759  2.334992
      ESP Fit Center  329 is at   3.945810  3.602972  2.334992
      ESP Fit Center  330 is at   5.968664  3.246288  1.296694
      ESP Fit Center  331 is at   5.022148  3.792759  1.296694
      ESP Fit Center  332 is at   3.945810  3.602972  1.296694
      ESP Fit Center  333 is at   5.049845  3.158407  0.456694
      ESP Fit Center  334 is at   3.452081  2.598069  3.563196
      ESP Fit Center  335 is at   2.348046  2.239346  3.563196
      ESP Fit Center  336 is at   2.348046  1.078494  3.563196
      ESP Fit Center  337 is at   3.424384  3.232421  2.723196
      ESP Fit Center  338 is at   2.348046  3.042634  2.723196
      ESP Fit Center  339 is at   1.645516  2.205391  2.723196
      ESP Fit Center  340 is at   1.645516  1.112449  2.723196
      ESP Fit Center  341 is at   2.348046  0.275206  2.723196
      ESP Fit Center  342 is at   2.348046  3.042634  1.684898
      ESP Fit Center  343 is at   5.932510 -1.661008  2.700429
      ESP Fit Center  344 is at   6.879026 -1.114537  2.700429
      ESP Fit Center  345 is at   7.252834 -0.087507  1.662131
      ESP Fit Center  346 is at   6.879026  0.939523  1.662131
      ESP Fit Center  347 is at   5.932510 -1.661008  1.662131
      ESP Fit Center  348 is at   6.879026 -1.114537  1.662131
      ESP Fit Center  349 is at   6.642538 -0.087507  0.822131
      ESP Fit Center  350 is at   5.960207 -1.026656  0.822131
      ESP Fit Center  351 is at   3.253861 -1.246670  3.891274
      ESP Fit Center  352 is at   2.551331 -0.119773  3.051274
      ESP Fit Center  353 is at   2.551331 -1.212715  3.051274
      ESP Fit Center  354 is at   3.253861 -2.049958  3.051274
      ESP Fit Center  355 is at   4.330199 -2.239745  3.051274
      ESP Fit Center  356 is at   3.253861 -2.049958  2.012976
      ESP Fit Center  357 is at   4.330199 -2.239745  2.012976
      ESP Fit Center  358 is at   4.357896 -1.605393  1.172976
      ESP Fit Center  359 is at   4.891884  0.581626  6.813501
      ESP Fit Center  360 is at   5.423392  1.502224  6.570875
      ESP Fit Center  361 is at   4.360376  1.502224  6.570875
      ESP Fit Center  362 is at   3.828869  0.581626  6.570875
      ESP Fit Center  363 is at   4.360376 -0.338972  6.570875
      ESP Fit Center  364 is at   5.423392 -0.338972  6.570875
      ESP Fit Center  365 is at   5.687606  2.324014  5.891051
      ESP Fit Center  366 is at   4.619282  2.477616  5.891051
      ESP Fit Center  367 is at   3.637507  2.029255  5.891051
      ESP Fit Center  368 is at   3.053988  1.121281  5.891051
      ESP Fit Center  369 is at   3.053988  0.041971  5.891051
      ESP Fit Center  370 is at   3.637507 -0.866003  5.891051
      ESP Fit Center  371 is at   4.619282 -1.314364  5.891051
      ESP Fit Center  372 is at   5.687606 -1.160762  5.891051
      ESP Fit Center  373 is at   4.360376  2.910313  4.908677
      ESP Fit Center  374 is at   3.402633  2.449088  4.908677
      ESP Fit Center  375 is at   2.739854  1.617989  4.908677
      ESP Fit Center  376 is at   2.503311  0.581626  4.908677
      ESP Fit Center  377 is at   2.739854 -0.454737  4.908677
      ESP Fit Center  378 is at   3.402633 -1.285836  4.908677
      ESP Fit Center  379 is at   4.360376 -1.747061  4.908677
      ESP Fit Center  380 is at   5.423392 -1.747061  4.908677
      ESP Fit Center  381 is at   6.381135 -1.285836  4.908677
      ESP Fit Center  382 is at   4.360376  2.910313  3.818325
      ESP Fit Center  383 is at   3.402633  2.449088  3.818325
      ESP Fit Center  384 is at   2.503311  0.581626  3.818325
      ESP Fit Center  385 is at   2.739854 -0.454737  3.818325
      ESP Fit Center  386 is at   4.360376 -1.747061  3.818325
      ESP Fit Center  387 is at   5.423392 -1.747061  3.818325
      ESP Fit Center  388 is at   7.426222 -0.712754  5.563142
      ESP Fit Center  389 is at   7.533464 -0.814982  5.433279
      ESP Fit Center  390 is at   7.505767 -1.449334  4.593279
      ESP Fit Center  391 is at   8.452283 -0.902863  4.593279
      ESP Fit Center  392 is at   6.429429 -1.259547  3.554981
      ESP Fit Center  393 is at   7.505767 -1.449334  3.554981
      ESP Fit Center  394 is at   8.452283 -0.902863  3.554981
      ESP Fit Center  395 is at   7.533464 -0.814982  2.714981
      ESP Fit Center  396 is at   6.866938  0.926784  7.257328
      ESP Fit Center  397 is at   7.854417  0.926784  6.936477
      ESP Fit Center  398 is at   7.172086  1.865933  6.936477
      ESP Fit Center  399 is at   6.068051  1.507210  6.936477
      ESP Fit Center  400 is at   6.068051  0.346358  6.936477
      ESP Fit Center  401 is at   7.172086 -0.012365  6.936477
      ESP Fit Center  402 is at   8.464713  0.926784  6.096477
      ESP Fit Center  403 is at   7.144389  2.500285  6.096477
      ESP Fit Center  404 is at   6.068051  2.310498  6.096477
      ESP Fit Center  405 is at   7.144389 -0.646717  6.096477
      ESP Fit Center  406 is at   8.090905 -0.100246  6.096477
      ESP Fit Center  407 is at   6.844536  4.085179  2.881466
      ESP Fit Center  408 is at   7.201006  3.901923  2.345185
      ESP Fit Center  409 is at   6.124668  3.712136  2.345185
      ESP Fit Center  410 is at   7.201006  0.754921  2.345185
      ESP Fit Center  411 is at   7.228703  3.267571  1.505185
      ESP Fit Center  412 is at   7.228703  1.389273  1.505185
      ESP Fit Center  413 is at   6.923555  2.328422  1.184334
      ESP Fit Center  414 is at   6.530720  3.082200  6.067451
      ESP Fit Center  415 is at   6.835868  4.021349  5.746600
      ESP Fit Center  416 is at   5.731833  3.662626  5.746600
      ESP Fit Center  417 is at   5.731833  2.501774  5.746600
      ESP Fit Center  418 is at   6.808171  4.655701  4.906600
      ESP Fit Center  419 is at   5.731833  4.465914  4.906600
      ESP Fit Center  420 is at   5.029303  3.628671  4.906600
      ESP Fit Center  421 is at   6.808171  4.655701  3.868302
      ESP Fit Center  422 is at   5.731833  4.465914  3.868302
      ESP Fit Center  423 is at   5.029303  3.628671  3.868302
      ESP Fit Center  424 is at   5.731833  3.662626  3.028302
      ESP Fit Center  425 is at   8.848529  2.690731  6.691974
      ESP Fit Center  426 is at   9.911544  2.690731  6.449348
      ESP Fit Center  427 is at   9.380037  3.611329  6.449348
      ESP Fit Center  428 is at   8.317021  3.611329  6.449348
      ESP Fit Center  429 is at   7.785514  2.690731  6.449348
      ESP Fit Center  430 is at   8.317021  1.770133  6.449348
      ESP Fit Center  431 is at   9.380037  1.770133  6.449348
      ESP Fit Center  432 is at  10.764016  2.690731  5.769524
      ESP Fit Center  433 is at  10.459939  3.726322  5.769524
      ESP Fit Center  434 is at   9.644251  4.433119  5.769524
      ESP Fit Center  435 is at   8.575927  4.586721  5.769524
      ESP Fit Center  436 is at   7.594152  4.138360  5.769524
      ESP Fit Center  437 is at   8.575927  0.794741  5.769524
      ESP Fit Center  438 is at   9.644251  0.948343  5.769524
      ESP Fit Center  439 is at  10.459939  1.655140  5.769524
      ESP Fit Center  440 is at  11.000559  3.727094  4.787150
      ESP Fit Center  441 is at  10.337780  4.558193  4.787150
      ESP Fit Center  442 is at   9.380037  5.019418  4.787150
      ESP Fit Center  443 is at   8.317021  5.019418  4.787150
      ESP Fit Center  444 is at   7.359278  4.558193  4.787150
      ESP Fit Center  445 is at  10.337780  4.558193  3.696798
      ESP Fit Center  446 is at   9.380037  5.019418  3.696798
      ESP Fit Center  447 is at   8.317021  5.019418  3.696798
      ESP Fit Center  448 is at   7.359278  4.558193  3.696798
      ESP Fit Center  449 is at   9.644251  4.433119  2.714424
      ESP Fit Center  450 is at   8.575927  4.586721  2.714424
      ESP Fit Center  451 is at   7.594152  4.138360  2.714424
      ESP Fit Center  452 is at   9.380037  3.611329  2.034600
      ESP Fit Center  453 is at   8.317021  3.611329  2.034600
      ESP Fit Center  454 is at  10.222613  0.736242  4.835860
      ESP Fit Center  455 is at  10.453109 -0.008736  1.967207
      ESP Fit Center  456 is at  10.222613  0.736242  1.198554
      ESP Fit Center  457 is at   9.813876 -0.338141  4.590358
      ESP Fit Center  458 is at   8.709841 -0.782706  3.750358
      ESP Fit Center  459 is at   9.786179 -0.972493  3.750358
      ESP Fit Center  460 is at  10.732695 -0.426022  3.750358
      ESP Fit Center  461 is at   8.709841 -0.782706  2.712060
      ESP Fit Center  462 is at   9.786179 -0.972493  2.712060
      ESP Fit Center  463 is at  10.732695 -0.426022  2.712060
      ESP Fit Center  464 is at   8.709841  0.020582  1.872060
      ESP Fit Center  465 is at   9.813876 -0.338141  1.872060
      ESP Fit Center  466 is at   9.575162  3.438831  1.514846
      ESP Fit Center  467 is at   8.498824  3.249044  1.514846
      ESP Fit Center  468 is at   7.796294  1.318859  1.514846
      ESP Fit Center  469 is at   8.498824  0.481616  1.514846
      ESP Fit Center  470 is at  10.285190  1.865330  0.674846
      ESP Fit Center  471 is at   9.602859  2.804479  0.674846
      ESP Fit Center  472 is at   8.498824  2.445756  0.674846
      ESP Fit Center  473 is at   8.498824  1.284904  0.674846
      ESP Fit Center  474 is at   9.602859  0.926181  0.674846
      ESP Fit Center  475 is at   9.297711  1.865330  0.353995
      ESP Fit Center  476 is at  10.939931  0.119658  4.099608
      ESP Fit Center  477 is at  13.298752  1.919800  3.049608
      ESP Fit Center  478 is at  10.673752  2.829127  1.230955
      ESP Fit Center  479 is at  11.717222  3.895755  4.174513
      ESP Fit Center  480 is at  13.009849  2.956606  3.334513
      ESP Fit Center  481 is at  12.636041  3.983636  3.334513
      ESP Fit Center  482 is at  11.689525  4.530107  3.334513
      ESP Fit Center  483 is at  10.613187  4.340320  3.334513
      ESP Fit Center  484 is at  13.009849  2.956606  2.296215
      ESP Fit Center  485 is at  12.636041  3.983636  2.296215
      ESP Fit Center  486 is at  11.689525  4.530107  2.296215
      ESP Fit Center  487 is at  10.613187  4.340320  2.296215
      ESP Fit Center  488 is at  12.399553  2.956606  1.456215
      ESP Fit Center  489 is at  11.717222  3.895755  1.456215
      ESP Fit Center  490 is at  10.613187  3.537032  1.456215
      ESP Fit Center  491 is at  11.412074  2.956606  1.135364
      ESP Fit Center  492 is at  11.616113  1.699811  5.706011
      ESP Fit Center  493 is at  12.603592  1.699811  5.385160
      ESP Fit Center  494 is at  11.921261  2.638960  5.385160
      ESP Fit Center  495 is at  10.817226  1.119385  5.385160
      ESP Fit Center  496 is at  11.921261  0.760662  5.385160
      ESP Fit Center  497 is at  13.213888  1.699811  4.545160
      ESP Fit Center  498 is at  12.840080  2.726841  4.545160
      ESP Fit Center  499 is at  11.893564  3.273312  4.545160
      ESP Fit Center  500 is at  10.817226  0.316097  4.545160
      ESP Fit Center  501 is at  11.893564  0.126310  4.545160
      ESP Fit Center  502 is at  12.840080  0.672781  4.545160
      ESP Fit Center  503 is at  12.840080  0.672781  3.506862
      ESP Fit Center  504 is at  13.302143  1.296548  2.838470
      ESP Fit Center  505 is at  11.981819 -0.276953  2.838470
      ESP Fit Center  506 is at  12.928335  0.269518  2.838470
      ESP Fit Center  507 is at  13.302143  1.296548  1.800172
      ESP Fit Center  508 is at  12.928335  2.323578  1.800172
      ESP Fit Center  509 is at  10.905481 -0.087166  1.800172
      ESP Fit Center  510 is at  11.981819 -0.276953  1.800172
      ESP Fit Center  511 is at  12.928335  0.269518  1.800172
      ESP Fit Center  512 is at  12.691847  1.296548  0.960172
      ESP Fit Center  513 is at  12.009516  2.235697  0.960172
      ESP Fit Center  514 is at  10.905481  1.876974  0.960172
      ESP Fit Center  515 is at  10.905481  0.716122  0.960172
      ESP Fit Center  516 is at  12.009516  0.357399  0.960172
      ESP Fit Center  517 is at  11.704368  1.296548  0.639321
      ESP Fit Center  518 is at  -7.134940 -2.002256  4.532583
      ESP Fit Center  519 is at  -7.706550 -2.891699  4.532583
      ESP Fit Center  520 is at  -8.014273 -4.435554  3.570257
      ESP Fit Center  521 is at  -7.365020 -5.249691  3.570257
      ESP Fit Center  522 is at  -6.426822 -5.701504  3.570257
      ESP Fit Center  523 is at  -4.447304 -5.249691  3.570257
      ESP Fit Center  524 is at  -8.014273 -4.435554  2.502157
      ESP Fit Center  525 is at  -6.947483 -3.420341  0.873882
      ESP Fit Center  526 is at  -5.906162 -3.420341  0.636207
      ESP Fit Center  527 is at  -7.344636 -1.339721  3.726734
      ESP Fit Center  528 is at  -8.176020 -1.943757  3.726734
      ESP Fit Center  529 is at  -8.493581 -2.921108  3.726734
      ESP Fit Center  530 is at  -8.176020 -3.898459  3.726734
      ESP Fit Center  531 is at  -7.790812 -1.258339  2.766734
      ESP Fit Center  532 is at  -8.493581 -1.961108  2.766734
      ESP Fit Center  533 is at  -8.750812 -2.921108  2.766734
      ESP Fit Center  534 is at  -8.493581 -3.881108  2.766734
      ESP Fit Center  535 is at  -8.176020 -1.943757  1.806734
      ESP Fit Center  536 is at  -8.493581 -2.921108  1.806734
      ESP Fit Center  537 is at  -8.176020 -3.898459  1.806734
      ESP Fit Center  538 is at  -7.790812 -2.921108  1.103965
      ESP Fit Center  539 is at  -7.310812 -3.752492  1.103965
      ESP Fit Center  540 is at  -6.284190 -5.848475  3.332070
      ESP Fit Center  541 is at  -5.256542 -5.848475  3.332070
      ESP Fit Center  542 is at  -7.433135 -5.227088  2.372070
      ESP Fit Center  543 is at  -6.730366 -5.929857  2.372070
      ESP Fit Center  544 is at  -5.770366 -6.187088  2.372070
      ESP Fit Center  545 is at  -4.810366 -5.929857  2.372070
      ESP Fit Center  546 is at  -4.107597 -5.227088  2.372070
      ESP Fit Center  547 is at  -4.107597 -4.267088  1.412070
      ESP Fit Center  548 is at  -7.115574 -5.244439  1.412070
      ESP Fit Center  549 is at  -6.284190 -5.848475  1.412070
      ESP Fit Center  550 is at  -5.256542 -5.848475  1.412070
      ESP Fit Center  551 is at  -4.425158 -5.244439  1.412070
      ESP Fit Center  552 is at  -4.810366 -4.267088  0.709301
      ESP Fit Center  553 is at  -6.730366 -4.267088  0.709301
      ESP Fit Center  554 is at  -6.250366 -5.098472  0.709301
      ESP Fit Center  555 is at  -5.290366 -5.098472  0.709301
      ESP Fit Center  556 is at  -5.770366 -4.267088  0.452070
      ESP Fit Center  557 is at  -6.016709 -3.794073  5.969795
      ESP Fit Center  558 is at  -5.056709 -3.794073  5.712564
      ESP Fit Center  559 is at  -5.536709 -2.962689  5.712564
      ESP Fit Center  560 is at  -6.496709 -2.962689  5.712564
      ESP Fit Center  561 is at  -6.976709 -3.794073  5.712564
      ESP Fit Center  562 is at  -6.496709 -4.625457  5.712564
      ESP Fit Center  563 is at  -5.536709 -4.625457  5.712564
      ESP Fit Center  564 is at  -4.353940 -3.794073  5.009795
      ESP Fit Center  565 is at  -7.361917 -2.816722  5.009795
      ESP Fit Center  566 is at  -7.679478 -3.794073  5.009795
      ESP Fit Center  567 is at  -7.361917 -4.771424  5.009795
      ESP Fit Center  568 is at  -6.530533 -5.375460  5.009795
      ESP Fit Center  569 is at  -5.502885 -5.375460  5.009795
      ESP Fit Center  570 is at  -4.671501 -4.771424  5.009795
      ESP Fit Center  571 is at  -7.679478 -4.754073  4.049795
      ESP Fit Center  572 is at  -6.976709 -5.456842  4.049795
      ESP Fit Center  573 is at  -6.016709 -5.714073  4.049795
      ESP Fit Center  574 is at  -5.056709 -5.456842  4.049795
      ESP Fit Center  575 is at  -4.705585 -2.486813  5.352769
      ESP Fit Center  576 is at  -3.127061 -1.472357  4.449145
      ESP Fit Center  577 is at  -2.597474 -1.471600  3.486819
      ESP Fit Center  578 is at  -4.848883 -1.624755  5.521984
      ESP Fit Center  579 is at  -3.888883 -1.624755  5.264753
      ESP Fit Center  580 is at  -4.368883 -0.793371  5.264753
      ESP Fit Center  581 is at  -5.328883 -0.793371  5.264753
      ESP Fit Center  582 is at  -5.808883 -1.624755  5.264753
      ESP Fit Center  583 is at  -3.503675 -0.647404  4.561984
      ESP Fit Center  584 is at  -4.335059 -0.043368  4.561984
      ESP Fit Center  585 is at  -5.362707 -0.043368  4.561984
      ESP Fit Center  586 is at  -6.194091 -0.647404  4.561984
      ESP Fit Center  587 is at  -6.511652 -1.624755  4.561984
      ESP Fit Center  588 is at  -3.186114 -0.664755  3.601984
      ESP Fit Center  589 is at  -3.888883  0.038014  3.601984
      ESP Fit Center  590 is at  -4.848883  0.295245  3.601984
      ESP Fit Center  591 is at  -6.511652 -0.664755  3.601984
      ESP Fit Center  592 is at  -3.816845 -3.004804  5.210101
      ESP Fit Center  593 is at  -2.856845 -3.004804  4.952870
      ESP Fit Center  594 is at  -3.336845 -2.173420  4.952870
      ESP Fit Center  595 is at  -4.296845 -3.836188  4.952870
      ESP Fit Center  596 is at  -3.336845 -3.836188  4.952870
      ESP Fit Center  597 is at  -2.154076 -3.004804  4.250101
      ESP Fit Center  598 is at  -2.471637 -2.027453  4.250101
      ESP Fit Center  599 is at  -3.303021 -4.586191  4.250101
      ESP Fit Center  600 is at  -2.471637 -3.982155  4.250101
      ESP Fit Center  601 is at  -1.896845 -3.004804  3.290101
      ESP Fit Center  602 is at  -2.154076 -2.044804  3.290101
      ESP Fit Center  603 is at  -3.816845 -4.924804  3.290101
      ESP Fit Center  604 is at  -2.856845 -4.667573  3.290101
      ESP Fit Center  605 is at  -2.154076 -3.964804  3.290101
      ESP Fit Center  606 is at  -2.154076 -3.004804  2.330101
      ESP Fit Center  607 is at  -3.303021 -4.586191  2.330101
      ESP Fit Center  608 is at  -2.471637 -3.982155  2.330101
      ESP Fit Center  609 is at  -4.160797 -4.228834  1.149500
      ESP Fit Center  610 is at  -3.183468 -3.858182  1.149500
      ESP Fit Center  611 is at  -2.490337 -3.075798  1.149500
      ESP Fit Center  612 is at  -4.965212 -3.726506  0.251330
      ESP Fit Center  613 is at  -3.882848 -3.726506  0.251330
      ESP Fit Center  614 is at  -3.007196 -3.090308  0.251330
      ESP Fit Center  615 is at  -7.367351 -0.055541  1.659869
      ESP Fit Center  616 is at  -6.718098  0.758596  0.591769
      ESP Fit Center  617 is at  -4.867186  0.591726  3.485515
      ESP Fit Center  618 is at  -5.827186  0.591726  3.485515
      ESP Fit Center  619 is at  -6.307186 -0.239658  3.485515
      ESP Fit Center  620 is at  -3.684417 -0.239658  2.782746
      ESP Fit Center  621 is at  -4.001978  0.737693  2.782746
      ESP Fit Center  622 is at  -4.833362  1.341729  2.782746
      ESP Fit Center  623 is at  -5.861010  1.341729  2.782746
      ESP Fit Center  624 is at  -6.692394  0.737693  2.782746
      ESP Fit Center  625 is at  -7.009955 -0.239658  2.782746
      ESP Fit Center  626 is at  -4.387186  1.423111  1.822746
      ESP Fit Center  627 is at  -5.347186  1.680342  1.822746
      ESP Fit Center  628 is at  -6.307186  1.423111  1.822746
      ESP Fit Center  629 is at  -7.009955  0.720342  1.822746
      ESP Fit Center  630 is at  -5.861010  1.341729  0.862746
      ESP Fit Center  631 is at  -7.603536 -0.484784  1.900770
      ESP Fit Center  632 is at  -7.921097 -1.462135  1.900770
      ESP Fit Center  633 is at  -7.921097 -0.502135  0.940770
      ESP Fit Center  634 is at  -8.178328 -1.462135  0.940770
      ESP Fit Center  635 is at  -7.921097 -2.422135  0.940770
      ESP Fit Center  636 is at  -7.603536 -0.484784 -0.019230
      ESP Fit Center  637 is at  -7.921097 -1.462135 -0.019230
      ESP Fit Center  638 is at  -7.603536 -2.439486 -0.019230
      ESP Fit Center  639 is at  -6.772152 -3.043522 -0.019230
      ESP Fit Center  640 is at  -7.218328 -1.462135 -0.721999
      ESP Fit Center  641 is at  -6.738328 -2.293519 -0.721999
      ESP Fit Center  642 is at  -5.209845  1.717227  0.350076
      ESP Fit Center  643 is at  -4.168525  0.337874 -2.346299
      ESP Fit Center  644 is at  -4.689185 -0.563936 -2.583974
      ESP Fit Center  645 is at  -6.152042 -2.365704 -0.842031
      ESP Fit Center  646 is at  -5.449273 -3.068473 -0.842031
      ESP Fit Center  647 is at  -4.489273 -3.325704 -0.842031
      ESP Fit Center  648 is at  -3.529273 -3.068473 -0.842031
      ESP Fit Center  649 is at  -5.834481 -2.383055 -1.802031
      ESP Fit Center  650 is at  -5.003097 -2.987091 -1.802031
      ESP Fit Center  651 is at  -3.975449 -2.987091 -1.802031
      ESP Fit Center  652 is at  -3.529273 -1.405704 -2.504800
      ESP Fit Center  653 is at  -4.009273 -0.574320 -2.504800
      ESP Fit Center  654 is at  -5.449273 -1.405704 -2.504800
      ESP Fit Center  655 is at  -4.969273 -2.237088 -2.504800
      ESP Fit Center  656 is at  -4.009273 -2.237088 -2.504800
      ESP Fit Center  657 is at  -4.489273 -1.405704 -2.762031
      ESP Fit Center  658 is at  -5.947983  1.646324  0.300929
      ESP Fit Center  659 is at  -6.779367  1.042288  0.300929
      ESP Fit Center  660 is at  -5.434159  1.984937 -0.659071
      ESP Fit Center  661 is at  -6.394159  1.727706 -0.659071
      ESP Fit Center  662 is at  -7.096928  1.024937 -0.659071
      ESP Fit Center  663 is at  -7.354159  0.064937 -0.659071
      ESP Fit Center  664 is at  -4.920335  1.646324 -1.619071
      ESP Fit Center  665 is at  -5.947983  1.646324 -1.619071
      ESP Fit Center  666 is at  -6.779367  1.042288 -1.619071
      ESP Fit Center  667 is at  -7.096928  0.064937 -1.619071
      ESP Fit Center  668 is at  -6.779367 -0.912414 -1.619071
      ESP Fit Center  669 is at  -4.954159  0.896321 -2.321840
      ESP Fit Center  670 is at  -5.914159  0.896321 -2.321840
      ESP Fit Center  671 is at  -6.394159  0.064937 -2.321840
      ESP Fit Center  672 is at  -5.914159 -0.766447 -2.321840
      ESP Fit Center  673 is at  -5.434159  0.064937 -2.579071
      ESP Fit Center  674 is at  -3.062538  1.067772  1.992651
      ESP Fit Center  675 is at  -4.089670  1.891670  1.371098
      ESP Fit Center  676 is at  -3.285255  2.393998  0.472928
      ESP Fit Center  677 is at  -4.322888  2.268006  0.472928
      ESP Fit Center  678 is at  -3.285255  2.393998 -0.523966
      ESP Fit Center  679 is at  -4.322888  2.268006 -0.523966
      ESP Fit Center  680 is at  -4.089670  1.891670 -1.422136
      ESP Fit Center  681 is at  -3.062538  1.067772 -2.043689
      ESP Fit Center  682 is at  -4.034438  1.067772 -2.043689
      ESP Fit Center  683 is at  -3.548488  0.226082 -2.265519
      ESP Fit Center  684 is at  -2.833625  0.468283  2.156697
      ESP Fit Center  685 is at  -2.833625  0.468283 -2.167953
      ESP Fit Center  686 is at  -2.202351 -2.986249 -0.883139
      ESP Fit Center  687 is at  -1.242351 -2.729018 -0.883139
      ESP Fit Center  688 is at  -0.539582 -2.026249 -0.883139
      ESP Fit Center  689 is at  -2.716175 -2.647636 -1.843139
      ESP Fit Center  690 is at  -1.688527 -2.647636 -1.843139
      ESP Fit Center  691 is at  -0.857143 -2.043600 -1.843139
      ESP Fit Center  692 is at  -1.242351 -1.066249 -2.545908
      ESP Fit Center  693 is at  -1.722351 -0.234865 -2.545908
      ESP Fit Center  694 is at  -2.682351 -0.234865 -2.545908
      ESP Fit Center  695 is at  -3.162351 -1.066249 -2.545908
      ESP Fit Center  696 is at  -2.682351 -1.897633 -2.545908
      ESP Fit Center  697 is at  -1.722351 -1.897633 -2.545908
      ESP Fit Center  698 is at  -2.202351 -1.066249 -2.803139
      ESP Fit Center  699 is at  -2.208756 -1.056262  2.792589
      ESP Fit Center  700 is at  -1.248756 -1.056262  2.535358
      ESP Fit Center  701 is at  -1.728756 -0.224878  2.535358
      ESP Fit Center  702 is at  -2.688756 -0.224878  2.535358
      ESP Fit Center  703 is at  -1.728756 -1.887646  2.535358
      ESP Fit Center  704 is at  -1.694932 -2.637649  1.832589
      ESP Fit Center  705 is at  -0.863548 -2.033613  1.832589
      ESP Fit Center  706 is at  -2.208756 -2.976262  0.872589
      ESP Fit Center  707 is at  -1.248756 -2.719031  0.872589
      ESP Fit Center  708 is at  -0.545987 -2.016262  0.872589
      ESP Fit Center  709 is at  -0.722612 -0.263261  2.146110
      ESP Fit Center  710 is at  -0.722612 -0.263261 -2.178540
      ESP Fit Center  711 is at  -1.358201  1.282014  2.773405
      ESP Fit Center  712 is at  -0.398201  1.282014  2.516174
      ESP Fit Center  713 is at  -0.878201  2.113398  2.516174
      ESP Fit Center  714 is at  -1.838201  2.113398  2.516174
      ESP Fit Center  715 is at  -2.318201  1.282014  2.516174
      ESP Fit Center  716 is at  -1.838201  0.450630  2.516174
      ESP Fit Center  717 is at  -0.878201  0.450630  2.516174
      ESP Fit Center  718 is at  -0.844377  2.863401  1.813405
      ESP Fit Center  719 is at  -1.872025  2.863401  1.813405
      ESP Fit Center  720 is at  -2.703409  2.259365  1.813405
      ESP Fit Center  721 is at  -0.398201  2.944783  0.853405
      ESP Fit Center  722 is at  -1.358201  3.202014  0.853405
      ESP Fit Center  723 is at  -2.318201  2.944783  0.853405
      ESP Fit Center  724 is at  -3.020970  2.242014  0.853405
      ESP Fit Center  725 is at  -0.388733  2.920192 -0.904320
      ESP Fit Center  726 is at  -1.348733  3.177423 -0.904320
      ESP Fit Center  727 is at  -2.308733  2.920192 -0.904320
      ESP Fit Center  728 is at  -3.011502  2.217423 -0.904320
      ESP Fit Center  729 is at  -0.834909  2.838810 -1.864320
      ESP Fit Center  730 is at  -1.862557  2.838810 -1.864320
      ESP Fit Center  731 is at  -2.693941  2.234774 -1.864320
      ESP Fit Center  732 is at  -0.388733  1.257423 -2.567089
      ESP Fit Center  733 is at  -0.868733  2.088807 -2.567089
      ESP Fit Center  734 is at  -1.828733  2.088807 -2.567089
      ESP Fit Center  735 is at  -2.308733  1.257423 -2.567089
      ESP Fit Center  736 is at  -1.828733  0.426039 -2.567089
      ESP Fit Center  737 is at  -0.868733  0.426039 -2.567089
      ESP Fit Center  738 is at  -1.348733  1.257423 -2.824320
      ESP Fit Center  739 is at   0.000000  0.000000  2.240000
      ESP Fit Center  740 is at  -0.485950 -0.841690  2.018170
      ESP Fit Center  741 is at   0.485950 -0.841690  2.018170
      ESP Fit Center  742 is at   0.541182 -1.665588  1.396617
      ESP Fit Center  743 is at   0.263233 -2.167916  0.498447
      ESP Fit Center  744 is at   0.263233 -2.167916 -0.498447
      ESP Fit Center  745 is at   0.541182 -1.665588 -1.396617
      ESP Fit Center  746 is at  -0.485950 -0.841690 -2.018170
      ESP Fit Center  747 is at   0.485950 -0.841690 -2.018170
      ESP Fit Center  748 is at   0.000000  0.000000 -2.240000
      ESP Fit Center  749 is at   1.071312  1.506112  2.795682
      ESP Fit Center  750 is at   0.591312  2.337496  2.538451
      ESP Fit Center  751 is at   0.111312  1.506112  2.538451
      ESP Fit Center  752 is at   0.591312  0.674728  2.538451
      ESP Fit Center  753 is at   1.585136  3.087499  1.835682
      ESP Fit Center  754 is at   0.557488  3.087499  1.835682
      ESP Fit Center  755 is at   2.031312  3.168881  0.875682
      ESP Fit Center  756 is at   1.071312  3.426112  0.875682
      ESP Fit Center  757 is at   0.111312  3.168881  0.875682
      ESP Fit Center  758 is at   2.045449  3.163475 -0.878768
      ESP Fit Center  759 is at   1.085449  3.420706 -0.878768
      ESP Fit Center  760 is at   0.125449  3.163475 -0.878768
      ESP Fit Center  761 is at   2.430657  2.478057 -1.838768
      ESP Fit Center  762 is at   1.599273  3.082093 -1.838768
      ESP Fit Center  763 is at   0.571625  3.082093 -1.838768
      ESP Fit Center  764 is at   2.045449  1.500706 -2.541537
      ESP Fit Center  765 is at   1.565449  2.332090 -2.541537
      ESP Fit Center  766 is at   0.605449  2.332090 -2.541537
      ESP Fit Center  767 is at   0.125449  1.500706 -2.541537
      ESP Fit Center  768 is at   0.605449  0.669322 -2.541537
      ESP Fit Center  769 is at   1.565449  0.669322 -2.541537
      ESP Fit Center  770 is at   1.085449  1.500706 -2.798768
      ESP Fit Center  771 is at   3.809964 -1.829350 -0.534050
      ESP Fit Center  772 is at   1.416087 -2.260128 -0.902108
      ESP Fit Center  773 is at   2.376087 -2.517359 -0.902108
      ESP Fit Center  774 is at   3.336087 -2.260128 -0.902108
      ESP Fit Center  775 is at   1.030879 -1.574710 -1.862108
      ESP Fit Center  776 is at   1.862263 -2.178746 -1.862108
      ESP Fit Center  777 is at   2.889911 -2.178746 -1.862108
      ESP Fit Center  778 is at   3.721295 -1.574710 -1.862108
      ESP Fit Center  779 is at   3.336087 -0.597359 -2.564877
      ESP Fit Center  780 is at   2.856087  0.234025 -2.564877
      ESP Fit Center  781 is at   1.896087  0.234025 -2.564877
      ESP Fit Center  782 is at   1.416087 -0.597359 -2.564877
      ESP Fit Center  783 is at   1.896087 -1.428743 -2.564877
      ESP Fit Center  784 is at   2.856087 -1.428743 -2.564877
      ESP Fit Center  785 is at   2.376087 -0.597359 -2.822108
      ESP Fit Center  786 is at   1.848705  0.145645  2.499529
      ESP Fit Center  787 is at   1.368705 -0.685739  2.499529
      ESP Fit Center  788 is at   1.848705 -1.517123  2.499529
      ESP Fit Center  789 is at   0.983497 -1.663090  1.796760
      ESP Fit Center  790 is at   1.814881 -2.267126  1.796760
      ESP Fit Center  791 is at   2.842529 -2.267126  1.796760
      ESP Fit Center  792 is at   1.368705 -2.348508  0.836760
      ESP Fit Center  793 is at   2.328705 -2.605739  0.836760
      ESP Fit Center  794 is at   3.288705 -2.348508  0.836760
      ESP Fit Center  795 is at   2.596933  3.206718  1.086384
      ESP Fit Center  796 is at   6.690364  0.966429  0.014870
      ESP Fit Center  797 is at   6.501286  1.977906  0.014870
      ESP Fit Center  798 is at   5.959589  2.852777  0.014870
      ESP Fit Center  799 is at   5.138431  3.472886  0.014870
      ESP Fit Center  800 is at   4.148715  3.754485  0.014870
      ESP Fit Center  801 is at   3.124108  3.659541  0.014870
      ESP Fit Center  802 is at   2.202987  3.200877  0.014870
      ESP Fit Center  803 is at   4.148715 -1.821627  0.014870
      ESP Fit Center  804 is at   5.138431 -1.540028  0.014870
      ESP Fit Center  805 is at   5.959589 -0.919919  0.014870
      ESP Fit Center  806 is at   6.501286 -0.045048  0.014870
      ESP Fit Center  807 is at   6.477227  0.966429 -1.056644
      ESP Fit Center  808 is at   6.253581  2.018601 -1.056644
      ESP Fit Center  809 is at   5.621313  2.888843 -1.056644
      ESP Fit Center  810 is at   4.689749  3.426682 -1.056644
      ESP Fit Center  811 is at   3.619963  3.539121 -1.056644
      ESP Fit Center  812 is at   2.596933  3.206718 -1.056644
      ESP Fit Center  813 is at   4.689749 -1.493824 -1.056644
      ESP Fit Center  814 is at   5.621313 -0.955985 -1.056644
      ESP Fit Center  815 is at   6.253581 -0.085743 -1.056644
      ESP Fit Center  816 is at   5.870263  0.966429 -1.965029
      ESP Fit Center  817 is at   5.605007  1.956378 -1.965029
      ESP Fit Center  818 is at   4.880313  2.681072 -1.965029
      ESP Fit Center  819 is at   3.890364  2.946328 -1.965029
      ESP Fit Center  820 is at   2.900415  2.681072 -1.965029
      ESP Fit Center  821 is at   4.880313 -0.748214 -1.965029
      ESP Fit Center  822 is at   5.605007 -0.023520 -1.965029
      ESP Fit Center  823 is at   4.961878  0.966429 -2.571993
      ESP Fit Center  824 is at   4.426121  1.894387 -2.571993
      ESP Fit Center  825 is at   3.354607  1.894387 -2.571993
      ESP Fit Center  826 is at   2.818850  0.966429 -2.571993
      ESP Fit Center  827 is at   3.354607  0.038471 -2.571993
      ESP Fit Center  828 is at   4.426121  0.038471 -2.571993
      ESP Fit Center  829 is at   3.890364  0.966429 -2.785130
      ESP Fit Center  830 is at   3.828848  3.211844  3.279333
      ESP Fit Center  831 is at   3.575227  3.635710  1.248907
      ESP Fit Center  832 is at   5.258521  3.800645  2.775843
      ESP Fit Center  833 is at   4.230873  3.800645  2.775843
      ESP Fit Center  834 is at   5.704697  3.882027  1.815843
      ESP Fit Center  835 is at   4.744697  4.139258  1.815843
      ESP Fit Center  836 is at   3.784697  3.882027  1.815843
      ESP Fit Center  837 is at   6.407466  2.219258  0.855843
      ESP Fit Center  838 is at   6.089905  3.196609  0.855843
      ESP Fit Center  839 is at   5.258521  3.800645  0.855843
      ESP Fit Center  840 is at   4.230873  3.800645  0.855843
      ESP Fit Center  841 is at   2.666933  2.490304  3.866816
      ESP Fit Center  842 is at   2.186933  1.658920  3.866816
      ESP Fit Center  843 is at   2.633109  3.240307  3.164047
      ESP Fit Center  844 is at   1.801725  2.636271  3.164047
      ESP Fit Center  845 is at   1.484164  1.658920  3.164047
      ESP Fit Center  846 is at   1.801725  0.681569  3.164047
      ESP Fit Center  847 is at   3.146933  3.578920  2.204047
      ESP Fit Center  848 is at   2.186933  3.321689  2.204047
      ESP Fit Center  849 is at   2.633109  3.240307  1.244047
      ESP Fit Center  850 is at   5.215500 -2.078710  3.122164
      ESP Fit Center  851 is at   6.168883 -1.668894  3.141280
      ESP Fit Center  852 is at   7.575059 -0.087507  2.181280
      ESP Fit Center  853 is at   5.655059 -2.007507  2.181280
      ESP Fit Center  854 is at   6.615059 -1.750276  2.181280
      ESP Fit Center  855 is at   7.317828 -1.047507  2.181280
      ESP Fit Center  856 is at   7.317828 -0.087507  1.221280
      ESP Fit Center  857 is at   7.000267  0.889844  1.221280
      ESP Fit Center  858 is at   6.168883 -1.668894  1.221280
      ESP Fit Center  859 is at   7.000267 -1.064858  1.221280
      ESP Fit Center  860 is at   6.615059 -0.087507  0.518511
      ESP Fit Center  861 is at   6.135059 -0.918891  0.518511
      ESP Fit Center  862 is at   2.389979 -0.666244  3.492125
      ESP Fit Center  863 is at   2.707540 -1.643595  3.492125
      ESP Fit Center  864 is at   3.538924 -2.247631  3.492125
      ESP Fit Center  865 is at   4.566572 -2.247631  3.492125
      ESP Fit Center  866 is at   2.389979 -1.626244  2.532125
      ESP Fit Center  867 is at   3.092748 -2.329013  2.532125
      ESP Fit Center  868 is at   4.052748 -2.586244  2.532125
      ESP Fit Center  869 is at   5.012748 -2.329013  2.532125
      ESP Fit Center  870 is at   3.538924 -2.247631  1.572125
      ESP Fit Center  871 is at   4.566572 -2.247631  1.572125
      ESP Fit Center  872 is at   4.891884  0.581626  7.163501
      ESP Fit Center  873 is at   5.427641  1.509584  6.950364
      ESP Fit Center  874 is at   4.356127  1.509584  6.950364
      ESP Fit Center  875 is at   3.820370  0.581626  6.950364
      ESP Fit Center  876 is at   4.356127 -0.346332  6.950364
      ESP Fit Center  877 is at   5.427641 -0.346332  6.950364
      ESP Fit Center  878 is at   4.891884  2.561525  6.343400
      ESP Fit Center  879 is at   3.901935  2.296269  6.343400
      ESP Fit Center  880 is at   3.177241  1.571575  6.343400
      ESP Fit Center  881 is at   2.911985  0.581626  6.343400
      ESP Fit Center  882 is at   3.177241 -0.408323  6.343400
      ESP Fit Center  883 is at   3.901935 -1.133017  6.343400
      ESP Fit Center  884 is at   4.891884 -1.398273  6.343400
      ESP Fit Center  885 is at   5.881833 -1.133017  6.343400
      ESP Fit Center  886 is at   4.621483  3.154318  5.435015
      ESP Fit Center  887 is at   3.598453  2.821915  5.435015
      ESP Fit Center  888 is at   2.799068  2.102146  5.435015
      ESP Fit Center  889 is at   2.361550  1.119465  5.435015
      ESP Fit Center  890 is at   2.361550  0.043787  5.435015
      ESP Fit Center  891 is at   2.799068 -0.938894  5.435015
      ESP Fit Center  892 is at   3.598453 -1.658663  5.435015
      ESP Fit Center  893 is at   4.621483 -1.991066  5.435015
      ESP Fit Center  894 is at   5.691269 -1.878627  5.435015
      ESP Fit Center  895 is at   6.622833 -1.340788  5.435015
      ESP Fit Center  896 is at   4.125628  3.274738  4.363501
      ESP Fit Center  897 is at   3.204507  2.816074  4.363501
      ESP Fit Center  898 is at   2.511276  2.055636  4.363501
      ESP Fit Center  899 is at   2.139559  1.096125  4.363501
      ESP Fit Center  900 is at   2.139559  0.067127  4.363501
      ESP Fit Center  901 is at   2.511276 -0.892384  4.363501
      ESP Fit Center  902 is at   3.204507 -1.652822  4.363501
      ESP Fit Center  903 is at   4.125628 -2.111486  4.363501
      ESP Fit Center  904 is at   5.150235 -2.206430  4.363501
      ESP Fit Center  905 is at   6.139951 -1.924831  4.363501
      ESP Fit Center  906 is at   2.361550  0.043787  3.291987
      ESP Fit Center  907 is at   5.691269 -1.878627  3.291987
      ESP Fit Center  908 is at   6.714492 -1.457220  5.034130
      ESP Fit Center  909 is at   7.742140 -1.457220  5.034130
      ESP Fit Center  910 is at   8.573524 -0.853184  5.034130
      ESP Fit Center  911 is at   7.228316 -1.795833  4.074130
      ESP Fit Center  912 is at   8.188316 -1.538602  4.074130
      ESP Fit Center  913 is at   6.714492 -1.457220  3.114130
      ESP Fit Center  914 is at   7.742140 -1.457220  3.114130
      ESP Fit Center  915 is at   7.708316 -0.707217  2.411361
      ESP Fit Center  916 is at   6.866938  0.926784  7.497328
      ESP Fit Center  917 is at   7.826938  0.926784  7.240097
      ESP Fit Center  918 is at   7.346938  1.758168  7.240097
      ESP Fit Center  919 is at   6.386938  1.758168  7.240097
      ESP Fit Center  920 is at   5.906938  0.926784  7.240097
      ESP Fit Center  921 is at   6.386938  0.095400  7.240097
      ESP Fit Center  922 is at   7.346938  0.095400  7.240097
      ESP Fit Center  923 is at   8.529707  0.926784  6.537328
      ESP Fit Center  924 is at   6.353114  2.508171  6.537328
      ESP Fit Center  925 is at   6.353114 -0.654603  6.537328
      ESP Fit Center  926 is at   7.380762 -0.654603  6.537328
      ESP Fit Center  927 is at   8.212146 -0.050567  6.537328
      ESP Fit Center  928 is at   7.437379  3.909809  1.904334
      ESP Fit Center  929 is at   6.409731  3.909809  1.904334
      ESP Fit Center  930 is at   7.437379  0.747035  1.904334
      ESP Fit Center  931 is at   7.403555  3.159806  1.201565
      ESP Fit Center  932 is at   6.443555  3.159806  1.201565
      ESP Fit Center  933 is at   6.443555  1.497038  1.201565
      ESP Fit Center  934 is at   7.403555  1.497038  1.201565
      ESP Fit Center  935 is at   6.923555  2.328422  0.944334
      ESP Fit Center  936 is at   6.530720  3.082200  6.307451
      ESP Fit Center  937 is at   7.010720  3.913584  6.050220
      ESP Fit Center  938 is at   6.050720  3.913584  6.050220
      ESP Fit Center  939 is at   5.570720  3.082200  6.050220
      ESP Fit Center  940 is at   7.044544  4.663587  5.347451
      ESP Fit Center  941 is at   6.016896  4.663587  5.347451
      ESP Fit Center  942 is at   5.185512  4.059551  5.347451
      ESP Fit Center  943 is at   6.530720  5.002200  4.387451
      ESP Fit Center  944 is at   5.570720  4.744969  4.387451
      ESP Fit Center  945 is at   4.867951  4.042200  4.387451
      ESP Fit Center  946 is at   6.016896  4.663587  3.427451
      ESP Fit Center  947 is at   5.185512  4.059551  3.427451
      ESP Fit Center  948 is at   8.848529  2.690731  7.041974
      ESP Fit Center  949 is at   9.920043  2.690731  6.828837
      ESP Fit Center  950 is at   9.384286  3.618689  6.828837
      ESP Fit Center  951 is at   8.312772  3.618689  6.828837
      ESP Fit Center  952 is at   7.777015  2.690731  6.828837
      ESP Fit Center  953 is at   8.312772  1.762773  6.828837
      ESP Fit Center  954 is at   9.384286  1.762773  6.828837
      ESP Fit Center  955 is at  10.828428  2.690731  6.221873
      ESP Fit Center  956 is at  10.563172  3.680680  6.221873
      ESP Fit Center  957 is at   9.838478  4.405374  6.221873
      ESP Fit Center  958 is at   8.848529  4.670630  6.221873
      ESP Fit Center  959 is at   7.858580  4.405374  6.221873
      ESP Fit Center  960 is at   7.133886  3.680680  6.221873
      ESP Fit Center  961 is at   8.848529  0.710832  6.221873
      ESP Fit Center  962 is at   9.838478  0.976088  6.221873
      ESP Fit Center  963 is at  10.563172  1.700782  6.221873
      ESP Fit Center  964 is at  11.211746  3.742903  5.313488
      ESP Fit Center  965 is at  10.579478  4.613145  5.313488
      ESP Fit Center  966 is at   9.647914  5.150984  5.313488
      ESP Fit Center  967 is at   8.578128  5.263423  5.313488
      ESP Fit Center  968 is at   7.555098  4.931020  5.313488
      ESP Fit Center  969 is at   9.647914  0.230478  5.313488
      ESP Fit Center  970 is at  10.917754  4.577079  4.241974
      ESP Fit Center  971 is at  10.096596  5.197188  4.241974
      ESP Fit Center  972 is at   9.106880  5.478787  4.241974
      ESP Fit Center  973 is at   8.082273  5.383843  4.241974
      ESP Fit Center  974 is at   7.161152  4.925179  4.241974
      ESP Fit Center  975 is at   9.647914  5.150984  3.170460
      ESP Fit Center  976 is at   8.578128  5.263423  3.170460
      ESP Fit Center  977 is at   7.555098  4.931020  3.170460
      ESP Fit Center  978 is at   9.838478  4.405374  2.262075
      ESP Fit Center  979 is at   8.848529  4.670630  2.262075
      ESP Fit Center  980 is at   7.858580  4.405374  2.262075
      ESP Fit Center  981 is at   8.312772  3.618689  1.655111
      ESP Fit Center  982 is at  10.477096 -0.061260  1.520831
      ESP Fit Center  983 is at   9.028728 -0.230376  4.893978
      ESP Fit Center  984 is at   9.988728 -0.230376  4.893978
      ESP Fit Center  985 is at   8.994904 -0.980379  4.191209
      ESP Fit Center  986 is at  10.022552 -0.980379  4.191209
      ESP Fit Center  987 is at  10.853936 -0.376343  4.191209
      ESP Fit Center  988 is at   8.548728 -1.061761  3.231209
      ESP Fit Center  989 is at   9.508728 -1.318992  3.231209
      ESP Fit Center  990 is at  10.468728 -1.061761  3.231209
      ESP Fit Center  991 is at   8.163520 -0.376343  2.271209
      ESP Fit Center  992 is at   8.994904 -0.980379  2.271209
      ESP Fit Center  993 is at  10.022552 -0.980379  2.271209
      ESP Fit Center  994 is at   9.028728 -0.230376  1.568440
      ESP Fit Center  995 is at   9.811535  3.446717  1.073995
      ESP Fit Center  996 is at   8.783887  3.446717  1.073995
      ESP Fit Center  997 is at   7.952503  2.842681  1.073995
      ESP Fit Center  998 is at   7.634942  1.865330  1.073995
      ESP Fit Center  999 is at   7.952503  0.887979  1.073995
      ESP Fit Center 1000 is at   8.783887  0.283943  1.073995
      ESP Fit Center 1001 is at  10.257711  1.865330  0.371226
      ESP Fit Center 1002 is at   9.777711  2.696714  0.371226
      ESP Fit Center 1003 is at   8.817711  2.696714  0.371226
      ESP Fit Center 1004 is at   8.337711  1.865330  0.371226
      ESP Fit Center 1005 is at   8.817711  1.033946  0.371226
      ESP Fit Center 1006 is at   9.777711  1.033946  0.371226
      ESP Fit Center 1007 is at   9.297711  1.865330  0.113995
      ESP Fit Center 1008 is at  11.978235  3.626629  4.545984
      ESP Fit Center 1009 is at  13.538579  1.919800  3.583658
      ESP Fit Center 1010 is at  13.306863  2.935013  3.583658
      ESP Fit Center 1011 is at  11.719412 -0.361363  3.583658
      ESP Fit Center 1012 is at  12.657610  0.090450  3.583658
      ESP Fit Center 1013 is at  13.306863  0.904587  3.583658
      ESP Fit Center 1014 is at  13.538579  1.919800  2.515558
      ESP Fit Center 1015 is at  11.719412  2.821610  0.887283
      ESP Fit Center 1016 is at  10.678092  2.821610  0.887283
      ESP Fit Center 1017 is at  11.892074  3.787990  4.478133
      ESP Fit Center 1018 is at  12.757282  3.933957  3.775364
      ESP Fit Center 1019 is at  11.925898  4.537993  3.775364
      ESP Fit Center 1020 is at  13.074843  3.916606  2.815364
      ESP Fit Center 1021 is at  12.372074  4.619375  2.815364
      ESP Fit Center 1022 is at  11.412074  4.876606  2.815364
      ESP Fit Center 1023 is at  10.452074  4.619375  2.815364
      ESP Fit Center 1024 is at  13.074843  2.956606  1.855364
      ESP Fit Center 1025 is at  12.757282  3.933957  1.855364
      ESP Fit Center 1026 is at  11.925898  4.537993  1.855364
      ESP Fit Center 1027 is at  10.898250  4.537993  1.855364
      ESP Fit Center 1028 is at  10.066866  3.933957  1.855364
      ESP Fit Center 1029 is at  12.372074  2.956606  1.152595
      ESP Fit Center 1030 is at  11.892074  3.787990  1.152595
      ESP Fit Center 1031 is at  10.932074  3.787990  1.152595
      ESP Fit Center 1032 is at  11.412074  2.956606  0.895364
      ESP Fit Center 1033 is at  11.616113  1.699811  5.946011
      ESP Fit Center 1034 is at  12.576113  1.699811  5.688780
      ESP Fit Center 1035 is at  12.096113  2.531195  5.688780
      ESP Fit Center 1036 is at  11.136113  0.868427  5.688780
      ESP Fit Center 1037 is at  12.096113  0.868427  5.688780
      ESP Fit Center 1038 is at  13.278882  1.699811  4.986011
      ESP Fit Center 1039 is at  12.961321  2.677162  4.986011
      ESP Fit Center 1040 is at  12.129937  3.281198  4.986011
      ESP Fit Center 1041 is at  11.102289  0.118424  4.986011
      ESP Fit Center 1042 is at  12.129937  0.118424  4.986011
      ESP Fit Center 1043 is at  12.961321  0.722460  4.986011
      ESP Fit Center 1044 is at  13.536113  1.699811  4.026011
      ESP Fit Center 1045 is at  13.278882  2.659811  4.026011
      ESP Fit Center 1046 is at  12.576113  0.037042  4.026011
      ESP Fit Center 1047 is at  13.278882  0.739811  4.026011
      ESP Fit Center 1048 is at  12.218192 -0.284839  3.279321
[...]
 1401 Fit       0.006149
 1402 Fit       0.003961
 1403 Fit       0.001192
 1404 Fit       0.010164
 1405 Fit       0.007587
 1406 Fit       0.005582
 1407 Fit       0.005318
 1408 Fit       0.007537
 1409 Fit       0.004637
 1410 Fit      -0.006292
 1411 Fit      -0.000296
 1412 Fit      -0.008192
 1413 Fit      -0.012110
 1414 Fit      -0.012472
 1415 Fit      -0.006510
 1416 Fit      -0.004673
 1417 Fit      -0.011267
 1418 Fit      -0.013762
 1419 Fit      -0.014312
 1420 Fit      -0.015366
 1421 Fit      -0.016470
 1422 Fit      -0.014712
 1423 Fit      -0.008082
 1424 Fit      -0.003838
 1425 Fit      -0.012121
 1426 Fit      -0.014548
 1427 Fit      -0.013540
 1428 Fit      -0.012212
 1429 Fit      -0.012570
 1430 Fit      -0.014652
 1431 Fit      -0.016669
 1432 Fit      -0.015957
 1433 Fit      -0.010801
 1434 Fit      -0.002171
 1435 Fit      -0.007005
 1436 Fit      -0.012420
 1437 Fit      -0.011452
 1438 Fit      -0.008167
 1439 Fit      -0.005837
 1440 Fit      -0.005637
 1441 Fit      -0.007474
 1442 Fit      -0.010477
 1443 Fit      -0.012515
 1444 Fit      -0.010873
 1445 Fit      -0.004250
 1446 Fit      -0.002938
 1447 Fit      -0.006088
 1448 Fit       0.004724
 1449 Fit       0.004582
 1450 Fit      -0.002922
 1451 Fit      -0.003212
 1452 Fit       0.002965
 1453 Fit       0.001452
 1454 Fit       0.000356
 1455 Fit       0.006247
 1456 Fit       0.007195
 1457 Fit       0.008681
 1458 Fit       0.012455
 1459 Fit       0.013396
 1460 Fit       0.015725
 1461 Fit       0.020098
 1462 Fit       0.002828
 1463 Fit      -0.000549
 1464 Fit       0.000080
 1465 Fit       0.003049
 1466 Fit       0.001501
 1467 Fit       0.001171
 1468 Fit       0.002376
 1469 Fit       0.004703
 1470 Fit      -0.001578
 1471 Fit       0.002170
 1472 Fit      -0.000202
 1473 Fit       0.001563
 1474 Fit       0.006591
 1475 Fit       0.010886
 1476 Fit       0.017973
 1477 Fit       0.014609
 1478 Fit       0.004451
 1479 Fit       0.003171
 1480 Fit       0.001101
 1481 Fit       0.002681
 1482 Fit       0.002781
 1483 Fit      -0.003606
 1484 Fit      -0.001027
 1485 Fit       0.003287
 1486 Fit       0.002549
 1487 Fit       0.002174
 1488 Fit       0.005096
 1489 Fit      -0.014294
 1490 Fit      -0.017066
 1491 Fit      -0.015738
 1492 Fit      -0.010714
 1493 Fit      -0.006123
 1494 Fit      -0.008824
 1495 Fit      -0.015714
 1496 Fit      -0.013987
 1497 Fit      -0.015477
 1498 Fit      -0.015939
 1499 Fit      -0.013206
 1500 Fit      -0.007139
 1501 Fit      -0.000549
 1502 Fit      -0.008445
 1503 Fit      -0.013009
 1504 Fit      -0.013459
 1505 Fit      -0.010911
 1506 Fit      -0.014660
 1507 Fit      -0.016440
 1508 Fit      -0.014354
 1509 Fit      -0.008053
 1510 Fit      -0.001638
 1511 Fit      -0.005064
 1512 Fit      -0.004720
 1513 Fit      -0.011392
 1514 Fit      -0.016375
 1515 Fit      -0.017737
 1516 Fit      -0.014084
 1517 Fit      -0.005710
 1518 Fit      -0.015183
 1519 Fit      -0.018379
 1520 Fit      -0.015653
 1521 Fit      -0.007640
 1522 Fit      -0.013802
 1523 Fit      -0.015627
 1524 Fit      -0.010581
 1525 Fit      -0.005587
 1526 Fit      -0.008918
 1527 Fit      -0.003378
 1528 Fit       0.011576
 1529 Fit       0.011723
 1530 Fit       0.003987
 1531 Fit       0.012003
 1532 Fit       0.009274
 1533 Fit       0.016076
 1534 Fit       0.012312
 1535 Fit       0.010605
 1536 Fit       0.017846
 1537 Fit       0.013362
 1538 Fit       0.011736
 1539 Fit       0.004886
 1540 Fit       0.003914
 1541 Fit       0.009249
 1542 Fit       0.017306
 1543 Fit       0.014204
 1544 Fit       0.011887
 1545 Fit       0.009190
 1546 Fit       0.007860
 1547 Fit       0.008733
 1548 Fit       0.010596
 1549 Fit       0.010186
 1550 Fit       0.010022
 1551 Fit       0.009257
 1552 Fit      -0.004988
 1553 Fit       0.000774
 1554 Fit       0.006269
 1555 Fit       0.002586
 1556 Fit       0.001791
 1557 Fit       0.010140
 1558 Fit       0.002797
 1559 Fit       0.003573
 1560 Fit       0.004728
 1561 Fit       0.007012
 1562 Fit      -0.000131
 1563 Fit      -0.002338
 1564 Fit       0.002074
 1565 Fit       0.001471
 1566 Fit      -0.001187
 1567 Fit      -0.008041
 1568 Fit       0.003189
 1569 Fit       0.002723
 1570 Fit       0.000574
 1571 Fit      -0.002365
 1572 Fit       0.003650
 1573 Fit       0.003600
 1574 Fit      -0.003455
 1575 Fit       0.001467
 1576 Fit      -0.002720
 1577 Fit      -0.002574
 1578 Fit       0.002055
 1579 Fit       0.002805
 1580 Fit       0.000684
 1581 Fit      -0.002890
 1582 Fit       0.004218
 1583 Fit       0.004283
 1584 Fit       0.003886
 1585 Fit       0.002693
 1586 Fit       0.004514
 1587 Fit       0.003673
 1588 Fit       0.004383
 1589 Fit       0.008700
 1590 Fit       0.007159
 1591 Fit       0.005858
 1592 Fit       0.005917
 1593 Fit       0.004185
 1594 Fit       0.010235
 1595 Fit       0.008899
 1596 Fit       0.007594
 1597 Fit       0.006987
 1598 Fit       0.005417
 1599 Fit       0.009941
 1600 Fit       0.008786
 1601 Fit       0.007931
 1602 Fit       0.007301
 1603 Fit       0.008699
 1604 Fit       0.004590
 1605 Fit       0.005504
 1606 Fit       0.003266
 1607 Fit       0.002799
 1608 Fit       0.002772
 1609 Fit       0.002892
 1610 Fit       0.003085
 1611 Fit       0.004036
 1612 Fit       0.003123
 1613 Fit       0.002647
 1614 Fit       0.003087
 1615 Fit       0.004384
 1616 Fit       0.007756
 1617 Fit       0.006443
 1618 Fit       0.010790
 1619 Fit       0.009306
 1620 Fit       0.008025
 1621 Fit       0.006508
 1622 Fit       0.004783
 1623 Fit       0.011144
 1624 Fit       0.009282
 1625 Fit       0.007308
 1626 Fit       0.005198
 1627 Fit       0.009622
 1628 Fit       0.006517
 1629 Fit       0.002859
 1630 Fit       0.002784
 1631 Fit       0.002467
 1632 Fit       0.002971
 1633 Fit       0.003048
 1634 Fit       0.002549
 1635 Fit       0.001118
 1636 Fit      -0.001867
 1637 Fit       0.003052
 1638 Fit       0.002861
 1639 Fit       0.002481
 1640 Fit       0.000802
 1641 Fit      -0.003772
 1642 Fit       0.002086
 1643 Fit       0.001434
 1644 Fit      -0.001505
 1645 Fit      -0.002381
 1646 Fit       0.007576
 1647 Fit       0.008068
 1648 Fit       0.008482
 1649 Fit       0.007552
 1650 Fit       0.006841
 1651 Fit       0.006782
 1652 Fit       0.007143
 1653 Fit       0.006975
 1654 Fit       0.006002
 1655 Fit       0.005660
 1656 Fit       0.005598
 1657 Fit       0.005653
 1658 Fit       0.005982
 1659 Fit       0.007076
 1660 Fit       0.004270
 1661 Fit       0.004085
 1662 Fit       0.004032
 1663 Fit       0.004164
 1664 Fit       0.004929
 1665 Fit       0.008685
 1666 Fit       0.006863
 1667 Fit       0.008666
 1668 Fit       0.004001
 1669 Fit       0.000827
 1670 Fit      -0.003409
 1671 Fit      -0.003654
 1672 Fit       0.007704
 1673 Fit       0.006087
 1674 Fit       0.006001
 1675 Fit       0.007412
 1676 Fit       0.008628
 1677 Fit       0.003293
 1678 Fit       0.004520
 1679 Fit       0.006408
 1680 Fit       0.007930
 1681 Fit       0.008661
 1682 Fit       0.000944
 1683 Fit       0.003503
 1684 Fit       0.006694
 1685 Fit       0.008749
 1686 Fit       0.009682
 1687 Fit       0.005407
 1688 Fit       0.006889
 1689 Fit       0.003200
 1690 Fit       0.002320
 1691 Fit       0.005806
 1692 Fit       0.004542
 1693 Fit       0.000309
 1694 Fit      -0.001146
 1695 Fit       0.004334
 1696 Fit       0.003278
 1697 Fit       0.001929
 1698 Fit      -0.004531
 1699 Fit       0.001393
 1700 Fit      -0.000214
 1701 Fit      -0.002141
 1702 Fit      -0.005715
 1703 Fit      -0.008817
 1704 Fit      -0.012419
 1705 Fit      -0.015182
 1706 Fit      -0.004656
 1707 Fit      -0.010139
 1708 Fit      -0.013111
 1709 Fit       0.010648
 1710 Fit       0.009362
 1711 Fit       0.010376
 1712 Fit      -0.003416
 1713 Fit       0.007479
 1714 Fit      -0.001882
 1715 Fit       0.000414
 1716 Fit       0.003793
 1717 Fit       0.006655
 1718 Fit       0.008862
 1719 Fit      -0.003854
 1720 Fit       0.001940
 1721 Fit       0.005795
 1722 Fit       0.008293
 1723 Fit      -0.000411
 1724 Fit       0.005943
 1725 Fit       0.010145
 1726 Fit       0.010651
 1727 Fit       0.010312
 1728 Fit       0.009887
 1729 Fit       0.009004
 1730 Fit       0.006660
 1731 Fit       0.010601
 1732 Fit       0.009221
 1733 Fit       0.007239
 1734 Fit       0.003998
 1735 Fit      -0.006658
 1736 Fit       0.008238
 1737 Fit       0.006805
 1738 Fit      -0.000599
 1739 Fit      -0.003263
 1740 Fit       0.003895
 1741 Fit       0.001323
 1742 Fit       0.004092
 1743 Fit       0.000211
 1744 Fit      -0.002470
 1745 Fit       0.006710
 1746 Fit       0.004903
 1747 Fit       0.002879
 1748 Fit       0.001575
 1749 Fit       0.001803
 1750 Fit       0.004476
 1751 Fit       0.004066
 1752 Fit       0.002911
 1753 Fit       0.002712
 1754 Fit      -0.002156
 1755 Fit       0.004487
 1756 Fit       0.008562
 1757 Fit       0.011685
 1758 Fit      -0.001390
 1759 Fit       0.004035
 1760 Fit       0.007313
 1761 Fit       0.009389
 1762 Fit       0.010764
 1763 Fit      -0.008690
 1764 Fit      -0.001047
 1765 Fit       0.003823
 1766 Fit       0.006554
 1767 Fit       0.007780
 1768 Fit      -0.002435
 1769 Fit       0.002212
 1770 Fit       0.004987
 1771 Fit       0.002063
 1772 Fit      -0.012437
 1773 Fit      -0.015061
 1774 Fit      -0.011840
 1775 Fit      -0.014745
 1776 Fit      -0.015486
 1777 Fit      -0.009886
 1778 Fit      -0.015256
 1779 Fit      -0.011803
 1780 Fit      -0.012865
 1781 Fit      -0.010606
 1782 Fit      -0.008578
 1783 Fit      -0.006712
 1784 Fit      -0.004751
 1785 Fit      -0.009426
 1786 Fit      -0.003514
 1787 Fit      -0.004906
 1788 Fit      -0.008114
 1789 Fit      -0.000402
 1790 Fit      -0.002769
 1791 Fit      -0.006246
 1792 Fit      -0.002681
 1793 Fit      -0.001589
 1794 Fit      -0.002078
 1795 Fit       0.000737
 1796 Fit       0.001037
 1797 Fit      -0.001078
 1798 Fit      -0.000433
 1799 Fit      -0.004782
 1800 Fit      -0.003621
 1801 Fit      -0.006032
 1802 Fit      -0.007277
 1803 Fit      -0.008158
 1804 Fit      -0.011691
 1805 Fit      -0.010669
 1806 Fit      -0.004602
 1807 Fit      -0.012276
 1808 Fit      -0.012565
 1809 Fit      -0.003965
 1810 Fit       0.000179
 1811 Fit       0.002739
 1812 Fit       0.002747
 1813 Fit      -0.000083
 1814 Fit      -0.002914
 1815 Fit      -0.002876
 1816 Fit      -0.001550
 1817 Fit       0.004175
 1818 Fit       0.000808
 1819 Fit      -0.003297
 1820 Fit      -0.009139
 1821 Fit       0.002670
 1822 Fit      -0.000956
 1823 Fit      -0.006616
 1824 Fit      -0.002226
 1825 Fit       0.001400
 1826 Fit      -0.001710
 1827 Fit      -0.007258
 1828 Fit       0.002109
 1829 Fit      -0.000287
 1830 Fit      -0.004083
 1831 Fit      -0.009540
 1832 Fit       0.000814
 1833 Fit       0.001199
 1834 Fit      -0.000898
 1835 Fit      -0.002937
 1836 Fit      -0.001626
 1837 Fit      -0.001667
 1838 Fit      -0.000343
 1839 Fit      -0.002818
 1840 Fit      -0.004595
 1841 Fit      -0.011814
 1842 Fit      -0.014965
 1843 Fit      -0.015302
 1844 Fit      -0.013941
 1845 Fit      -0.012046
 1846 Fit      -0.011522
 1847 Fit      -0.006454
 1848 Fit      -0.004157
 1849 Fit       0.000529
 1850 Fit      -0.002492
 1851 Fit       0.006266
 1852 Fit       0.004305
 1853 Fit       0.003502
 1854 Fit       0.006160
 1855 Fit       0.005454
 1856 Fit       0.004260
 1857 Fit       0.004440
 1858 Fit      -0.002568
 1859 Fit       0.001243
 1860 Fit      -0.002977
 1861 Fit       0.000904
 1862 Fit       0.002694
 1863 Fit      -0.000499
 1864 Fit      -0.000416
 1865 Fit       0.001692
 1866 Fit       0.001571
 1867 Fit      -0.000083
 1868 Fit       0.001925
 1869 Fit       0.001132
 1870 Fit      -0.005431
 1871 Fit      -0.000041
 1872 Fit      -0.008894
 1873 Fit      -0.001908
 1874 Fit       0.000633
 1875 Fit      -0.000509
 1876 Fit      -0.003177
 1877 Fit       0.000564
 1878 Fit       0.001459
 1879 Fit      -0.000806
 1880 Fit       0.002261
 1881 Fit       0.000331
 1882 Fit       0.001156
 1883 Fit       0.001986
 1884 Fit       0.002082
 1885 Fit       0.004558
 1886 Fit       0.006127
 1887 Fit      -0.001321
 1888 Fit       0.004574
 1889 Fit      -0.007990
 1890 Fit       0.000019
 1891 Fit       0.004414
 1892 Fit      -0.002925
 1893 Fit       0.001406
 1894 Fit      -0.000064
 1895 Fit       0.000093
 1896 Fit       0.004876
 1897 Fit       0.006501
 1898 Fit       0.005040
 1899 Fit       0.001872
 1900 Fit      -0.001909
 1901 Fit      -0.005208
 1902 Fit      -0.006337
 1903 Fit      -0.004044
 1904 Fit      -0.000732
 1905 Fit      -0.003746
 1906 Fit      -0.004268
 1907 Fit      -0.001996
 1908 Fit       0.001485
 1909 Fit      -0.004042
 1910 Fit      -0.002794
 1911 Fit      -0.003681
 1912 Fit      -0.006121
 1913 Fit      -0.008907
 1914 Fit      -0.010349
 1915 Fit      -0.008640
 1916 Fit      -0.004740
 1917 Fit      -0.007901
 1918 Fit      -0.008297
 1919 Fit      -0.006496
 1920 Fit      -0.008759
 1921 Fit      -0.008236
 1922 Fit      -0.009182
 1923 Fit      -0.011001
 1924 Fit      -0.011937
 1925 Fit      -0.009836
 1926 Fit      -0.006347
 1927 Fit      -0.009422
 1928 Fit      -0.009777
 1929 Fit      -0.010040
 1930 Fit      -0.010425
 1931 Fit      -0.011247
 1932 Fit      -0.011134
 1933 Fit      -0.007893
 1934 Fit      -0.001012
 1935 Fit      -0.006482
 1936 Fit      -0.009319
 1937 Fit      -0.008735
 1938 Fit      -0.009435
 1939 Fit      -0.006822
 1940 Fit      -0.001842
 1941 Fit      -0.001046
 1942 Fit      -0.005550
 1943 Fit      -0.005740
 1944 Fit       0.000530
 1945 Fit       0.002856
 1946 Fit       0.000395
 1947 Fit       0.002591
 1948 Fit       0.006067
 1949 Fit       0.003794
 1950 Fit       0.008263
 1951 Fit       0.004804
 1952 Fit       0.002182
 1953 Fit      -0.001853
 1954 Fit       0.001633
 1955 Fit       0.004062
 1956 Fit       0.004778
 1957 Fit       0.003029
 1958 Fit       0.005597
 1959 Fit       0.002290
 1960 Fit       0.011961
 1961 Fit       0.005731
 1962 Fit       0.009454
 1963 Fit       0.014191
 1964 Fit       0.009899
 1965 Fit       0.002375
 1966 Fit       0.006524
 1967 Fit       0.006380
 1968 Fit       0.005097
 1969 Fit       0.003666
 1970 Fit       0.002413
 1971 Fit       0.005990
 1972 Fit       0.004647
 1973 Fit       0.002249
 1974 Fit      -0.005494
 1975 Fit      -0.001424
 1976 Fit      -0.006707
 1977 Fit      -0.009546
 1978 Fit      -0.009612
 1979 Fit      -0.005383
 1980 Fit      -0.003929
 1981 Fit      -0.008510
 1982 Fit      -0.010635
 1983 Fit      -0.011366
 1984 Fit      -0.012075
 1985 Fit      -0.012467
 1986 Fit      -0.010834
 1987 Fit      -0.006078
 1988 Fit      -0.003164
 1989 Fit      -0.008800
 1990 Fit      -0.011020
 1991 Fit      -0.010973
 1992 Fit      -0.010520
 1993 Fit      -0.010900
 1994 Fit      -0.012121
 1995 Fit      -0.013042
 1996 Fit      -0.012017
 1997 Fit      -0.008072
 1998 Fit      -0.001912
 1999 Fit      -0.008766
 2000 Fit      -0.010045
 2001 Fit      -0.008884
 2002 Fit      -0.007371
 2003 Fit      -0.006781
 2004 Fit      -0.007405
 2005 Fit      -0.008955
 2006 Fit      -0.010555
 2007 Fit      -0.010772
 2008 Fit      -0.008324
 2009 Fit      -0.003006
 2010 Fit      -0.003747
 2011 Fit      -0.006435
 2012 Fit      -0.005072
 2013 Fit      -0.002393
 2014 Fit      -0.000852
 2015 Fit      -0.000667
 2016 Fit      -0.001090
 2017 Fit      -0.002102
 2018 Fit      -0.003888
 2019 Fit      -0.005597
 2020 Fit      -0.005503
 2021 Fit      -0.002342
 2022 Fit       0.008047
 2023 Fit       0.001813
 2024 Fit       0.007235
 2025 Fit       0.001056
 2026 Fit       0.002718
 2027 Fit       0.003891
 2028 Fit       0.004138
 2029 Fit       0.005983
 2030 Fit       0.008904
 2031 Fit       0.009962
 2032 Fit       0.013251
 2033 Fit       0.014683
 2034 Fit       0.001174
 2035 Fit      -0.001144
 2036 Fit      -0.000831
 2037 Fit       0.001277
 2038 Fit       0.000125
 2039 Fit       0.000088
 2040 Fit       0.001003
 2041 Fit       0.001767
 2042 Fit      -0.001652
 2043 Fit       0.001021
 2044 Fit      -0.000821
 2045 Fit       0.005640
 2046 Fit       0.006174
 2047 Fit       0.009336
 2048 Fit       0.001486
 2049 Fit       0.001047
 2050 Fit       0.001139
 2051 Fit       0.001204
 2052 Fit       0.001654
 2053 Fit      -0.002615
 2054 Fit       0.001176
 2055 Fit       0.002621
 2056 Fit       0.000017
 2057 Fit       0.005384
 2058 Fit      -0.011006
 2059 Fit      -0.013174
 2060 Fit      -0.012487
 2061 Fit      -0.008988
 2062 Fit      -0.005491
 2063 Fit      -0.006883
 2064 Fit      -0.011672
 2065 Fit      -0.011641
 2066 Fit      -0.012734
 2067 Fit      -0.012904
 2068 Fit      -0.010878
 2069 Fit      -0.006697
 2070 Fit      -0.002179
 2071 Fit      -0.006289
 2072 Fit      -0.009955
 2073 Fit      -0.010887
 2074 Fit      -0.006881
 2075 Fit      -0.009900
 2076 Fit      -0.012271
 2077 Fit      -0.013121
 2078 Fit      -0.011384
 2079 Fit      -0.006947
 2080 Fit      -0.000921
 2081 Fit      -0.004859
 2082 Fit      -0.005218
 2083 Fit      -0.005986
 2084 Fit      -0.009737
 2085 Fit      -0.012788
 2086 Fit      -0.013768
 2087 Fit      -0.011759
 2088 Fit      -0.006784
 2089 Fit       0.001981
 2090 Fit      -0.010635
 2091 Fit      -0.013766
 2092 Fit      -0.013997
 2093 Fit      -0.011055
 2094 Fit      -0.005284
 2095 Fit      -0.009596
 2096 Fit      -0.013215
 2097 Fit      -0.012589
 2098 Fit      -0.008103
 2099 Fit      -0.008739
 2100 Fit      -0.010258
 2101 Fit      -0.006722
 2102 Fit      -0.002300
 2103 Fit      -0.004592
 2104 Fit      -0.000649
 2105 Fit       0.010670
 2106 Fit       0.010007
 2107 Fit       0.010156
 2108 Fit       0.008979
 2109 Fit       0.006917
 2110 Fit       0.012306
 2111 Fit       0.009745
 2112 Fit       0.008438
 2113 Fit       0.012752
 2114 Fit       0.010582
 2115 Fit       0.009798
 2116 Fit       0.015054
 2117 Fit       0.011595
 2118 Fit       0.010594
 2119 Fit       0.004641
 2120 Fit       0.004195
 2121 Fit       0.007602
 2122 Fit       0.012117
 2123 Fit       0.010700
 2124 Fit       0.009937
 2125 Fit       0.007857
 2126 Fit       0.006667
 2127 Fit       0.007028
 2128 Fit       0.008046
 2129 Fit       0.008184
 2130 Fit       0.008498
 2131 Fit       0.007572
 2132 Fit      -0.001630
 2133 Fit       0.002140
 2134 Fit       0.001191
 2135 Fit       0.007607
 2136 Fit       0.005345
 2137 Fit       0.004144
 2138 Fit       0.003158
 2139 Fit       0.002844
 2140 Fit       0.002030
 2141 Fit       0.002834
 2142 Fit       0.003515
 2143 Fit       0.004563
 2144 Fit       0.006242
 2145 Fit       0.006933
 2146 Fit      -0.001224
 2147 Fit      -0.003965
 2148 Fit       0.000867
 2149 Fit      -0.000116
 2150 Fit      -0.002702
 2151 Fit       0.002075
 2152 Fit       0.001560
 2153 Fit      -0.000079
 2154 Fit      -0.003743
 2155 Fit       0.002757
 2156 Fit       0.002186
 2157 Fit       0.000732
 2158 Fit      -0.000403
 2159 Fit       0.003200
 2160 Fit       0.003409
 2161 Fit      -0.004462
 2162 Fit       0.000066
 2163 Fit      -0.003720
 2164 Fit      -0.003865
 2165 Fit       0.000512
 2166 Fit       0.001803
 2167 Fit      -0.000161
 2168 Fit      -0.003668
 2169 Fit       0.002345
 2170 Fit       0.003029
 2171 Fit       0.002785
 2172 Fit       0.002264
 2173 Fit       0.000932
 2174 Fit       0.004725
 2175 Fit       0.003860
 2176 Fit       0.003176
 2177 Fit       0.006900
 2178 Fit       0.005481
 2179 Fit       0.004408
 2180 Fit       0.004388
 2181 Fit       0.009714
 2182 Fit       0.007855
 2183 Fit       0.006678
 2184 Fit       0.005590
 2185 Fit       0.005376
 2186 Fit       0.004121
 2187 Fit       0.008963
 2188 Fit       0.007798
 2189 Fit       0.006685
 2190 Fit       0.006125
 2191 Fit       0.005151
 2192 Fit       0.008567
 2193 Fit       0.007509
 2194 Fit       0.006970
 Job cpu time:       0 days  0 hours  4 minutes 34.6 seconds.
 Normal termination of Gaussian 16 at Sat Jul  8 20:24:13 2023.
