 Copyright (c) 1988-2019, Gaussian, Inc.  All Rights Reserved.
  
 This is part of the Gaussian(R) 16 program.  It is based on
 the Gaussian(R) 09 system (copyright 2009, Gaussian, Inc.),
 the Gaussian(R) 03 system (copyright 2003, Gaussian, Inc.),
 the Gaussian(R) 98 system (copyright 1998, Gaussian, Inc.),
 the Gaussian(R) 94 system (copyright 1995, Gaussian, Inc.),
 the Gaussian 92(TM) system (copyright 1992, Gaussian, Inc.),
 the Gaussian 90(TM) system (copyright 1990, Gaussian, Inc.),
 the Gaussian 88(TM) system (copyright 1988, Gaussian, Inc.),
 the Gaussian 86(TM) system (copyright 1986, Carnegie Mellon
 University), and the Gaussian 82(TM) system (copyright 1983,
 Carnegie Mellon University). Gaussian is a federally registered
 trademark of Gaussian, Inc.
 Cite this work as:
 Gaussian 16, Revision C.01,
 M. J. Frisch, G. W. Trucks, H. B. Schlegel, G. E. Scuseria, 
 M. A. Robb, J. R. Cheeseman, G. Scalmani, V. Barone, 
 G. A. Petersson, H. Nakatsuji, X. Li, M. Caricato, A. V. Marenich, 
 J. Bloino, B. G. Janesko, R. Gomperts, B. Mennucci, H. P. Hratchian, 
 J. V. Ortiz, A. F. Izmaylov, J. L. Sonnenberg, D. Williams-Young, 
 F. Ding, F. Lipparini, F. Egidi, J. Goings, B. Peng, A. Petrone, 
 T. Henderson, D. Ranasinghe, V. G. Zakrzewski, J. Gao, N. Rega, 
 G. Zheng, W. Liang, M. Hada, M. Ehara, K. Toyota, R. Fukuda, 
 J. Hasegawa, M. Ishida, T. Nakajima, Y. Honda, O. Kitao, H. Nakai, 
 T. Vreven, K. Throssell, J. A. Montgomery, Jr., J. E. Peralta, 
 F. Ogliaro, M. J. Bearpark, J. J. Heyd, E. N. Brothers, K. N. Kudin, 
 V. N. Staroverov, T. A. Keith, R. Kobayashi, J. Normand, 
 K. Raghavachari, A. P. Rendell, J. C. Burant, S. S. Iyengar, 
 J. Tomasi, M. Cossi, J. M. Millam, M. Klene, C. Adamo, R. Cammi, 
 J. W. Ochterski, R. L. Martin, K. Morokuma, O. Farkas, 
 J. B. Foresman, and D. J. Fox, Gaussian, Inc., Wallingford CT, 2019.
 
 ******************************************
 Gaussian 16:  EM64L-G16RevC.01  3-Jul-2019
                 8-Jul-2023 
 ******************************************
 ----------------------------------------------------------------------
 #P HF/6-31G(d) SCF(Conver=8,XQC,MaxConventionalCycles=64,MaxCycle=128)
  NoSymm Test Pop=mk IOp(6/33=2) GFInput GFPrint
 ----------------------------------------------------------------------
 1/38=1,172=1/1;
 2/12=2,15=1,17=6,18=5,40=1/2;
 3/5=1,6=6,7=1,11=9,24=110,25=1,30=1/1,2,3;
 4//1;
 5/5=2,6=8,7=128,8=3,13=1,38=5,85=64/2,8;
 6/7=2,8=2,9=2,10=2,15=8,20=1,28=1,33=2/1,2;
 99/5=1,9=1/99;
 -------------------------------------------------
 MEP step - Input generated by PyRED DVE-DMDS-OPLS
 -------------------------------------------------
 Symbolic Z-matrix:
 Charge =  0 Multiplicity = 1
 C                    -5.2016   -2.66552  -5.6125 
 H                    -5.95498  -1.88704  -5.65457 
 H                    -4.78835  -2.80112  -6.60714 
 H                    -5.68274  -3.58815  -5.30871 
 C                    -4.10916  -2.29315  -4.62985 
 H                    -3.34608  -3.06895  -4.5977 
 H                    -3.62128  -1.37158  -4.94134 
 O                    -4.68878  -2.14577  -3.36319 
 C                    -3.82256  -1.78133  -2.32941 
 H                    -2.82424  -2.17974  -2.49117 
 H                    -4.20629  -2.21311  -1.41406 
 C                    -3.75481  -0.27075  -2.17419 
 H                    -3.39304   0.19695  -3.0881 
 H                    -4.75199   0.11734  -1.97783 
 O                    -2.89473   0.00781  -1.10997 
 C                    -2.75761   1.36488  -0.80784 
 H                    -3.7242    1.78393  -0.52811 
 H                    -2.39178   1.91326  -1.67357 
 C                    -1.79174   1.54187   0.34644 
 H                    -2.08659   0.89548   1.16857 
 H                    -1.85111   2.56866   0.6878 
 O                    -0.45546   1.32385   0. 
 C                     0.        0.        0. 
 H                    -0.35508  -0.52297  -0.88168 
 H                    -0.37209  -0.52701   0.87368 
 C                     1.5187    0.        0. 
 H                     1.89071   0.57447  -0.84015 
 H                     1.86732  -1.01911  -0.12404 
 S                     2.30472   0.59702   1.52557 
 C                     2.29679   2.40188   1.28087 
 H                     2.8133    2.61197   0.3502 
 H                     1.27927   2.74681   1.18997 
 C                     3.0175    3.14128   2.40928 
 H                     3.19886   4.1559    2.07545 
 H                     3.98814   2.70164   2.60513 
 S                     2.09528   3.32556   3.9701 
 C                     2.64677   1.90353   4.96114 
 H                     2.62966   1.01557   4.34363 
 H                     1.88175   1.77388   5.71603 
 C                     4.02359   2.05085   5.61313 
 H                     4.3514    1.08216   5.97649 
 H                     4.75582   2.37356   4.88412 
 S                     4.13102   3.23852   6.98323 
 C                     3.43054   2.26048   8.34794 
 H                     2.41171   1.97858   8.11065 
 H                     4.01005   1.35179   8.46496 
 C                     3.45642   3.07269   9.63991 
 H                     2.86979   3.97951   9.54349 
 H                     3.04183   2.48768   10.45458 
 H                     4.46984   3.3517    9.90631 
 
 ITRead=  0  0  0  0  0  0  0  0  0  0  0  0  0  0  0  0  0  0  0  0
 ITRead=  0  0  0  0  0  0  0  0  0  0  0  0  0  0  0  0  0  0  0  0
 ITRead=  0  0  0  0  0  0  0  0  0  0
 MicOpt= -1 -1 -1 -1 -1 -1 -1 -1 -1 -1 -1 -1 -1 -1 -1 -1 -1 -1 -1 -1
 MicOpt= -1 -1 -1 -1 -1 -1 -1 -1 -1 -1 -1 -1 -1 -1 -1 -1 -1 -1 -1 -1
 MicOpt= -1 -1 -1 -1 -1 -1 -1 -1 -1 -1
 NAtoms=     50 NQM=       50 NQMF=       0 NMMI=      0 NMMIF=      0
                NMic=       0 NMicF=      0.
                          Input orientation:                          
 ---------------------------------------------------------------------
 Center     Atomic      Atomic             Coordinates (Angstroms)
 Number     Number       Type             X           Y           Z
 ---------------------------------------------------------------------
      1          6           0       -5.201601   -2.665519   -5.612501
      2          1           0       -5.954975   -1.887041   -5.654571
      3          1           0       -4.788348   -2.801119   -6.607136
      4          1           0       -5.682744   -3.588152   -5.308710
      5          6           0       -4.109155   -2.293149   -4.629853
      6          1           0       -3.346077   -3.068954   -4.597701
      7          1           0       -3.621275   -1.371579   -4.941338
      8          8           0       -4.688777   -2.145772   -3.363190
      9          6           0       -3.822559   -1.781330   -2.329413
     10          1           0       -2.824243   -2.179737   -2.491168
     11          1           0       -4.206292   -2.213110   -1.414057
     12          6           0       -3.754813   -0.270750   -2.174189
     13          1           0       -3.393037    0.196953   -3.088103
     14          1           0       -4.751987    0.117339   -1.977827
     15          8           0       -2.894731    0.007808   -1.109970
     16          6           0       -2.757607    1.364884   -0.807837
     17          1           0       -3.724196    1.783928   -0.528113
     18          1           0       -2.391783    1.913261   -1.673572
     19          6           0       -1.791744    1.541865    0.346443
     20          1           0       -2.086595    0.895482    1.168573
     21          1           0       -1.851112    2.568663    0.687795
     22          8           0       -0.455462    1.323845    0.000000
     23          6           0        0.000000    0.000000    0.000000
     24          1           0       -0.355078   -0.522965   -0.881682
     25          1           0       -0.372087   -0.527013    0.873675
     26          6           0        1.518697    0.000000    0.000000
     27          1           0        1.890705    0.574468   -0.840149
     28          1           0        1.867318   -1.019113   -0.124037
     29         16           0        2.304723    0.597020    1.525569
     30          6           0        2.296794    2.401878    1.280865
     31          1           0        2.813300    2.611966    0.350196
     32          1           0        1.279267    2.746811    1.189969
     33          6           0        3.017499    3.141280    2.409278
     34          1           0        3.198860    4.155900    2.075446
     35          1           0        3.988142    2.701640    2.605132
     36         16           0        2.095284    3.325558    3.970102
     37          6           0        2.646771    1.903528    4.961143
     38          1           0        2.629661    1.015565    4.343632
     39          1           0        1.881754    1.773875    5.716028
     40          6           0        4.023592    2.050850    5.613129
     41          1           0        4.351399    1.082159    5.976493
     42          1           0        4.755819    2.373556    4.884123
     43         16           0        4.131024    3.238515    6.983227
     44          6           0        3.430540    2.260477    8.347938
     45          1           0        2.411709    1.978580    8.110649
     46          1           0        4.010053    1.351789    8.464958
     47          6           0        3.456415    3.072692    9.639913
     48          1           0        2.869785    3.979511    9.543490
     49          1           0        3.041830    2.487675   10.454582
     50          1           0        4.469839    3.351699    9.906310
 ---------------------------------------------------------------------
 Stoichiometry    C14H30O3S3
 Framework group  C1[X(C14H30O3S3)]
 Standard basis: 6-31G(d) (6D, 7F)
   372 basis functions,   752 primitive gaussians,   372 cartesian basis functions
    93 alpha electrons       93 beta electrons
 Requested convergence on RMS density matrix=1.00D-08 within  64 cycles.
 Requested convergence on MAX density matrix=1.00D-06.
 Requested convergence on             energy=1.00D-06.
 SCF Done:  E(RHF) =  -1964.69114406     A.U. after   13 cycles
            NFock= 13  Conv=0.56D-08     -V/T= 2.0006
 Mulliken charges:
     1  C   -0.488656
     2  H    0.173105
     3  H    0.157404
     4  H    0.176463
     5  C    0.017011
     6  H    0.142822
     7  H    0.136207
     8  O   -0.631333
     9  C    0.002674
    10  H    0.150187
    11  H    0.181933
    12  C    0.011508
    13  H    0.142461
    14  H    0.154062
    15  O   -0.641433
    16  C    0.008561
    17  H    0.141744
    18  H    0.153241
    19  C   -0.001991
    20  H    0.162694
    21  H    0.174985
    22  O   -0.635351
    23  C    0.038799
    24  H    0.166276
    25  H    0.156601
    26  C   -0.502588
    27  H    0.199573
    28  H    0.196745
    29  S    0.097410
    30  C   -0.444509
    31  H    0.183870
    32  H    0.235628
    33  C   -0.502868
    34  H    0.210184
    35  H    0.201729
    36  S    0.134182
    37  C   -0.483686
    38  H    0.226881
    39  H    0.201403
    40  C   -0.475381
    41  H    0.192061
    42  H    0.202508
    43  S    0.133066
    44  C   -0.458957
    45  H    0.184014
    46  H    0.183234
    47  C   -0.495256
    48  H    0.181121
    49  H    0.170284
    50  H    0.179378
 Sum of Mulliken charges =  -0.00000
 Dipole moment (field-independent basis, Debye):
    X=             -0.9536    Y=             -1.8998    Z=             -2.6315  Tot=              3.3828
 Quadrupole moment (field-independent basis, Debye-Ang):
   XX=           -157.5199   YY=           -159.8113   ZZ=           -138.8380
   XY=            -13.2378   XZ=             -6.3342   YZ=            -16.5056
 Traceless Quadrupole moment (field-independent basis, Debye-Ang):
   XX=             -5.4635   YY=             -7.7549   ZZ=             13.2184
   XY=            -13.2378   XZ=             -6.3342   YZ=            -16.5056
 Octapole moment (field-independent basis, Debye-Ang**2):
  XXX=           -176.1693  YYY=           -539.4006  ZZZ=           -704.9796  XYY=           -101.1391
  XXY=           -151.6853  XXZ=           -283.1954  XZZ=           -104.3770  YZZ=           -264.4861
  YYZ=           -356.2602  XYZ=            -59.9442
 Hexadecapole moment (field-independent basis, Debye-Ang**3):
 XXXX=          -9913.0621 YYYY=          -4786.2658 ZZZZ=         -16338.1958 XXXY=          -2811.5310
 XXXZ=          -5958.5582 YYYX=          -2667.8940 YYYZ=          -4252.5921 ZZZX=          -5314.7159
 ZZZY=          -4068.7557 XXYY=          -2501.3348 XXZZ=          -4834.2970 YYZZ=          -4290.6406
 XXYZ=          -1636.4853 YYXZ=          -2181.4610 ZZXY=          -1203.3052
 Merz-Kollman atomic radii used.
 Atom Element Radius
    1     6    1.50
    2     1    1.20
    3     1    1.20
    4     1    1.20
    5     6    1.50
    6     1    1.20
    7     1    1.20
    8     8    1.40
    9     6    1.50
   10     1    1.20
   11     1    1.20
   12     6    1.50
   13     1    1.20
   14     1    1.20
   15     8    1.40
   16     6    1.50
   17     1    1.20
   18     1    1.20
   19     6    1.50
   20     1    1.20
   21     1    1.20
   22     8    1.40
   23     6    1.50
   24     1    1.20
   25     1    1.20
   26     6    1.50
   27     1    1.20
   28     1    1.20
   29    16    1.75
   30     6    1.50
   31     1    1.20
   32     1    1.20
   33     6    1.50
   34     1    1.20
   35     1    1.20
   36    16    1.75
   37     6    1.50
   38     1    1.20
   39     1    1.20
   40     6    1.50
   41     1    1.20
   42     1    1.20
   43    16    1.75
   44     6    1.50
   45     1    1.20
   46     1    1.20
   47     6    1.50
   48     1    1.20
   49     1    1.20
   50     1    1.20
 Generate VDW surfaces: Layer= 4 Dens= 1 Start= 1.400 Inc= 0.200
            Electrostatic Properties Using The SCF Density.


       Atomic Center    1 is at  -5.201601 -2.665519 -5.612501
       Atomic Center    2 is at  -5.954975 -1.887041 -5.654571
       Atomic Center    3 is at  -4.788348 -2.801119 -6.607136
       Atomic Center    4 is at  -5.682744 -3.588152 -5.308710
       Atomic Center    5 is at  -4.109155 -2.293149 -4.629853
       Atomic Center    6 is at  -3.346077 -3.068954 -4.597701
       Atomic Center    7 is at  -3.621275 -1.371579 -4.941338
       Atomic Center    8 is at  -4.688777 -2.145772 -3.363190
       Atomic Center    9 is at  -3.822559 -1.781330 -2.329413
       Atomic Center   10 is at  -2.824243 -2.179737 -2.491168
       Atomic Center   11 is at  -4.206292 -2.213110 -1.414057
       Atomic Center   12 is at  -3.754813 -0.270750 -2.174189
       Atomic Center   13 is at  -3.393037  0.196953 -3.088103
       Atomic Center   14 is at  -4.751987  0.117339 -1.977827
       Atomic Center   15 is at  -2.894731  0.007808 -1.109970
       Atomic Center   16 is at  -2.757607  1.364884 -0.807837
       Atomic Center   17 is at  -3.724196  1.783928 -0.528113
       Atomic Center   18 is at  -2.391783  1.913261 -1.673572
       Atomic Center   19 is at  -1.791744  1.541865  0.346443
       Atomic Center   20 is at  -2.086595  0.895482  1.168573
       Atomic Center   21 is at  -1.851112  2.568663  0.687795
       Atomic Center   22 is at  -0.455462  1.323845  0.000000
       Atomic Center   23 is at   0.000000  0.000000  0.000000
       Atomic Center   24 is at  -0.355078 -0.522965 -0.881682
       Atomic Center   25 is at  -0.372087 -0.527013  0.873675
       Atomic Center   26 is at   1.518697  0.000000  0.000000
       Atomic Center   27 is at   1.890705  0.574468 -0.840149
       Atomic Center   28 is at   1.867318 -1.019113 -0.124037
       Atomic Center   29 is at   2.304723  0.597020  1.525569
       Atomic Center   30 is at   2.296794  2.401878  1.280865
       Atomic Center   31 is at   2.813300  2.611966  0.350196
       Atomic Center   32 is at   1.279267  2.746811  1.189969
       Atomic Center   33 is at   3.017499  3.141280  2.409278
       Atomic Center   34 is at   3.198860  4.155900  2.075446
       Atomic Center   35 is at   3.988142  2.701640  2.605132
       Atomic Center   36 is at   2.095284  3.325558  3.970102
       Atomic Center   37 is at   2.646771  1.903528  4.961143
       Atomic Center   38 is at   2.629661  1.015565  4.343632
       Atomic Center   39 is at   1.881754  1.773875  5.716028
       Atomic Center   40 is at   4.023592  2.050850  5.613129
       Atomic Center   41 is at   4.351399  1.082159  5.976493
       Atomic Center   42 is at   4.755819  2.373556  4.884123
       Atomic Center   43 is at   4.131024  3.238515  6.983227
       Atomic Center   44 is at   3.430540  2.260477  8.347938
       Atomic Center   45 is at   2.411709  1.978580  8.110649
       Atomic Center   46 is at   4.010053  1.351789  8.464958
       Atomic Center   47 is at   3.456415  3.072692  9.639913
       Atomic Center   48 is at   2.869785  3.979511  9.543490
       Atomic Center   49 is at   3.041830  2.487675 10.454582
       Atomic Center   50 is at   4.469839  3.351699  9.906310
      ESP Fit Center   51 is at  -4.008665 -4.393785 -5.612501
      ESP Fit Center   52 is at  -4.446105 -1.011214 -6.662501
      ESP Fit Center   53 is at  -6.946586 -3.177893 -6.662501
      ESP Fit Center   54 is at  -6.251601 -2.665519 -7.431154
      ESP Fit Center   55 is at  -6.753862 -1.306615 -4.295422
      ESP Fit Center   56 is at  -5.677524 -0.313540 -5.135422
      ESP Fit Center   57 is at  -6.753862 -0.503327 -5.135422
      ESP Fit Center   58 is at  -7.456392 -1.340570 -5.135422
      ESP Fit Center   59 is at  -7.456392 -2.433512 -5.135422
      ESP Fit Center   60 is at  -5.677524 -0.313540 -6.173720
      ESP Fit Center   61 is at  -6.753862 -0.503327 -6.173720
      ESP Fit Center   62 is at  -7.456392 -1.340570 -6.173720
      ESP Fit Center   63 is at  -7.456392 -2.433512 -6.173720
      ESP Fit Center   64 is at  -5.649827 -0.947892 -7.013720
      ESP Fit Center   65 is at  -6.753862 -1.306615 -7.013720
      ESP Fit Center   66 is at  -6.753862 -2.467467 -7.013720
      ESP Fit Center   67 is at  -3.190573 -2.801119 -7.126285
      ESP Fit Center   68 is at  -3.564381 -1.774089 -7.126285
      ESP Fit Center   69 is at  -4.510897 -1.227618 -7.126285
      ESP Fit Center   70 is at  -5.587235 -4.184833 -7.126285
      ESP Fit Center   71 is at  -4.510897 -4.374620 -7.126285
      ESP Fit Center   72 is at  -3.564381 -3.828149 -7.126285
      ESP Fit Center   73 is at  -3.800869 -2.801119 -7.966285
      ESP Fit Center   74 is at  -4.483200 -1.861970 -7.966285
      ESP Fit Center   75 is at  -5.587235 -2.220693 -7.966285
      ESP Fit Center   76 is at  -5.587235 -3.381545 -7.966285
      ESP Fit Center   77 is at  -4.483200 -3.740268 -7.966285
      ESP Fit Center   78 is at  -4.788348 -2.801119 -8.287136
      ESP Fit Center   79 is at  -6.481631 -3.007726 -3.949561
      ESP Fit Center   80 is at  -6.481631 -4.168578 -3.949561
      ESP Fit Center   81 is at  -5.377596 -4.527301 -3.949561
      ESP Fit Center   82 is at  -7.184161 -3.041681 -4.789561
      ESP Fit Center   83 is at  -7.184161 -4.134623 -4.789561
      ESP Fit Center   84 is at  -6.481631 -4.971866 -4.789561
      ESP Fit Center   85 is at  -5.405293 -5.161653 -4.789561
      ESP Fit Center   86 is at  -4.458777 -4.615182 -4.789561
      ESP Fit Center   87 is at  -7.184161 -4.134623 -5.827859
      ESP Fit Center   88 is at  -6.481631 -4.971866 -5.827859
      ESP Fit Center   89 is at  -5.405293 -5.161653 -5.827859
      ESP Fit Center   90 is at  -6.481631 -4.168578 -6.667859
      ESP Fit Center   91 is at  -5.377596 -4.527301 -6.667859
      ESP Fit Center   92 is at  -4.367976 -4.093291 -3.579853
      ESP Fit Center   93 is at  -2.290502 -2.293149 -5.679853
      ESP Fit Center   94 is at  -3.059155 -2.293149 -6.448506
      ESP Fit Center   95 is at  -3.040929 -4.008103 -3.238552
      ESP Fit Center   96 is at  -1.748302 -3.068954 -4.078552
      ESP Fit Center   97 is at  -4.144964 -4.452668 -4.078552
      ESP Fit Center   98 is at  -3.068626 -4.642455 -4.078552
      ESP Fit Center   99 is at  -2.122110 -4.095984 -4.078552
      ESP Fit Center  100 is at  -1.748302 -3.068954 -5.116850
      ESP Fit Center  101 is at  -4.144964 -4.452668 -5.116850
      ESP Fit Center  102 is at  -3.068626 -4.642455 -5.116850
      ESP Fit Center  103 is at  -2.122110 -4.095984 -5.116850
      ESP Fit Center  104 is at  -2.358598 -3.068954 -5.956850
      ESP Fit Center  105 is at  -3.040929 -4.008103 -5.956850
      ESP Fit Center  106 is at  -2.023500 -1.371579 -4.422189
      ESP Fit Center  107 is at  -2.397308 -0.344549 -4.422189
      ESP Fit Center  108 is at  -4.420162  0.012135 -4.422189
      ESP Fit Center  109 is at  -2.023500 -1.371579 -5.460487
      ESP Fit Center  110 is at  -2.397308 -0.344549 -5.460487
      ESP Fit Center  111 is at  -3.343824  0.201922 -5.460487
      ESP Fit Center  112 is at  -4.420162  0.012135 -5.460487
      ESP Fit Center  113 is at  -2.633796 -1.371579 -6.300487
      ESP Fit Center  114 is at  -3.316127 -0.432430 -6.300487
      ESP Fit Center  115 is at  -4.420162 -0.791153 -6.300487
      ESP Fit Center  116 is at  -3.621275 -1.371579 -6.621338
      ESP Fit Center  117 is at  -6.062010 -1.148060 -2.383190
      ESP Fit Center  118 is at  -6.386187 -2.145772 -2.383190
      ESP Fit Center  119 is at  -6.062010 -3.143484 -2.383190
      ESP Fit Center  120 is at  -5.213305 -3.760105 -2.383190
      ESP Fit Center  121 is at  -5.668777 -0.448362 -3.363190
      ESP Fit Center  122 is at  -6.386187 -1.165772 -3.363190
      ESP Fit Center  123 is at  -6.648777 -2.145772 -3.363190
      ESP Fit Center  124 is at  -6.386187 -3.125772 -3.363190
      ESP Fit Center  125 is at  -5.668777 -3.843182 -3.363190
      ESP Fit Center  126 is at  -4.688777 -4.105772 -3.363190
      ESP Fit Center  127 is at  -3.569432 -3.866019 -2.329413
      ESP Fit Center  128 is at  -1.836764 -2.179737 -1.132019
      ESP Fit Center  129 is at  -2.519095 -3.118886 -1.132019
      ESP Fit Center  130 is at  -1.226468 -2.179737 -1.972019
      ESP Fit Center  131 is at  -2.546792 -3.753238 -1.972019
      ESP Fit Center  132 is at  -1.600276 -3.206767 -1.972019
      ESP Fit Center  133 is at  -1.226468 -2.179737 -3.010317
      ESP Fit Center  134 is at  -1.600276 -1.152707 -3.010317
      ESP Fit Center  135 is at  -2.546792 -3.753238 -3.010317
      ESP Fit Center  136 is at  -1.600276 -3.206767 -3.010317
      ESP Fit Center  137 is at  -1.836764 -2.179737 -3.850317
      ESP Fit Center  138 is at  -4.206292 -2.213110  0.265943
      ESP Fit Center  139 is at  -3.218813 -2.213110 -0.054908
      ESP Fit Center  140 is at  -5.005179 -1.632684 -0.054908
      ESP Fit Center  141 is at  -5.005179 -2.793536 -0.054908
      ESP Fit Center  142 is at  -3.901144 -3.152259 -0.054908
      ESP Fit Center  143 is at  -5.707709 -1.666639 -0.894908
      ESP Fit Center  144 is at  -5.707709 -2.759581 -0.894908
      ESP Fit Center  145 is at  -5.005179 -3.596824 -0.894908
      ESP Fit Center  146 is at  -3.928841 -3.786611 -0.894908
      ESP Fit Center  147 is at  -2.982325 -3.240140 -0.894908
      ESP Fit Center  148 is at  -5.005179 -3.596824 -1.933206
      ESP Fit Center  149 is at  -4.804813 -0.270750 -3.992842
      ESP Fit Center  150 is at  -1.795262  0.196953 -3.607252
      ESP Fit Center  151 is at  -2.169070  1.223983 -3.607252
      ESP Fit Center  152 is at  -3.115586  1.770454 -3.607252
      ESP Fit Center  153 is at  -4.191924  1.580667 -3.607252
      ESP Fit Center  154 is at  -2.169070 -0.830077 -3.607252
      ESP Fit Center  155 is at  -2.405558  0.196953 -4.447252
      ESP Fit Center  156 is at  -3.087889  1.136102 -4.447252
      ESP Fit Center  157 is at  -4.191924  0.777379 -4.447252
      ESP Fit Center  158 is at  -4.751987  0.117339 -0.297827
      ESP Fit Center  159 is at  -5.550874  0.697765 -0.618678
      ESP Fit Center  160 is at  -5.550874 -0.463087 -0.618678
      ESP Fit Center  161 is at  -5.550874  1.501053 -1.458678
      ESP Fit Center  162 is at  -6.253404  0.663810 -1.458678
      ESP Fit Center  163 is at  -6.253404 -0.429132 -1.458678
      ESP Fit Center  164 is at  -4.474536  1.690840 -2.496976
      ESP Fit Center  165 is at  -5.550874  1.501053 -2.496976
      ESP Fit Center  166 is at  -6.253404  0.663810 -2.496976
      ESP Fit Center  167 is at  -6.253404 -0.429132 -2.496976
      ESP Fit Center  168 is at  -5.550874  0.697765 -3.336976
      ESP Fit Center  169 is at  -3.874731  0.007808  0.587440
      ESP Fit Center  170 is at  -3.384731 -0.840897  0.587440
      ESP Fit Center  171 is at  -2.404731 -0.840897  0.587440
      ESP Fit Center  172 is at  -4.592141  0.007808 -0.129970
      ESP Fit Center  173 is at  -4.267964 -0.989904 -0.129970
      ESP Fit Center  174 is at  -2.370203 -1.606525 -0.129970
      ESP Fit Center  175 is at  -1.914731 -1.689602 -1.109970
      ESP Fit Center  176 is at  -1.521498 -0.989904 -2.089970
      ESP Fit Center  177 is at  -2.504480  3.449573 -0.807837
      ESP Fit Center  178 is at  -3.724196  1.783928  1.151887
      ESP Fit Center  179 is at  -4.523083  2.364354  0.831036
      ESP Fit Center  180 is at  -4.523083  1.203502  0.831036
      ESP Fit Center  181 is at  -3.446745  3.357429 -0.008964
      ESP Fit Center  182 is at  -4.523083  3.167642 -0.008964
      ESP Fit Center  183 is at  -5.225613  2.330399 -0.008964
      ESP Fit Center  184 is at  -5.225613  1.237457 -0.008964
      ESP Fit Center  185 is at  -4.523083  0.400214 -0.008964
      ESP Fit Center  186 is at  -3.446745  3.357429 -1.047262
      ESP Fit Center  187 is at  -4.523083  3.167642 -1.047262
      ESP Fit Center  188 is at  -5.225613  2.330399 -1.047262
      ESP Fit Center  189 is at  -4.523083  2.364354 -1.887262
      ESP Fit Center  190 is at  -1.167816  2.940291 -1.154423
      ESP Fit Center  191 is at  -2.114332  3.486762 -1.154423
      ESP Fit Center  192 is at  -0.794008  1.913261 -2.192721
      ESP Fit Center  193 is at  -1.167816  2.940291 -2.192721
      ESP Fit Center  194 is at  -2.114332  3.486762 -2.192721
      ESP Fit Center  195 is at  -3.190670  3.296975 -2.192721
      ESP Fit Center  196 is at  -1.167816  0.886231 -2.192721
      ESP Fit Center  197 is at  -1.404304  1.913261 -3.032721
      ESP Fit Center  198 is at  -2.086635  2.852410 -3.032721
      ESP Fit Center  199 is at  -3.190670  2.493687 -3.032721
      ESP Fit Center  200 is at  -2.391783  1.913261 -3.353572
      ESP Fit Center  201 is at  -0.741744  1.541865  2.165096
      ESP Fit Center  202 is at  -3.536729  2.054239  1.396443
      ESP Fit Center  203 is at  -1.036248  3.196170 -0.703557
      ESP Fit Center  204 is at  -2.086595  0.895482  2.848573
      ESP Fit Center  205 is at  -1.099116  0.895482  2.527722
      ESP Fit Center  206 is at  -1.781447  1.834631  2.527722
      ESP Fit Center  207 is at  -2.885482  1.475908  2.527722
      ESP Fit Center  208 is at  -2.885482  0.315056  2.527722
      ESP Fit Center  209 is at  -1.781447 -0.043667  2.527722
      ESP Fit Center  210 is at  -3.588012  1.441953  1.687722
      ESP Fit Center  211 is at  -3.588012  0.349011  1.687722
      ESP Fit Center  212 is at  -2.885482 -0.488232  1.687722
      ESP Fit Center  213 is at  -1.851112  2.568663  2.367795
      ESP Fit Center  214 is at  -0.863633  2.568663  2.046944
      ESP Fit Center  215 is at  -1.545964  3.507812  2.046944
      ESP Fit Center  216 is at  -2.649999  3.149089  2.046944
      ESP Fit Center  217 is at  -0.627145  3.595693  1.206944
      ESP Fit Center  218 is at  -1.573661  4.142164  1.206944
      ESP Fit Center  219 is at  -2.649999  3.952377  1.206944
      ESP Fit Center  220 is at  -3.352529  3.115134  1.206944
      ESP Fit Center  221 is at  -0.627145  3.595693  0.168646
      ESP Fit Center  222 is at  -1.573661  4.142164  0.168646
      ESP Fit Center  223 is at  -2.649999  3.952377  0.168646
      ESP Fit Center  224 is at  -1.545964  3.507812 -0.671354
      ESP Fit Center  225 is at  -0.455462  1.323845  1.960000
      ESP Fit Center  226 is at  -0.455462  3.283845  0.000000
      ESP Fit Center  227 is at   0.917771  2.321557 -0.980000
      ESP Fit Center  228 is at   0.069066  2.938178 -0.980000
      ESP Fit Center  229 is at   0.524538  1.323845 -1.697410
      ESP Fit Center  230 is at   0.034538  2.172550 -1.697410
      ESP Fit Center  231 is at  -0.455462  1.323845 -1.960000
      ESP Fit Center  232 is at  -1.571873 -1.392558  0.000000
      ESP Fit Center  233 is at  -0.744670 -1.963534  0.000000
      ESP Fit Center  234 is at   0.253127 -2.084689  0.000000
      ESP Fit Center  235 is at   0.525000  0.909327 -1.818653
      ESP Fit Center  236 is at  -1.153965 -1.906679 -0.362533
      ESP Fit Center  237 is at  -0.077627 -2.096466 -0.362533
      ESP Fit Center  238 is at  -1.153965 -1.906679 -1.400831
      ESP Fit Center  239 is at  -0.077627 -2.096466 -1.400831
      ESP Fit Center  240 is at   0.868889 -1.549995 -1.400831
      ESP Fit Center  241 is at   0.632401 -0.522965 -2.240831
      ESP Fit Center  242 is at  -0.049930  0.416184 -2.240831
      ESP Fit Center  243 is at  -1.153965  0.057461 -2.240831
      ESP Fit Center  244 is at  -1.153965 -1.103391 -2.240831
      ESP Fit Center  245 is at  -0.049930 -1.462114 -2.240831
      ESP Fit Center  246 is at  -0.355078 -0.522965 -2.561682
      ESP Fit Center  247 is at  -0.372087 -0.527013  2.553675
      ESP Fit Center  248 is at  -0.066939  0.412136  2.232824
      ESP Fit Center  249 is at  -1.170974 -1.107439  2.232824
      ESP Fit Center  250 is at  -0.066939 -1.466162  2.232824
      ESP Fit Center  251 is at  -1.873504 -1.073484  1.392824
      ESP Fit Center  252 is at  -1.170974 -1.910727  1.392824
      ESP Fit Center  253 is at  -0.094636 -2.100514  1.392824
      ESP Fit Center  254 is at   0.851880 -1.554043  1.392824
      ESP Fit Center  255 is at  -1.873504 -1.073484  0.354526
      ESP Fit Center  256 is at  -1.170974 -1.910727  0.354526
      ESP Fit Center  257 is at  -0.094636 -2.100514  0.354526
      ESP Fit Center  258 is at   0.993697 -0.909327 -1.818653
      ESP Fit Center  259 is at   2.043697 -0.909327 -1.818653
      ESP Fit Center  260 is at   3.488480  0.574468 -1.359298
      ESP Fit Center  261 is at   3.114672  1.601498 -1.359298
      ESP Fit Center  262 is at   2.168156  2.147969 -1.359298
      ESP Fit Center  263 is at   1.091818  1.958182 -1.359298
      ESP Fit Center  264 is at   3.114672 -0.452562 -1.359298
      ESP Fit Center  265 is at   2.878184  0.574468 -2.199298
      ESP Fit Center  266 is at   2.195853  1.513617 -2.199298
      ESP Fit Center  267 is at   1.091818  1.154894 -2.199298
      ESP Fit Center  268 is at   1.091818 -0.005958 -2.199298
      ESP Fit Center  269 is at   2.195853 -0.364681 -2.199298
      ESP Fit Center  270 is at   1.890705  0.574468 -2.520149
      ESP Fit Center  271 is at   2.172466 -1.958262  1.235112
      ESP Fit Center  272 is at   1.068431 -2.402827  0.395112
      ESP Fit Center  273 is at   2.144769 -2.592614  0.395112
      ESP Fit Center  274 is at   3.091285 -2.046143  0.395112
      ESP Fit Center  275 is at   3.465093 -1.019113 -0.643186
      ESP Fit Center  276 is at   1.068431 -2.402827 -0.643186
      ESP Fit Center  277 is at   2.144769 -2.592614 -0.643186
      ESP Fit Center  278 is at   3.091285 -2.046143 -0.643186
      ESP Fit Center  279 is at   2.854797 -1.019113 -1.483186
      ESP Fit Center  280 is at   1.068431 -1.599539 -1.483186
      ESP Fit Center  281 is at   2.172466 -1.958262 -1.483186
      ESP Fit Center  282 is at   1.867318 -1.019113 -1.804037
      ESP Fit Center  283 is at   1.773215 -0.323578  3.732943
      ESP Fit Center  284 is at   4.220210  0.597020  3.053119
      ESP Fit Center  285 is at   0.466827  1.136675  3.053119
      ESP Fit Center  286 is at   0.466827  0.057365  3.053119
      ESP Fit Center  287 is at   1.050346 -0.850609  3.053119
      ESP Fit Center  288 is at   2.032121 -1.298970  3.053119
      ESP Fit Center  289 is at   3.100445 -1.145368  3.053119
      ESP Fit Center  290 is at   3.916133 -0.438571  3.053119
      ESP Fit Center  291 is at   4.693296  0.597020  2.070745
      ESP Fit Center  292 is at   0.152693  1.633383  2.070745
      ESP Fit Center  293 is at   0.815472 -1.270442  2.070745
      ESP Fit Center  294 is at   1.773215 -1.731667  2.070745
      ESP Fit Center  295 is at   2.836231 -1.731667  2.070745
      ESP Fit Center  296 is at   3.793974 -1.270442  2.070745
      ESP Fit Center  297 is at   4.456753 -0.439343  2.070745
      ESP Fit Center  298 is at   4.693296  0.597020  0.980393
      ESP Fit Center  299 is at   4.456753  1.633383  0.980393
      ESP Fit Center  300 is at   3.793974 -1.270442  0.980393
      ESP Fit Center  301 is at   4.456753 -0.439343  0.980393
      ESP Fit Center  302 is at   4.220210  0.597020 -0.001981
      ESP Fit Center  303 is at   3.916133 -0.438571 -0.001981
      ESP Fit Center  304 is at   2.037973  4.202020  0.230865
      ESP Fit Center  305 is at   1.246794  2.401878 -0.537788
      ESP Fit Center  306 is at   4.411075  2.611966  0.869345
      ESP Fit Center  307 is at   4.411075  2.611966 -0.168953
      ESP Fit Center  308 is at   4.037267  3.638996 -0.168953
      ESP Fit Center  309 is at   3.090751  4.185467 -0.168953
      ESP Fit Center  310 is at   2.014413  3.995680 -0.168953
      ESP Fit Center  311 is at   4.037267  1.584936 -0.168953
      ESP Fit Center  312 is at   3.800779  2.611966 -1.008953
      ESP Fit Center  313 is at   3.118448  3.551115 -1.008953
      ESP Fit Center  314 is at   2.014413  3.192392 -1.008953
      ESP Fit Center  315 is at   2.813300  2.611966 -1.329804
      ESP Fit Center  316 is at   0.480380  4.130525  1.709118
      ESP Fit Center  317 is at  -0.222150  3.293282  1.709118
      ESP Fit Center  318 is at   1.556718  4.320312  0.670820
      ESP Fit Center  319 is at   0.480380  4.130525  0.670820
      ESP Fit Center  320 is at  -0.222150  3.293282  0.670820
      ESP Fit Center  321 is at   0.480380  3.327237 -0.169180
      ESP Fit Center  322 is at   4.547448  4.124518  3.459278
      ESP Fit Center  323 is at   4.876957  4.117199  2.409278
      ESP Fit Center  324 is at   4.422827  5.182930  2.594595
      ESP Fit Center  325 is at   3.476311  5.729401  2.594595
      ESP Fit Center  326 is at   2.399973  5.539614  2.594595
      ESP Fit Center  327 is at   4.796635  4.155900  1.556297
      ESP Fit Center  328 is at   4.422827  5.182930  1.556297
      ESP Fit Center  329 is at   3.476311  5.729401  1.556297
      ESP Fit Center  330 is at   2.399973  5.539614  1.556297
      ESP Fit Center  331 is at   1.697443  4.702371  1.556297
      ESP Fit Center  332 is at   4.186339  4.155900  0.716297
      ESP Fit Center  333 is at   3.504008  5.095049  0.716297
      ESP Fit Center  334 is at   2.399973  4.736326  0.716297
      ESP Fit Center  335 is at   5.585917  2.701640  3.124281
      ESP Fit Center  336 is at   5.212109  3.728670  3.124281
      ESP Fit Center  337 is at   4.265593  1.128139  3.124281
      ESP Fit Center  338 is at   5.212109  1.674610  3.124281
      ESP Fit Center  339 is at   5.585917  2.701640  2.085983
      ESP Fit Center  340 is at   5.212109  3.728670  2.085983
      ESP Fit Center  341 is at   5.212109  1.674610  2.085983
      ESP Fit Center  342 is at   4.975621  2.701640  1.245983
      ESP Fit Center  343 is at   1.563776  4.246156  6.177476
      ESP Fit Center  344 is at   1.032269  3.325558  6.177476
      ESP Fit Center  345 is at   2.891006  5.067946  5.497652
      ESP Fit Center  346 is at   1.822682  5.221548  5.497652
      ESP Fit Center  347 is at   0.840907  4.773187  5.497652
      ESP Fit Center  348 is at   0.257388  3.865213  5.497652
      ESP Fit Center  349 is at   0.257388  2.785903  5.497652
      ESP Fit Center  350 is at   4.247314  4.361921  4.515278
      ESP Fit Center  351 is at   3.584535  5.193020  4.515278
      ESP Fit Center  352 is at   2.626792  5.654245  4.515278
      ESP Fit Center  353 is at   1.563776  5.654245  4.515278
      ESP Fit Center  354 is at   0.606033  5.193020  4.515278
      ESP Fit Center  355 is at  -0.056746  4.361921  4.515278
      ESP Fit Center  356 is at  -0.293289  3.325558  4.515278
      ESP Fit Center  357 is at  -0.056746  2.289195  4.515278
      ESP Fit Center  358 is at   0.606033  1.458096  4.515278
      ESP Fit Center  359 is at   3.584535  5.193020  3.424926
      ESP Fit Center  360 is at   2.626792  5.654245  3.424926
      ESP Fit Center  361 is at   1.563776  5.654245  3.424926
      ESP Fit Center  362 is at   0.606033  5.193020  3.424926
      ESP Fit Center  363 is at  -0.056746  4.361921  3.424926
      ESP Fit Center  364 is at  -0.293289  3.325558  3.424926
      ESP Fit Center  365 is at  -0.056746  2.289195  3.424926
      ESP Fit Center  366 is at   0.606033  1.458096  3.424926
      ESP Fit Center  367 is at   1.822682  5.221548  2.442552
      ESP Fit Center  368 is at   0.840907  4.773187  2.442552
      ESP Fit Center  369 is at   0.257388  3.865213  2.442552
      ESP Fit Center  370 is at   2.387950  0.103386  6.011143
      ESP Fit Center  371 is at   1.830774 -0.368149  4.862781
      ESP Fit Center  372 is at   2.907112 -0.557936  4.862781
      ESP Fit Center  373 is at   1.128244  0.469094  3.824483
      ESP Fit Center  374 is at   1.830774 -0.368149  3.824483
      ESP Fit Center  375 is at   2.907112 -0.557936  3.824483
      ESP Fit Center  376 is at   3.853628 -0.011465  3.824483
      ESP Fit Center  377 is at   1.082867  2.354301  7.075177
      ESP Fit Center  378 is at   1.082867  1.193449  7.075177
      ESP Fit Center  379 is at   1.082867  3.157589  6.235177
      ESP Fit Center  380 is at   0.380337  2.320346  6.235177
      ESP Fit Center  381 is at   0.380337  1.227404  6.235177
      ESP Fit Center  382 is at   1.082867  0.390161  6.235177
      ESP Fit Center  383 is at   2.159205  0.200374  6.235177
      ESP Fit Center  384 is at   0.380337  1.227404  5.196879
      ESP Fit Center  385 is at   1.082867  0.390161  5.196879
      ESP Fit Center  386 is at   2.832627  0.676404  6.663129
      ESP Fit Center  387 is at   5.338878  1.082159  7.335642
      ESP Fit Center  388 is at   4.656547  0.143010  7.335642
      ESP Fit Center  389 is at   5.949174  1.082159  6.495642
      ESP Fit Center  390 is at   3.552512 -0.301555  6.495642
      ESP Fit Center  391 is at   4.628850 -0.491342  6.495642
      ESP Fit Center  392 is at   5.575366  0.055129  6.495642
      ESP Fit Center  393 is at   5.949174  1.082159  5.457344
      ESP Fit Center  394 is at   3.552512 -0.301555  5.457344
      ESP Fit Center  395 is at   4.628850 -0.491342  5.457344
      ESP Fit Center  396 is at   5.575366  0.055129  5.457344
      ESP Fit Center  397 is at   4.656547  0.143010  4.617344
      ESP Fit Center  398 is at   6.353594  2.373556  5.403272
      ESP Fit Center  399 is at   6.353594  2.373556  4.364974
      ESP Fit Center  400 is at   5.979786  3.400586  4.364974
      ESP Fit Center  401 is at   5.033270  3.947057  4.364974
      ESP Fit Center  402 is at   5.979786  1.346526  4.364974
      ESP Fit Center  403 is at   5.743298  2.373556  3.524974
      ESP Fit Center  404 is at   5.060967  1.434407  3.524974
      ESP Fit Center  405 is at   6.046511  3.238515  8.510777
      ESP Fit Center  406 is at   5.742434  4.274106  8.510777
      ESP Fit Center  407 is at   4.926746  4.980903  8.510777
      ESP Fit Center  408 is at   3.858422  5.134505  8.510777
      ESP Fit Center  409 is at   5.742434  2.202924  8.510777
      ESP Fit Center  410 is at   6.519597  3.238515  7.528403
      ESP Fit Center  411 is at   6.283054  4.274878  7.528403
      ESP Fit Center  412 is at   5.620275  5.105977  7.528403
      ESP Fit Center  413 is at   4.662532  5.567202  7.528403
      ESP Fit Center  414 is at   3.599516  5.567202  7.528403
      ESP Fit Center  415 is at   2.641773  5.105977  7.528403
      ESP Fit Center  416 is at   1.978994  4.274878  7.528403
      ESP Fit Center  417 is at   5.620275  1.371053  7.528403
      ESP Fit Center  418 is at   6.283054  2.202152  7.528403
      ESP Fit Center  419 is at   6.519597  3.238515  6.438051
      ESP Fit Center  420 is at   6.283054  4.274878  6.438051
      ESP Fit Center  421 is at   5.620275  5.105977  6.438051
      ESP Fit Center  422 is at   4.662532  5.567202  6.438051
      ESP Fit Center  423 is at   3.599516  5.567202  6.438051
      ESP Fit Center  424 is at   2.641773  5.105977  6.438051
      ESP Fit Center  425 is at   1.978994  4.274878  6.438051
      ESP Fit Center  426 is at   6.283054  2.202152  6.438051
      ESP Fit Center  427 is at   5.742434  4.274106  5.455677
      ESP Fit Center  428 is at   4.926746  4.980903  5.455677
      ESP Fit Center  429 is at   3.858422  5.134505  5.455677
      ESP Fit Center  430 is at   4.662532  4.159113  4.775853
      ESP Fit Center  431 is at   2.239575  0.886031  9.397938
      ESP Fit Center  432 is at   2.685870  0.296943  8.347938
      ESP Fit Center  433 is at   3.171719  0.460335  7.297938
      ESP Fit Center  434 is at   1.612822  1.398154  9.469798
      ESP Fit Center  435 is at   0.910292  2.525051  8.629798
      ESP Fit Center  436 is at   0.910292  1.432109  8.629798
      ESP Fit Center  437 is at   1.612822  0.594866  8.629798
      ESP Fit Center  438 is at   1.612822  3.362294  7.591500
      ESP Fit Center  439 is at   0.910292  2.525051  7.591500
      ESP Fit Center  440 is at   0.910292  1.432109  7.591500
      ESP Fit Center  441 is at   1.612822  0.594866  7.591500
      ESP Fit Center  442 is at   2.689160  0.405079  7.591500
      ESP Fit Center  443 is at   4.997532  1.351789  9.824107
      ESP Fit Center  444 is at   3.211166  0.771363  9.824107
      ESP Fit Center  445 is at   4.315201  0.412640  9.824107
      ESP Fit Center  446 is at   5.607828  1.351789  8.984107
      ESP Fit Center  447 is at   3.211166 -0.031925  8.984107
      ESP Fit Center  448 is at   4.287504 -0.221712  8.984107
      ESP Fit Center  449 is at   5.234020  0.324759  8.984107
      ESP Fit Center  450 is at   5.607828  1.351789  7.945809
      ESP Fit Center  451 is at   3.211166 -0.031925  7.945809
      ESP Fit Center  452 is at   4.287504 -0.221712  7.945809
      ESP Fit Center  453 is at   5.234020  0.324759  7.945809
      ESP Fit Center  454 is at   3.981415  3.982019 11.458566
      ESP Fit Center  455 is at   2.931415  3.982019 11.458566
      ESP Fit Center  456 is at   1.417437  2.570129  9.639913
      ESP Fit Center  457 is at   3.174933  4.918660 10.902639
      ESP Fit Center  458 is at   2.070898  4.559937 10.902639
      ESP Fit Center  459 is at   3.147236  5.553012 10.062639
      ESP Fit Center  460 is at   2.070898  5.363225 10.062639
      ESP Fit Center  461 is at   1.368368  4.525982 10.062639
      ESP Fit Center  462 is at   1.368368  3.433040 10.062639
      ESP Fit Center  463 is at   4.093752  5.006541  9.024341
      ESP Fit Center  464 is at   3.147236  5.553012  9.024341
      ESP Fit Center  465 is at   2.070898  5.363225  9.024341
      ESP Fit Center  466 is at   1.368368  4.525982  9.024341
      ESP Fit Center  467 is at   1.368368  3.433040  9.024341
      ESP Fit Center  468 is at   2.070898  4.559937  8.184341
      ESP Fit Center  469 is at   3.041830  2.487675 12.134582
      ESP Fit Center  470 is at   4.029309  2.487675 11.813731
      ESP Fit Center  471 is at   3.346978  3.426824 11.813731
      ESP Fit Center  472 is at   2.242943  3.068101 11.813731
      ESP Fit Center  473 is at   2.242943  1.907249 11.813731
      ESP Fit Center  474 is at   3.346978  1.548526 11.813731
      ESP Fit Center  475 is at   1.540413  3.034146 10.973731
      ESP Fit Center  476 is at   1.540413  1.941204 10.973731
      ESP Fit Center  477 is at   2.242943  1.103961 10.973731
      ESP Fit Center  478 is at   3.319281  0.914174 10.973731
      ESP Fit Center  479 is at   4.265797  1.460645 10.973731
      ESP Fit Center  480 is at   1.540413  1.941204  9.935433
      ESP Fit Center  481 is at   2.242943  1.103961  9.935433
      ESP Fit Center  482 is at   4.469839  3.351699 11.586310
      ESP Fit Center  483 is at   5.457318  3.351699 11.265459
      ESP Fit Center  484 is at   4.774987  4.290848 11.265459
      ESP Fit Center  485 is at   4.774987  2.412550 11.265459
      ESP Fit Center  486 is at   6.067614  3.351699 10.425459
      ESP Fit Center  487 is at   5.693806  4.378729 10.425459
      ESP Fit Center  488 is at   4.747290  4.925200 10.425459
      ESP Fit Center  489 is at   5.693806  2.324669 10.425459
      ESP Fit Center  490 is at   6.067614  3.351699  9.387161
      ESP Fit Center  491 is at   5.693806  4.378729  9.387161
      ESP Fit Center  492 is at   4.747290  4.925200  9.387161
      ESP Fit Center  493 is at   5.693806  2.324669  9.387161
      ESP Fit Center  494 is at  -3.742743 -4.494869 -6.146551
      ESP Fit Center  495 is at  -4.422118 -0.958690 -7.108877
      ESP Fit Center  496 is at  -7.001989 -3.194161 -7.108877
      ESP Fit Center  497 is at  -6.430379 -4.083604 -7.108877
      ESP Fit Center  498 is at  -6.914975 -1.887041 -3.991802
      ESP Fit Center  499 is at  -6.468799 -0.305654 -4.694571
      ESP Fit Center  500 is at  -7.300183 -0.909690 -4.694571
      ESP Fit Center  501 is at  -7.617744 -1.887041 -4.694571
      ESP Fit Center  502 is at  -4.994975 -0.224272 -5.654571
      ESP Fit Center  503 is at  -5.954975  0.032959 -5.654571
      ESP Fit Center  504 is at  -6.914975 -0.224272 -5.654571
      ESP Fit Center  505 is at  -7.617744 -0.927041 -5.654571
      ESP Fit Center  506 is at  -7.874975 -1.887041 -5.654571
      ESP Fit Center  507 is at  -7.617744 -2.847041 -5.654571
      ESP Fit Center  508 is at  -5.441151 -0.305654 -6.614571
      ESP Fit Center  509 is at  -6.468799 -0.305654 -6.614571
      ESP Fit Center  510 is at  -7.300183 -0.909690 -6.614571
      ESP Fit Center  511 is at  -7.617744 -1.887041 -6.614571
      ESP Fit Center  512 is at  -6.434975 -1.055657 -7.317340
      ESP Fit Center  513 is at  -6.914975 -1.887041 -7.317340
      ESP Fit Center  514 is at  -3.828348 -4.463888 -6.607136
      ESP Fit Center  515 is at  -3.125579 -3.761119 -6.607136
      ESP Fit Center  516 is at  -3.125579 -2.801119 -7.567136
      ESP Fit Center  517 is at  -3.443140 -1.823768 -7.567136
      ESP Fit Center  518 is at  -4.274524 -1.219732 -7.567136
      ESP Fit Center  519 is at  -5.302172 -1.219732 -7.567136
      ESP Fit Center  520 is at  -6.133556 -3.778470 -7.567136
      ESP Fit Center  521 is at  -5.302172 -4.382506 -7.567136
      ESP Fit Center  522 is at  -4.274524 -4.382506 -7.567136
      ESP Fit Center  523 is at  -3.443140 -3.778470 -7.567136
      ESP Fit Center  524 is at  -3.828348 -2.801119 -8.269905
      ESP Fit Center  525 is at  -4.308348 -1.969735 -8.269905
      ESP Fit Center  526 is at  -5.268348 -1.969735 -8.269905
      ESP Fit Center  527 is at  -5.748348 -2.801119 -8.269905
      ESP Fit Center  528 is at  -5.268348 -3.632503 -8.269905
      ESP Fit Center  529 is at  -4.308348 -3.632503 -8.269905
      ESP Fit Center  530 is at  -4.788348 -2.801119 -8.527136
      ESP Fit Center  531 is at  -6.642744 -3.588152 -3.645941
      ESP Fit Center  532 is at  -6.162744 -4.419536 -3.645941
      ESP Fit Center  533 is at  -5.202744 -4.419536 -3.645941
      ESP Fit Center  534 is at  -7.345513 -3.588152 -4.348710
      ESP Fit Center  535 is at  -7.027952 -4.565503 -4.348710
      ESP Fit Center  536 is at  -6.196568 -5.169539 -4.348710
      ESP Fit Center  537 is at  -5.168920 -5.169539 -4.348710
      ESP Fit Center  538 is at  -7.602744 -3.588152 -5.308710
      ESP Fit Center  539 is at  -7.345513 -4.548152 -5.308710
      ESP Fit Center  540 is at  -6.642744 -5.250921 -5.308710
      ESP Fit Center  541 is at  -5.682744 -5.508152 -5.308710
      ESP Fit Center  542 is at  -4.722744 -5.250921 -5.308710
      ESP Fit Center  543 is at  -7.345513 -3.588152 -6.268710
      ESP Fit Center  544 is at  -7.027952 -4.565503 -6.268710
      ESP Fit Center  545 is at  -6.196568 -5.169539 -6.268710
      ESP Fit Center  546 is at  -5.168920 -5.169539 -6.268710
      ESP Fit Center  547 is at  -6.162744 -4.419536 -6.971479
      ESP Fit Center  548 is at  -2.232759 -2.293149 -6.126229
      ESP Fit Center  549 is at  -3.859901 -4.650341 -3.637701
      ESP Fit Center  550 is at  -2.832253 -4.650341 -3.637701
      ESP Fit Center  551 is at  -2.000869 -4.046305 -3.637701
      ESP Fit Center  552 is at  -1.426077 -3.068954 -4.597701
      ESP Fit Center  553 is at  -1.683308 -2.108954 -4.597701
      ESP Fit Center  554 is at  -4.306077 -4.731723 -4.597701
      ESP Fit Center  555 is at  -3.346077 -4.988954 -4.597701
      ESP Fit Center  556 is at  -2.386077 -4.731723 -4.597701
      ESP Fit Center  557 is at  -1.683308 -4.028954 -4.597701
      ESP Fit Center  558 is at  -1.683308 -3.068954 -5.557701
      ESP Fit Center  559 is at  -2.832253 -4.650341 -5.557701
      ESP Fit Center  560 is at  -2.000869 -4.046305 -5.557701
      ESP Fit Center  561 is at  -2.386077 -3.068954 -6.260470
      ESP Fit Center  562 is at  -2.866077 -3.900338 -6.260470
      ESP Fit Center  563 is at  -1.701275 -1.371579 -4.941338
      ESP Fit Center  564 is at  -1.958506 -0.411579 -4.941338
      ESP Fit Center  565 is at  -2.661275  0.291190 -4.941338
      ESP Fit Center  566 is at  -4.581275  0.291190 -4.941338
      ESP Fit Center  567 is at  -1.958506 -1.371579 -5.901338
      ESP Fit Center  568 is at  -2.276067 -0.394228 -5.901338
      ESP Fit Center  569 is at  -3.107451  0.209808 -5.901338
      ESP Fit Center  570 is at  -4.135099  0.209808 -5.901338
      ESP Fit Center  571 is at  -2.661275 -1.371579 -6.604107
      ESP Fit Center  572 is at  -3.141275 -0.540195 -6.604107
      ESP Fit Center  573 is at  -4.101275 -0.540195 -6.604107
      ESP Fit Center  574 is at  -6.440080 -2.145772 -1.966573
      ESP Fit Center  575 is at  -6.105611 -3.175162 -1.966573
      ESP Fit Center  576 is at  -5.229959 -3.811360 -1.966573
      ESP Fit Center  577 is at  -6.323404 -0.697619 -2.864743
      ESP Fit Center  578 is at  -6.809157 -1.623145 -2.864743
      ESP Fit Center  579 is at  -6.809157 -2.668399 -2.864743
      ESP Fit Center  580 is at  -6.323404 -3.593925 -2.864743
      ESP Fit Center  581 is at  -5.463177 -4.187696 -2.864743
      ESP Fit Center  582 is at  -4.425544 -4.313688 -2.864743
      ESP Fit Center  583 is at  -5.463177 -0.103848 -3.861637
      ESP Fit Center  584 is at  -6.323404 -0.697619 -3.861637
      ESP Fit Center  585 is at  -6.809157 -1.623145 -3.861637
      ESP Fit Center  586 is at  -3.301899 -4.062493 -1.795363
      ESP Fit Center  587 is at  -3.301899 -4.062493 -2.863463
      ESP Fit Center  588 is at  -1.864243 -2.179737 -0.828399
      ESP Fit Center  589 is at  -2.344243 -3.011121 -0.828399
      ESP Fit Center  590 is at  -1.161474 -2.179737 -1.531168
      ESP Fit Center  591 is at  -2.310419 -3.761124 -1.531168
      ESP Fit Center  592 is at  -1.479035 -3.157088 -1.531168
      ESP Fit Center  593 is at  -0.904243 -2.179737 -2.491168
      ESP Fit Center  594 is at  -1.161474 -1.219737 -2.491168
      ESP Fit Center  595 is at  -2.824243 -4.099737 -2.491168
      ESP Fit Center  596 is at  -1.864243 -3.842506 -2.491168
      ESP Fit Center  597 is at  -1.161474 -3.139737 -2.491168
      ESP Fit Center  598 is at  -1.161474 -2.179737 -3.451168
      ESP Fit Center  599 is at  -1.479035 -1.202386 -3.451168
      ESP Fit Center  600 is at  -1.479035 -3.157088 -3.451168
      ESP Fit Center  601 is at  -4.206292 -2.213110  0.505943
      ESP Fit Center  602 is at  -3.246292 -2.213110  0.248712
      ESP Fit Center  603 is at  -4.686292 -1.381726  0.248712
      ESP Fit Center  604 is at  -5.166292 -2.213110  0.248712
      ESP Fit Center  605 is at  -4.686292 -3.044494  0.248712
      ESP Fit Center  606 is at  -3.726292 -3.044494  0.248712
      ESP Fit Center  607 is at  -5.551500 -1.235759 -0.454057
      ESP Fit Center  608 is at  -5.869061 -2.213110 -0.454057
      ESP Fit Center  609 is at  -5.551500 -3.190461 -0.454057
      ESP Fit Center  610 is at  -4.720116 -3.794497 -0.454057
      ESP Fit Center  611 is at  -3.692468 -3.794497 -0.454057
      ESP Fit Center  612 is at  -2.861084 -3.190461 -0.454057
      ESP Fit Center  613 is at  -6.126292 -2.213110 -1.414057
      ESP Fit Center  614 is at  -5.869061 -3.173110 -1.414057
      ESP Fit Center  615 is at  -5.166292 -3.875879 -1.414057
      ESP Fit Center  616 is at  -4.206292 -4.133110 -1.414057
      ESP Fit Center  617 is at  -4.275473  2.010413 -2.708239
      ESP Fit Center  618 is at  -4.983591  1.147335 -3.670565
      ESP Fit Center  619 is at  -1.473037  0.196953 -3.088103
      ESP Fit Center  620 is at  -1.730268  0.196953 -4.048103
      ESP Fit Center  621 is at  -2.047829  1.174304 -4.048103
      ESP Fit Center  622 is at  -2.879213  1.778340 -4.048103
      ESP Fit Center  623 is at  -3.906861  1.778340 -4.048103
      ESP Fit Center  624 is at  -4.738245  1.174304 -4.048103
      ESP Fit Center  625 is at  -2.433037  0.196953 -4.750872
      ESP Fit Center  626 is at  -2.913037  1.028337 -4.750872
      ESP Fit Center  627 is at  -3.873037  1.028337 -4.750872
      ESP Fit Center  628 is at  -5.711987  0.117339 -0.315058
      ESP Fit Center  629 is at  -5.231987 -0.714045 -0.315058
      ESP Fit Center  630 is at  -6.097195  1.094690 -1.017827
      ESP Fit Center  631 is at  -6.414756  0.117339 -1.017827
      ESP Fit Center  632 is at  -6.097195 -0.860012 -1.017827
      ESP Fit Center  633 is at  -5.711987  1.780108 -1.977827
      ESP Fit Center  634 is at  -6.414756  1.077339 -1.977827
      ESP Fit Center  635 is at  -6.671987  0.117339 -1.977827
      ESP Fit Center  636 is at  -6.414756 -0.842661 -1.977827
      ESP Fit Center  637 is at  -5.265811  1.698726 -2.937827
      ESP Fit Center  638 is at  -6.097195  1.094690 -2.937827
      ESP Fit Center  639 is at  -6.414756  0.117339 -2.937827
      ESP Fit Center  640 is at  -5.231987  0.948723 -3.640596
      ESP Fit Center  641 is at  -5.711987  0.117339 -3.640596
      ESP Fit Center  642 is at  -3.866631  0.007808  0.908200
      ESP Fit Center  643 is at  -3.380681 -0.833882  0.908200
      ESP Fit Center  644 is at  -4.646034  0.007808  0.286647
      ESP Fit Center  645 is at  -4.311565 -1.021582  0.286647
      ESP Fit Center  646 is at  -3.435913 -1.657780  0.286647
      ESP Fit Center  647 is at  -2.353549 -1.657780  0.286647
      ESP Fit Center  648 is at  -3.278267  3.646047 -0.273787
      ESP Fit Center  649 is at  -3.278267  3.646047 -1.341887
      ESP Fit Center  650 is at  -3.986385  2.782969 -2.304213
      ESP Fit Center  651 is at  -4.204196  2.615312  1.134656
      ESP Fit Center  652 is at  -4.684196  1.783928  1.134656
      ESP Fit Center  653 is at  -4.204196  0.952544  1.134656
      ESP Fit Center  654 is at  -4.238020  3.365315  0.431887
      ESP Fit Center  655 is at  -5.069404  2.761279  0.431887
      ESP Fit Center  656 is at  -5.386965  1.783928  0.431887
      ESP Fit Center  657 is at  -5.069404  0.806577  0.431887
      ESP Fit Center  658 is at  -3.724196  3.703928 -0.528113
      ESP Fit Center  659 is at  -4.684196  3.446697 -0.528113
      ESP Fit Center  660 is at  -5.386965  2.743928 -0.528113
      ESP Fit Center  661 is at  -5.644196  1.783928 -0.528113
      ESP Fit Center  662 is at  -4.238020  3.365315 -1.488113
      ESP Fit Center  663 is at  -5.069404  2.761279 -1.488113
      ESP Fit Center  664 is at  -0.729014  2.873261 -1.673572
      ESP Fit Center  665 is at  -1.431783  3.576030 -1.673572
      ESP Fit Center  666 is at  -2.391783  3.833261 -1.673572
      ESP Fit Center  667 is at  -3.351783  3.576030 -1.673572
      ESP Fit Center  668 is at  -0.729014  1.913261 -2.633572
      ESP Fit Center  669 is at  -1.046575  2.890612 -2.633572
      ESP Fit Center  670 is at  -1.877959  3.494648 -2.633572
      ESP Fit Center  671 is at  -2.905607  3.494648 -2.633572
      ESP Fit Center  672 is at  -3.736991  2.890612 -2.633572
      ESP Fit Center  673 is at  -1.046575  0.935910 -2.633572
      ESP Fit Center  674 is at  -1.431783  1.913261 -3.336341
      ESP Fit Center  675 is at  -1.911783  2.744645 -3.336341
      ESP Fit Center  676 is at  -2.871783  2.744645 -3.336341
      ESP Fit Center  677 is at  -2.391783  1.913261 -3.593572
      ESP Fit Center  678 is at  -0.750423  1.541865  2.508768
      ESP Fit Center  679 is at  -3.592132  2.070507  1.842819
      ESP Fit Center  680 is at  -1.012261  3.248694 -1.149933
      ESP Fit Center  681 is at  -2.086595  0.895482  3.088573
      ESP Fit Center  682 is at  -1.126595  0.895482  2.831342
      ESP Fit Center  683 is at  -1.606595  1.726866  2.831342
      ESP Fit Center  684 is at  -2.566595  1.726866  2.831342
      ESP Fit Center  685 is at  -3.046595  0.895482  2.831342
      ESP Fit Center  686 is at  -2.566595  0.064098  2.831342
      ESP Fit Center  687 is at  -1.606595  0.064098  2.831342
      ESP Fit Center  688 is at  -3.431803  1.872833  2.128573
      ESP Fit Center  689 is at  -3.749364  0.895482  2.128573
      ESP Fit Center  690 is at  -3.431803 -0.081869  2.128573
      ESP Fit Center  691 is at  -2.600419 -0.685905  2.128573
      ESP Fit Center  692 is at  -3.749364 -0.064518  1.168573
      ESP Fit Center  693 is at  -3.046595 -0.767287  1.168573
      ESP Fit Center  694 is at  -1.851112  2.568663  2.607795
      ESP Fit Center  695 is at  -0.891112  2.568663  2.350564
      ESP Fit Center  696 is at  -1.371112  3.400047  2.350564
      ESP Fit Center  697 is at  -2.331112  3.400047  2.350564
      ESP Fit Center  698 is at  -2.811112  2.568663  2.350564
      ESP Fit Center  699 is at  -0.505904  3.546014  1.647795
      ESP Fit Center  700 is at  -1.337288  4.150050  1.647795
      ESP Fit Center  701 is at  -2.364936  4.150050  1.647795
      ESP Fit Center  702 is at  -3.196320  3.546014  1.647795
      ESP Fit Center  703 is at  -0.891112  4.231432  0.687795
      ESP Fit Center  704 is at  -1.851112  4.488663  0.687795
      ESP Fit Center  705 is at  -2.811112  4.231432  0.687795
      ESP Fit Center  706 is at  -3.513881  3.528663  0.687795
      ESP Fit Center  707 is at  -1.337288  4.150050 -0.272205
      ESP Fit Center  708 is at  -2.364936  4.150050 -0.272205
      ESP Fit Center  709 is at  -0.192229  3.491761 -0.498447
      ESP Fit Center  710 is at   0.961372  2.353235 -1.396617
      ESP Fit Center  711 is at   0.085720  2.989433 -1.396617
      ESP Fit Center  712 is at   0.516438  1.323845 -2.018170
      ESP Fit Center  713 is at   0.030488  2.165535 -2.018170
      ESP Fit Center  714 is at  -0.455462  1.323845 -2.240000
      ESP Fit Center  715 is at   0.520660 -2.281163  0.534050
      ESP Fit Center  716 is at   0.520660  0.901810 -2.162325
      ESP Fit Center  717 is at  -1.315078 -2.185734 -0.881682
      ESP Fit Center  718 is at  -0.355078 -2.442965 -0.881682
      ESP Fit Center  719 is at  -0.868902 -2.104352 -1.841682
      ESP Fit Center  720 is at   0.158746 -2.104352 -1.841682
      ESP Fit Center  721 is at   0.990130 -1.500316 -1.841682
      ESP Fit Center  722 is at   0.604922 -0.522965 -2.544451
      ESP Fit Center  723 is at   0.124922  0.308419 -2.544451
      ESP Fit Center  724 is at  -0.835078  0.308419 -2.544451
      ESP Fit Center  725 is at  -0.835078 -1.354349 -2.544451
      ESP Fit Center  726 is at   0.124922 -1.354349 -2.544451
      ESP Fit Center  727 is at  -0.355078 -0.522965 -2.801682
      ESP Fit Center  728 is at  -0.372087 -0.527013  2.793675
      ESP Fit Center  729 is at  -0.852087  0.304371  2.536444
      ESP Fit Center  730 is at  -1.332087 -0.527013  2.536444
      ESP Fit Center  731 is at  -0.852087 -1.358397  2.536444
      ESP Fit Center  732 is at   0.107913 -1.358397  2.536444
      ESP Fit Center  733 is at  -1.717295 -1.504364  1.833675
      ESP Fit Center  734 is at  -0.885911 -2.108400  1.833675
      ESP Fit Center  735 is at   0.141737 -2.108400  1.833675
      ESP Fit Center  736 is at  -2.034856 -1.487013  0.873675
      ESP Fit Center  737 is at  -1.332087 -2.189782  0.873675
      ESP Fit Center  738 is at  -0.372087 -2.447013  0.873675
      ESP Fit Center  739 is at   0.587913 -2.189782  0.873675
      ESP Fit Center  740 is at   2.039357 -0.901810 -2.162325
      ESP Fit Center  741 is at   3.810705  0.574468 -0.840149
      ESP Fit Center  742 is at   3.553474  0.574468 -1.800149
      ESP Fit Center  743 is at   3.235913  1.551819 -1.800149
      ESP Fit Center  744 is at   2.404529  2.155855 -1.800149
      ESP Fit Center  745 is at   1.376881  2.155855 -1.800149
      ESP Fit Center  746 is at   3.235913 -0.402883 -1.800149
      ESP Fit Center  747 is at   2.850705  0.574468 -2.502918
      ESP Fit Center  748 is at   2.370705  1.405852 -2.502918
      ESP Fit Center  749 is at   1.410705  1.405852 -2.502918
      ESP Fit Center  750 is at   0.930705  0.574468 -2.502918
      ESP Fit Center  751 is at   1.410705 -0.256916 -2.502918
      ESP Fit Center  752 is at   2.370705 -0.256916 -2.502918
      ESP Fit Center  753 is at   1.890705  0.574468 -2.760149
      ESP Fit Center  754 is at   1.353494 -2.600500  0.835963
      ESP Fit Center  755 is at   2.381142 -2.600500  0.835963
      ESP Fit Center  756 is at   3.212526 -1.996464  0.835963
      ESP Fit Center  757 is at   0.907318 -2.681882 -0.124037
      ESP Fit Center  758 is at   1.867318 -2.939113 -0.124037
      ESP Fit Center  759 is at   2.827318 -2.681882 -0.124037
      ESP Fit Center  760 is at   3.530087 -1.979113 -0.124037
      ESP Fit Center  761 is at   3.530087 -1.019113 -1.084037
      ESP Fit Center  762 is at   1.353494 -2.600500 -1.084037
      ESP Fit Center  763 is at   2.381142 -2.600500 -1.084037
      ESP Fit Center  764 is at   3.212526 -1.996464 -1.084037
      ESP Fit Center  765 is at   2.827318 -1.019113 -1.786806
      ESP Fit Center  766 is at   1.387318 -1.850497 -1.786806
      ESP Fit Center  767 is at   2.347318 -1.850497 -1.786806
      ESP Fit Center  768 is at   0.324824  0.597020  3.505468
      ESP Fit Center  769 is at   0.590080 -0.392929  3.505468
      ESP Fit Center  770 is at   1.314774 -1.117623  3.505468
      ESP Fit Center  771 is at   2.304723 -1.382879  3.505468
      ESP Fit Center  772 is at   3.294672 -1.117623  3.505468
      ESP Fit Center  773 is at   4.019366 -0.392929  3.505468
      ESP Fit Center  774 is at   4.891586  0.597020  2.597083
      ESP Fit Center  775 is at  -0.225611  1.134859  2.597083
      ESP Fit Center  776 is at   1.011292 -1.643269  2.597083
      ESP Fit Center  777 is at   2.034322 -1.975672  2.597083
      ESP Fit Center  778 is at   3.104108 -1.863233  2.597083
      ESP Fit Center  779 is at   4.035672 -1.325394  2.597083
      ESP Fit Center  780 is at   4.667940 -0.455152  2.597083
      ESP Fit Center  781 is at   5.104723  0.597020  1.525569
      ESP Fit Center  782 is at   1.538467 -2.096092  1.525569
      ESP Fit Center  783 is at   2.563074 -2.191036  1.525569
      ESP Fit Center  784 is at   3.552790 -1.909437  1.525569
      ESP Fit Center  785 is at   4.373948 -1.289328  1.525569
      ESP Fit Center  786 is at   4.915645 -0.414457  1.525569
      ESP Fit Center  787 is at   4.891586  0.597020  0.454055
      ESP Fit Center  788 is at   4.667940  1.649192  0.454055
      ESP Fit Center  789 is at   4.035672 -1.325394  0.454055
      ESP Fit Center  790 is at   4.667940 -0.455152  0.454055
      ESP Fit Center  791 is at   4.284622  0.597020 -0.454330
      ESP Fit Center  792 is at   4.019366 -0.392929 -0.454330
      ESP Fit Center  793 is at   1.776134  4.683041  0.746815
      ESP Fit Center  794 is at   4.733300  2.611966  0.350196
      ESP Fit Center  795 is at   4.476069  3.571966  0.350196
      ESP Fit Center  796 is at   4.476069  2.611966 -0.609804
      ESP Fit Center  797 is at   4.158508  3.589317 -0.609804
      ESP Fit Center  798 is at   3.327124  4.193353 -0.609804
      ESP Fit Center  799 is at   2.299476  4.193353 -0.609804
      ESP Fit Center  800 is at   4.158508  1.634615 -0.609804
      ESP Fit Center  801 is at   3.773300  2.611966 -1.312573
      ESP Fit Center  802 is at   3.293300  3.443350 -1.312573
      ESP Fit Center  803 is at   2.333300  3.443350 -1.312573
      ESP Fit Center  804 is at   1.853300  2.611966 -1.312573
      ESP Fit Center  805 is at   2.813300  2.611966 -1.569804
      ESP Fit Center  806 is at  -0.065941  3.724162  2.149969
      ESP Fit Center  807 is at  -0.383502  2.746811  2.149969
      ESP Fit Center  808 is at   1.279267  4.666811  1.189969
      ESP Fit Center  809 is at   0.319267  4.409580  1.189969
      ESP Fit Center  810 is at  -0.383502  3.706811  1.189969
      ESP Fit Center  811 is at   0.765443  4.328198  0.229969
      ESP Fit Center  812 is at  -0.065941  3.724162  0.229969
      ESP Fit Center  813 is at   0.799267  3.578195 -0.472800
      ESP Fit Center  814 is at   5.125610  4.156493  1.875228
      ESP Fit Center  815 is at   4.893895  3.141280  0.912902
      ESP Fit Center  816 is at   4.544068  5.133251  3.035446
      ESP Fit Center  817 is at   3.712684  5.737287  3.035446
      ESP Fit Center  818 is at   4.861629  5.115900  2.075446
      ESP Fit Center  819 is at   4.158860  5.818669  2.075446
      ESP Fit Center  820 is at   3.198860  6.075900  2.075446
      ESP Fit Center  821 is at   2.238860  5.818669  2.075446
      ESP Fit Center  822 is at   4.861629  4.155900  1.115446
      ESP Fit Center  823 is at   4.544068  5.133251  1.115446
      ESP Fit Center  824 is at   3.712684  5.737287  1.115446
      ESP Fit Center  825 is at   2.685036  5.737287  1.115446
      ESP Fit Center  826 is at   1.853652  5.133251  1.115446
      ESP Fit Center  827 is at   4.158860  4.155900  0.412677
      ESP Fit Center  828 is at   3.678860  4.987284  0.412677
      ESP Fit Center  829 is at   2.718860  4.987284  0.412677
      ESP Fit Center  830 is at   5.333350  3.678991  3.565132
      ESP Fit Center  831 is at   5.908142  2.701640  2.605132
      ESP Fit Center  832 is at   5.650911  3.661640  2.605132
      ESP Fit Center  833 is at   4.948142  1.038871  2.605132
      ESP Fit Center  834 is at   5.650911  1.741640  2.605132
      ESP Fit Center  835 is at   5.650911  2.701640  1.645132
      ESP Fit Center  836 is at   5.333350  3.678991  1.645132
      ESP Fit Center  837 is at   5.333350  1.724289  1.645132
      ESP Fit Center  838 is at   4.948142  2.701640  0.942363
      ESP Fit Center  839 is at   1.023770  3.325558  6.556965
      ESP Fit Center  840 is at   2.095284  5.305457  5.950001
      ESP Fit Center  841 is at   1.105335  5.040201  5.950001
      ESP Fit Center  842 is at   0.380641  4.315507  5.950001
      ESP Fit Center  843 is at   0.115385  3.325558  5.950001
      ESP Fit Center  844 is at   3.826233  5.247972  5.041616
      ESP Fit Center  845 is at   2.894669  5.785811  5.041616
      ESP Fit Center  846 is at   1.824883  5.898250  5.041616
      ESP Fit Center  847 is at   0.801853  5.565847  5.041616
      ESP Fit Center  848 is at   0.002468  4.846078  5.041616
      ESP Fit Center  849 is at  -0.435050  3.863397  5.041616
      ESP Fit Center  850 is at  -0.435050  2.787719  5.041616
      ESP Fit Center  851 is at   0.002468  1.805038  5.041616
      ESP Fit Center  852 is at   4.706206  4.337035  3.970102
      ESP Fit Center  853 is at   4.164509  5.211906  3.970102
      ESP Fit Center  854 is at   3.343351  5.832015  3.970102
      ESP Fit Center  855 is at   2.353635  6.113614  3.970102
      ESP Fit Center  856 is at   1.329028  6.018670  3.970102
      ESP Fit Center  857 is at   0.407907  5.560006  3.970102
      ESP Fit Center  858 is at  -0.285324  4.799568  3.970102
      ESP Fit Center  859 is at  -0.657041  3.840057  3.970102
      ESP Fit Center  860 is at  -0.657041  2.811059  3.970102
      ESP Fit Center  861 is at  -0.285324  1.851548  3.970102
      ESP Fit Center  862 is at   0.407907  1.091110  3.970102
      ESP Fit Center  863 is at   1.824883  5.898250  2.898588
      ESP Fit Center  864 is at   0.801853  5.565847  2.898588
      ESP Fit Center  865 is at   0.002468  4.846078  2.898588
      ESP Fit Center  866 is at  -0.435050  3.863397  2.898588
      ESP Fit Center  867 is at  -0.435050  2.787719  2.898588
      ESP Fit Center  868 is at   0.002468  1.805038  2.898588
      ESP Fit Center  869 is at   1.105335  5.040201  1.990203
      ESP Fit Center  870 is at   0.380641  4.315507  1.990203
      ESP Fit Center  871 is at   2.379732  0.046231  6.457519
      ESP Fit Center  872 is at   0.538660  0.888315  4.427093
      ESP Fit Center  873 is at   2.115837 -0.565822  5.303632
      ESP Fit Center  874 is at   3.143485 -0.565822  5.303632
      ESP Fit Center  875 is at   0.966892  0.055565  4.343632
      ESP Fit Center  876 is at   1.669661 -0.647204  4.343632
      ESP Fit Center  877 is at   2.629661 -0.904435  4.343632
      ESP Fit Center  878 is at   3.589661 -0.647204  4.343632
      ESP Fit Center  879 is at   0.536546  2.751226  6.676028
      ESP Fit Center  880 is at   0.218985  1.773875  6.676028
      ESP Fit Center  881 is at   0.536546  0.796524  6.676028
      ESP Fit Center  882 is at   1.367930  0.192488  6.676028
      ESP Fit Center  883 is at   2.395578  0.192488  6.676028
      ESP Fit Center  884 is at  -0.038246  1.773875  5.716028
      ESP Fit Center  885 is at   0.218985  0.813875  5.716028
      ESP Fit Center  886 is at   0.921754  0.111106  5.716028
      ESP Fit Center  887 is at   6.131703  1.035637  5.079079
      ESP Fit Center  888 is at   4.803075  0.344021  4.116753
      ESP Fit Center  889 is at   6.014168  1.082159  6.936493
      ESP Fit Center  890 is at   3.006191  0.104808  6.936493
      ESP Fit Center  891 is at   3.837575 -0.499228  6.936493
      ESP Fit Center  892 is at   4.865223 -0.499228  6.936493
      ESP Fit Center  893 is at   5.696607  0.104808  6.936493
      ESP Fit Center  894 is at   6.271399  1.082159  5.976493
      ESP Fit Center  895 is at   3.391399 -0.580610  5.976493
      ESP Fit Center  896 is at   4.351399 -0.837841  5.976493
      ESP Fit Center  897 is at   5.311399 -0.580610  5.976493
      ESP Fit Center  898 is at   6.014168  0.122159  5.976493
      ESP Fit Center  899 is at   3.837575 -0.499228  5.016493
      ESP Fit Center  900 is at   4.865223 -0.499228  5.016493
      ESP Fit Center  901 is at   5.696607  0.104808  5.016493
      ESP Fit Center  902 is at   6.675819  2.373556  4.884123
      ESP Fit Center  903 is at   6.418588  3.333556  4.884123
      ESP Fit Center  904 is at   6.418588  1.413556  4.884123
      ESP Fit Center  905 is at   6.418588  2.373556  3.924123
      ESP Fit Center  906 is at   6.101027  3.350907  3.924123
      ESP Fit Center  907 is at   5.269643  3.954943  3.924123
      ESP Fit Center  908 is at   5.269643  0.792169  3.924123
      ESP Fit Center  909 is at   6.101027  1.396205  3.924123
      ESP Fit Center  910 is at   5.120973  4.953158  8.963126
      ESP Fit Center  911 is at   5.845667  2.248566  8.963126
      ESP Fit Center  912 is at   6.717887  3.238515  8.054741
      ESP Fit Center  913 is at   6.494241  4.290687  8.054741
      ESP Fit Center  914 is at   5.861973  5.160929  8.054741
      ESP Fit Center  915 is at   4.930409  5.698768  8.054741
      ESP Fit Center  916 is at   3.860623  5.811207  8.054741
      ESP Fit Center  917 is at   2.837593  5.478804  8.054741
      ESP Fit Center  918 is at   6.494241  2.186343  8.054741
      ESP Fit Center  919 is at   6.931024  3.238515  6.983227
      ESP Fit Center  920 is at   6.741946  4.249992  6.983227
      ESP Fit Center  921 is at   6.200249  5.124863  6.983227
      ESP Fit Center  922 is at   5.379091  5.744972  6.983227
      ESP Fit Center  923 is at   4.389375  6.026571  6.983227
      ESP Fit Center  924 is at   3.364768  5.931627  6.983227
      ESP Fit Center  925 is at   2.443647  5.472963  6.983227
      ESP Fit Center  926 is at   1.750416  4.712525  6.983227
      ESP Fit Center  927 is at   1.378699  3.753014  6.983227
      ESP Fit Center  928 is at   6.200249  1.352167  6.983227
      ESP Fit Center  929 is at   6.741946  2.227038  6.983227
      ESP Fit Center  930 is at   6.717887  3.238515  5.911713
      ESP Fit Center  931 is at   6.494241  4.290687  5.911713
      ESP Fit Center  932 is at   5.861973  5.160929  5.911713
      ESP Fit Center  933 is at   4.930409  5.698768  5.911713
      ESP Fit Center  934 is at   3.860623  5.811207  5.911713
      ESP Fit Center  935 is at   2.837593  5.478804  5.911713
      ESP Fit Center  936 is at   6.494241  2.186343  5.911713
      ESP Fit Center  937 is at   5.845667  4.228464  5.003328
      ESP Fit Center  938 is at   5.120973  4.953158  5.003328
      ESP Fit Center  939 is at   4.131024  5.218414  5.003328
      ESP Fit Center  940 is at   2.201762  0.842392  9.844314
      ESP Fit Center  941 is at   1.066501  2.955931  9.070649
      ESP Fit Center  942 is at   0.748940  1.978580  9.070649
      ESP Fit Center  943 is at   1.066501  1.001229  9.070649
      ESP Fit Center  944 is at   1.897885  0.397193  9.070649
      ESP Fit Center  945 is at   1.451709  3.641349  8.110649
      ESP Fit Center  946 is at   0.748940  2.938580  8.110649
      ESP Fit Center  947 is at   0.491709  1.978580  8.110649
      ESP Fit Center  948 is at   0.748940  1.018580  8.110649
      ESP Fit Center  949 is at   1.451709  0.315811  8.110649
      ESP Fit Center  950 is at   2.411709  0.058580  8.110649
      ESP Fit Center  951 is at   1.066501  2.955931  7.150649
      ESP Fit Center  952 is at   1.897885  0.397193  7.150649
      ESP Fit Center  953 is at   3.530053  0.520405 10.127727
      ESP Fit Center  954 is at   4.490053  0.520405 10.127727
      ESP Fit Center  955 is at   5.672822  1.351789  9.424958
      ESP Fit Center  956 is at   3.496229 -0.229598  9.424958
      ESP Fit Center  957 is at   4.523877 -0.229598  9.424958
      ESP Fit Center  958 is at   5.355261  0.374438  9.424958
      ESP Fit Center  959 is at   5.930053  1.351789  8.464958
      ESP Fit Center  960 is at   3.050053 -0.310980  8.464958
      ESP Fit Center  961 is at   4.010053 -0.568211  8.464958
      ESP Fit Center  962 is at   4.970053 -0.310980  8.464958
      ESP Fit Center  963 is at   5.672822  0.391789  8.464958
      ESP Fit Center  964 is at   3.496229 -0.229598  7.504958
      ESP Fit Center  965 is at   4.523877 -0.229598  7.504958
      ESP Fit Center  966 is at   5.355261  0.374438  7.504958
      ESP Fit Center  967 is at   3.977075  3.974502 11.802238
      ESP Fit Center  968 is at   2.935755  3.974502 11.802238
      ESP Fit Center  969 is at   1.116588  3.072692 10.173963
      ESP Fit Center  970 is at   4.915273  1.243342 10.173963
      ESP Fit Center  971 is at   1.116588  3.072692  9.105863
      ESP Fit Center  972 is at   2.389785  4.810895 11.206259
      ESP Fit Center  973 is at   3.383609  5.560898 10.503490
      ESP Fit Center  974 is at   2.355961  5.560898 10.503490
      ESP Fit Center  975 is at   1.524577  4.956862 10.503490
      ESP Fit Center  976 is at   1.207016  3.979511 10.503490
      ESP Fit Center  977 is at   3.829785  5.642280  9.543490
      ESP Fit Center  978 is at   2.869785  5.899511  9.543490
      ESP Fit Center  979 is at   1.909785  5.642280  9.543490
      ESP Fit Center  980 is at   1.207016  4.939511  9.543490
      ESP Fit Center  981 is at   0.949785  3.979511  9.543490
      ESP Fit Center  982 is at   3.383609  5.560898  8.583490
      ESP Fit Center  983 is at   2.355961  5.560898  8.583490
      ESP Fit Center  984 is at   1.524577  4.956862  8.583490
      ESP Fit Center  985 is at   1.207016  3.979511  8.583490
      ESP Fit Center  986 is at   3.041830  2.487675 12.374582
      ESP Fit Center  987 is at   4.001830  2.487675 12.117351
      ESP Fit Center  988 is at   3.521830  3.319059 12.117351
      ESP Fit Center  989 is at   2.561830  3.319059 12.117351
      ESP Fit Center  990 is at   2.081830  2.487675 12.117351
      ESP Fit Center  991 is at   2.561830  1.656291 12.117351
      ESP Fit Center  992 is at   3.521830  1.656291 12.117351
      ESP Fit Center  993 is at   1.696622  3.465026 11.414582
      ESP Fit Center  994 is at   1.379061  2.487675 11.414582
      ESP Fit Center  995 is at   1.696622  1.510324 11.414582
      ESP Fit Center  996 is at   2.528006  0.906288 11.414582
      ESP Fit Center  997 is at   3.555654  0.906288 11.414582
      ESP Fit Center  998 is at   4.387038  1.510324 11.414582
      ESP Fit Center  999 is at   1.121830  2.487675 10.454582
      ESP Fit Center 1000 is at   1.379061  1.527675 10.454582
      ESP Fit Center 1001 is at   2.081830  0.824906 10.454582
      ESP Fit Center 1002 is at   3.041830  0.567675 10.454582
      ESP Fit Center 1003 is at   4.001830  0.824906 10.454582
      ESP Fit Center 1004 is at   4.469839  3.351699 11.826310
      ESP Fit Center 1005 is at   5.429839  3.351699 11.569079
      ESP Fit Center 1006 is at   4.949839  4.183083 11.569079
      ESP Fit Center 1007 is at   4.949839  2.520315 11.569079
      ESP Fit Center 1008 is at   6.132608  3.351699 10.866310
      ESP Fit Center 1009 is at   5.815047  4.329050 10.866310
      ESP Fit Center 1010 is at   4.983663  4.933086 10.866310
      ESP Fit Center 1011 is at   5.815047  2.374348 10.866310
      ESP Fit Center 1012 is at   6.389839  3.351699  9.906310
      ESP Fit Center 1013 is at   6.132608  4.311699  9.906310
      ESP Fit Center 1014 is at   5.429839  5.014468  9.906310
      ESP Fit Center 1015 is at   4.469839  5.271699  9.906310
      ESP Fit Center 1016 is at   5.429839  1.688930  9.906310
      ESP Fit Center 1017 is at   6.132608  2.391699  9.906310
      ESP Fit Center 1018 is at   6.132608  3.351699  8.946310
      ESP Fit Center 1019 is at   5.815047  4.329050  8.946310
      ESP Fit Center 1020 is at  -7.696076 -2.665519 -4.579256
      ESP Fit Center 1021 is at  -4.168356 -5.159994 -5.612501
      ESP Fit Center 1022 is at  -4.646528 -0.233586 -6.645746
      ESP Fit Center 1023 is at  -7.449045 -3.747831 -6.645746
      ESP Fit Center 1024 is at  -4.646528 -5.097452 -6.645746
      ESP Fit Center 1025 is at  -5.473307 -0.775763 -7.521689
      ESP Fit Center 1026 is at  -7.033454 -2.127638 -7.521689
      ESP Fit Center 1027 is at  -7.033454 -3.203400 -7.521689
      ESP Fit Center 1028 is at  -6.451853 -4.108387 -7.521689
      ESP Fit Center 1029 is at  -6.221191 -0.035466 -4.574571
      ESP Fit Center 1030 is at  -7.179967 -0.473325 -4.574571
      ESP Fit Center 1031 is at  -7.749817 -1.360028 -4.574571
      ESP Fit Center 1032 is at  -7.749817 -2.414054 -4.574571
      ESP Fit Center 1033 is at  -5.694616  0.257210 -5.654571
      ESP Fit Center 1034 is at  -6.720922  0.132594 -5.654571
      ESP Fit Center 1035 is at  -7.571758 -0.454696 -5.654571
      ESP Fit Center 1036 is at  -8.052209 -1.370119 -5.654571
      ESP Fit Center 1037 is at  -8.052209 -2.403963 -5.654571
      ESP Fit Center 1038 is at  -5.177893 -0.185470 -6.734571
      ESP Fit Center 1039 is at  -6.221191 -0.035466 -6.734571
      ESP Fit Center 1040 is at  -7.179967 -0.473325 -6.734571
      ESP Fit Center 1041 is at  -7.749817 -1.360028 -6.734571
      ESP Fit Center 1042 is at  -7.749817 -2.414054 -6.734571
      ESP Fit Center 1043 is at  -6.494975 -0.951734 -7.525186
      ESP Fit Center 1044 is at  -7.034975 -1.887041 -7.525186
      ESP Fit Center 1045 is at  -3.561328 -4.578764 -6.607136
      ESP Fit Center 1046 is at  -2.875763 -3.804921 -6.607136
      ESP Fit Center 1047 is at  -2.917733 -2.801119 -7.687136
      ESP Fit Center 1048 is at  -3.214687 -1.789788 -7.687136
[...]
 1296 Fit      -0.012751
 1297 Fit      -0.003950
 1298 Fit      -0.004594
 1299 Fit      -0.012311
 1300 Fit      -0.015635
 1301 Fit      -0.010238
 1302 Fit      -0.002670
 1303 Fit      -0.005647
 1304 Fit      -0.011388
 1305 Fit      -0.002837
 1306 Fit      -0.002602
 1307 Fit       0.004426
 1308 Fit       0.004515
 1309 Fit       0.008137
 1310 Fit       0.005751
 1311 Fit       0.007752
 1312 Fit       0.007872
 1313 Fit       0.005627
 1314 Fit       0.001813
 1315 Fit       0.007721
 1316 Fit       0.007282
 1317 Fit       0.004020
 1318 Fit       0.007737
 1319 Fit      -0.000674
 1320 Fit      -0.001632
 1321 Fit       0.000907
 1322 Fit      -0.002793
 1323 Fit      -0.007834
 1324 Fit       0.005362
 1325 Fit       0.006799
 1326 Fit      -0.004804
 1327 Fit      -0.008317
 1328 Fit       0.002372
 1329 Fit       0.001488
 1330 Fit       0.000645
 1331 Fit      -0.000409
 1332 Fit       0.005904
 1333 Fit       0.005779
 1334 Fit       0.005321
 1335 Fit       0.004646
 1336 Fit       0.008332
 1337 Fit       0.007707
 1338 Fit       0.006515
 1339 Fit       0.004705
 1340 Fit       0.004834
 1341 Fit       0.004515
 1342 Fit       0.005211
 1343 Fit      -0.000561
 1344 Fit      -0.026740
 1345 Fit      -0.017454
 1346 Fit      -0.008809
 1347 Fit      -0.033299
 1348 Fit      -0.027325
 1349 Fit      -0.022452
 1350 Fit      -0.018574
 1351 Fit      -0.014637
 1352 Fit      -0.009230
 1353 Fit      -0.022653
 1354 Fit      -0.027160
 1355 Fit      -0.026824
 1356 Fit      -0.024599
 1357 Fit      -0.022368
 1358 Fit      -0.020986
 1359 Fit      -0.020257
 1360 Fit      -0.019397
 1361 Fit      -0.017731
 1362 Fit      -0.015279
 1363 Fit      -0.009551
 1364 Fit      -0.013394
 1365 Fit      -0.015279
 1366 Fit      -0.015892
 1367 Fit      -0.016347
 1368 Fit      -0.017316
 1369 Fit      -0.018548
 1370 Fit      -0.019724
 1371 Fit      -0.021266
 1372 Fit      -0.024437
 1373 Fit      -0.003725
 1374 Fit      -0.007318
 1375 Fit      -0.010094
 1376 Fit      -0.012275
 1377 Fit      -0.014563
 1378 Fit       0.000255
 1379 Fit       0.010973
 1380 Fit       0.005441
 1381 Fit      -0.005153
 1382 Fit       0.003241
 1383 Fit      -0.010647
 1384 Fit      -0.006470
 1385 Fit      -0.002697
 1386 Fit       0.000681
 1387 Fit      -0.004756
 1388 Fit       0.001695
 1389 Fit       0.005116
 1390 Fit       0.006850
 1391 Fit       0.008374
 1392 Fit      -0.002287
 1393 Fit       0.000063
 1394 Fit       0.001719
 1395 Fit      -0.000261
 1396 Fit       0.000601
 1397 Fit       0.011034
 1398 Fit       0.010252
 1399 Fit       0.008732
 1400 Fit       0.004823
 1401 Fit       0.008080
 1402 Fit       0.007445
 1403 Fit       0.006058
 1404 Fit       0.003209
 1405 Fit       0.004893
 1406 Fit       0.004178
 1407 Fit       0.003235
 1408 Fit      -0.001083
 1409 Fit      -0.003911
 1410 Fit       0.001127
 1411 Fit       0.004689
 1412 Fit       0.003636
 1413 Fit       0.000497
 1414 Fit       0.003181
 1415 Fit       0.004375
 1416 Fit      -0.018163
 1417 Fit      -0.019452
 1418 Fit      -0.018709
 1419 Fit      -0.017748
 1420 Fit      -0.016999
 1421 Fit      -0.013035
 1422 Fit      -0.021538
 1423 Fit      -0.023086
 1424 Fit      -0.022697
 1425 Fit      -0.022266
 1426 Fit      -0.022987
 1427 Fit      -0.024609
 1428 Fit      -0.025455
 1429 Fit      -0.023255
 1430 Fit      -0.016120
 1431 Fit      -0.007508
 1432 Fit      -0.016507
 1433 Fit      -0.018208
 1434 Fit      -0.020476
 1435 Fit      -0.021340
 1436 Fit      -0.022631
 1437 Fit      -0.025636
 1438 Fit      -0.030298
 1439 Fit      -0.034857
 1440 Fit      -0.005025
 1441 Fit      -0.013204
 1442 Fit      -0.009297
 1443 Fit      -0.013369
 1444 Fit      -0.016743
 1445 Fit      -0.021467
 1446 Fit      -0.029284
 1447 Fit      -0.005506
 1448 Fit      -0.014543
 1449 Fit       0.007147
 1450 Fit       0.007681
 1451 Fit       0.010582
 1452 Fit       0.003778
 1453 Fit       0.006145
 1454 Fit       0.007037
 1455 Fit      -0.002223
 1456 Fit       0.003360
 1457 Fit       0.006742
 1458 Fit       0.008000
 1459 Fit       0.008007
 1460 Fit       0.005727
 1461 Fit       0.000639
 1462 Fit       0.007202
 1463 Fit       0.006734
 1464 Fit       0.004520
 1465 Fit       0.007935
 1466 Fit       0.008332
 1467 Fit       0.007267
 1468 Fit       0.003459
 1469 Fit       0.011146
 1470 Fit      -0.000173
 1471 Fit      -0.001159
 1472 Fit      -0.000589
 1473 Fit      -0.002524
 1474 Fit      -0.002265
 1475 Fit      -0.001104
 1476 Fit       0.000681
 1477 Fit      -0.004816
 1478 Fit       0.001143
 1479 Fit       0.002960
 1480 Fit      -0.009419
 1481 Fit       0.001384
 1482 Fit      -0.001368
 1483 Fit      -0.004473
 1484 Fit      -0.002696
 1485 Fit      -0.001301
 1486 Fit      -0.000608
 1487 Fit      -0.009414
 1488 Fit      -0.007166
 1489 Fit      -0.004898
 1490 Fit      -0.003187
 1491 Fit      -0.001777
 1492 Fit       0.000303
 1493 Fit      -0.014172
 1494 Fit      -0.010575
 1495 Fit      -0.006921
 1496 Fit       0.002817
 1497 Fit       0.001240
 1498 Fit       0.000095
 1499 Fit       0.001073
 1500 Fit       0.003508
 1501 Fit       0.004991
 1502 Fit       0.003786
 1503 Fit       0.001892
 1504 Fit       0.004426
 1505 Fit       0.006014
 1506 Fit       0.006131
 1507 Fit       0.004740
 1508 Fit       0.002116
 1509 Fit       0.004326
 1510 Fit       0.006421
 1511 Fit       0.007172
 1512 Fit       0.007106
 1513 Fit       0.000003
 1514 Fit      -0.001138
 1515 Fit       0.000350
 1516 Fit      -0.000701
 1517 Fit      -0.001787
 1518 Fit      -0.003139
 1519 Fit       0.000197
 1520 Fit      -0.004903
 1521 Fit      -0.006174
 1522 Fit      -0.007234
 1523 Fit      -0.007996
 1524 Fit       0.001168
 1525 Fit      -0.002748
 1526 Fit      -0.009380
 1527 Fit      -0.003973
 1528 Fit       0.007610
 1529 Fit      -0.001238
 1530 Fit       0.004968
 1531 Fit       0.007724
 1532 Fit       0.000282
 1533 Fit       0.000757
 1534 Fit       0.002746
 1535 Fit       0.004391
 1536 Fit       0.004711
 1537 Fit       0.003261
 1538 Fit       0.002058
 1539 Fit       0.001574
 1540 Fit       0.002175
 1541 Fit      -0.005610
 1542 Fit      -0.007655
 1543 Fit       0.005224
 1544 Fit       0.002592
 1545 Fit       0.000886
 1546 Fit      -0.000800
 1547 Fit      -0.002669
 1548 Fit       0.006210
 1549 Fit       0.004466
 1550 Fit       0.003171
 1551 Fit       0.001772
 1552 Fit       0.000198
 1553 Fit       0.004592
 1554 Fit       0.003523
 1555 Fit       0.002216
 1556 Fit       0.003447
 1557 Fit       0.011112
 1558 Fit       0.004714
 1559 Fit       0.007126
 1560 Fit       0.009493
 1561 Fit       0.009159
 1562 Fit       0.009111
 1563 Fit       0.007707
 1564 Fit       0.005517
 1565 Fit       0.003058
 1566 Fit       0.004416
 1567 Fit       0.006228
 1568 Fit       0.008033
 1569 Fit       0.007794
 1570 Fit       0.007112
 1571 Fit       0.005319
 1572 Fit       0.004390
 1573 Fit       0.005049
 1574 Fit       0.006678
 1575 Fit       0.006274
 1576 Fit      -0.007642
 1577 Fit      -0.004341
 1578 Fit      -0.002812
 1579 Fit      -0.002263
 1580 Fit      -0.004466
 1581 Fit      -0.002032
 1582 Fit      -0.000219
 1583 Fit       0.000885
 1584 Fit       0.001654
 1585 Fit       0.003140
 1586 Fit      -0.000076
 1587 Fit       0.001284
 1588 Fit       0.002175
 1589 Fit       0.002855
 1590 Fit       0.001509
 1591 Fit       0.002372
 1592 Fit       0.010935
 1593 Fit       0.011249
 1594 Fit      -0.000028
 1595 Fit       0.005235
 1596 Fit       0.011070
 1597 Fit       0.002077
 1598 Fit       0.005144
 1599 Fit       0.007516
 1600 Fit       0.009422
 1601 Fit       0.010294
 1602 Fit       0.004634
 1603 Fit       0.006448
 1604 Fit       0.008087
 1605 Fit       0.009341
 1606 Fit       0.010423
 1607 Fit       0.008153
 1608 Fit       0.009399
 1609 Fit       0.011136
 1610 Fit       0.011352
 1611 Fit       0.012045
 1612 Fit       0.012132
 1613 Fit       0.010245
 1614 Fit       0.007150
 1615 Fit       0.011005
 1616 Fit       0.010821
 1617 Fit       0.010602
 1618 Fit       0.009483
 1619 Fit       0.011150
 1620 Fit       0.010143
 1621 Fit      -0.010343
 1622 Fit      -0.014343
 1623 Fit      -0.017069
 1624 Fit      -0.016803
 1625 Fit      -0.014169
 1626 Fit      -0.009562
 1627 Fit      -0.011337
 1628 Fit      -0.015646
 1629 Fit      -0.017368
 1630 Fit      -0.001047
 1631 Fit      -0.001446
 1632 Fit       0.002038
 1633 Fit      -0.006070
 1634 Fit      -0.000271
 1635 Fit      -0.000385
 1636 Fit       0.003923
 1637 Fit       0.005309
 1638 Fit       0.004576
 1639 Fit       0.006943
 1640 Fit       0.008753
 1641 Fit       0.010608
 1642 Fit       0.008929
 1643 Fit       0.010126
 1644 Fit       0.011565
 1645 Fit       0.011734
 1646 Fit      -0.001182
 1647 Fit      -0.004774
 1648 Fit      -0.002360
 1649 Fit       0.000551
 1650 Fit       0.001008
 1651 Fit       0.000462
 1652 Fit       0.000190
 1653 Fit      -0.000794
 1654 Fit      -0.000374
 1655 Fit       0.000766
 1656 Fit       0.001532
 1657 Fit       0.000495
 1658 Fit      -0.005606
 1659 Fit      -0.006485
 1660 Fit      -0.004867
 1661 Fit      -0.002114
 1662 Fit       0.000602
 1663 Fit       0.001152
 1664 Fit       0.008424
 1665 Fit       0.007517
 1666 Fit       0.010833
 1667 Fit       0.011379
 1668 Fit       0.010613
 1669 Fit       0.010887
 1670 Fit       0.010373
 1671 Fit       0.008892
 1672 Fit       0.012101
 1673 Fit       0.011025
 1674 Fit       0.003603
 1675 Fit       0.004991
 1676 Fit       0.001771
 1677 Fit       0.008463
 1678 Fit       0.005186
 1679 Fit       0.001352
 1680 Fit      -0.003846
 1681 Fit       0.009836
 1682 Fit       0.007086
 1683 Fit       0.003826
 1684 Fit      -0.001544
 1685 Fit       0.005670
 1686 Fit       0.000682
 1687 Fit       0.000451
 1688 Fit      -0.003610
 1689 Fit      -0.006574
 1690 Fit       0.005773
 1691 Fit       0.011758
 1692 Fit       0.009502
 1693 Fit       0.010572
 1694 Fit       0.010261
 1695 Fit       0.008165
 1696 Fit       0.011506
 1697 Fit       0.009587
 1698 Fit       0.008357
 1699 Fit       0.006557
 1700 Fit       0.010850
 1701 Fit       0.009746
 1702 Fit       0.009002
 1703 Fit       0.008064
 1704 Fit       0.010580
 1705 Fit       0.009817
 1706 Fit       0.009405
 1707 Fit       0.010123
 1708 Fit       0.002279
 1709 Fit       0.006897
 1710 Fit       0.009198
 1711 Fit       0.001938
 1712 Fit       0.003737
 1713 Fit       0.006764
 1714 Fit       0.008812
 1715 Fit       0.009994
 1716 Fit       0.003640
 1717 Fit       0.007827
 1718 Fit       0.008529
 1719 Fit       0.010305
 1720 Fit      -0.013158
 1721 Fit      -0.002578
 1722 Fit       0.005330
 1723 Fit       0.008924
 1724 Fit       0.008930
 1725 Fit       0.001227
 1726 Fit      -0.002389
 1727 Fit      -0.010712
 1728 Fit      -0.008444
 1729 Fit      -0.000553
 1730 Fit       0.002037
 1731 Fit       0.001158
 1732 Fit      -0.002678
 1733 Fit       0.005212
 1734 Fit       0.003646
 1735 Fit       0.001957
 1736 Fit       0.001482
 1737 Fit       0.006289
 1738 Fit       0.001229
 1739 Fit      -0.002130
 1740 Fit      -0.001507
 1741 Fit      -0.010359
 1742 Fit      -0.001285
 1743 Fit      -0.005683
 1744 Fit       0.000466
 1745 Fit       0.004437
 1746 Fit       0.006959
 1747 Fit       0.001298
 1748 Fit       0.004781
 1749 Fit       0.007794
 1750 Fit       0.010655
 1751 Fit      -0.000598
 1752 Fit       0.003661
 1753 Fit       0.007208
 1754 Fit       0.010602
 1755 Fit       0.002407
 1756 Fit       0.008398
 1757 Fit      -0.007308
 1758 Fit      -0.007536
 1759 Fit      -0.004120
 1760 Fit      -0.004854
 1761 Fit       0.008435
 1762 Fit       0.010106
 1763 Fit       0.002657
 1764 Fit       0.000436
 1765 Fit       0.010210
 1766 Fit       0.010600
 1767 Fit       0.008324
 1768 Fit       0.004591
 1769 Fit       0.003545
 1770 Fit       0.009611
 1771 Fit       0.007477
 1772 Fit      -0.001334
 1773 Fit      -0.001499
 1774 Fit       0.001304
 1775 Fit       0.001689
 1776 Fit       0.000111
 1777 Fit      -0.003124
 1778 Fit       0.000481
 1779 Fit       0.003419
 1780 Fit       0.005424
 1781 Fit      -0.002645
 1782 Fit       0.002890
 1783 Fit       0.010872
 1784 Fit       0.006410
 1785 Fit       0.008372
 1786 Fit       0.005563
 1787 Fit       0.007010
 1788 Fit       0.006633
 1789 Fit       0.001810
 1790 Fit       0.005604
 1791 Fit       0.007078
 1792 Fit       0.006657
 1793 Fit       0.004348
 1794 Fit       0.005558
 1795 Fit       0.008356
 1796 Fit       0.007628
 1797 Fit       0.007138
 1798 Fit       0.005345
 1799 Fit       0.008434
 1800 Fit       0.006830
 1801 Fit       0.003773
 1802 Fit       0.009939
 1803 Fit       0.008490
 1804 Fit       0.006138
 1805 Fit       0.002407
 1806 Fit       0.010319
 1807 Fit       0.008486
 1808 Fit       0.006029
 1809 Fit       0.008659
 1810 Fit      -0.010232
 1811 Fit      -0.007166
 1812 Fit      -0.004470
 1813 Fit      -0.015205
 1814 Fit      -0.010514
 1815 Fit      -0.007914
 1816 Fit      -0.006205
 1817 Fit      -0.005506
 1818 Fit      -0.005833
 1819 Fit      -0.006014
 1820 Fit      -0.004161
 1821 Fit      -0.004011
 1822 Fit      -0.001628
 1823 Fit      -0.002266
 1824 Fit      -0.004317
 1825 Fit      -0.007211
 1826 Fit      -0.009321
 1827 Fit      -0.008812
 1828 Fit      -0.007932
 1829 Fit       0.004553
 1830 Fit       0.001874
 1831 Fit      -0.002493
 1832 Fit      -0.007188
 1833 Fit      -0.010517
 1834 Fit      -0.011059
 1835 Fit      -0.008424
 1836 Fit      -0.002773
 1837 Fit      -0.002291
 1838 Fit      -0.007985
 1839 Fit      -0.010284
 1840 Fit      -0.005342
 1841 Fit      -0.000076
 1842 Fit      -0.001946
 1843 Fit      -0.006105
 1844 Fit       0.000450
 1845 Fit       0.003250
 1846 Fit       0.004178
 1847 Fit      -0.003817
 1848 Fit       0.003699
 1849 Fit       0.006358
 1850 Fit       0.007712
 1851 Fit       0.005223
 1852 Fit       0.006485
 1853 Fit       0.006395
 1854 Fit       0.004569
 1855 Fit       0.000285
 1856 Fit       0.003243
 1857 Fit       0.006756
 1858 Fit       0.006166
 1859 Fit       0.003679
 1860 Fit       0.006759
 1861 Fit       0.000653
 1862 Fit      -0.000659
 1863 Fit       0.000104
 1864 Fit      -0.003770
 1865 Fit       0.003377
 1866 Fit       0.004957
 1867 Fit       0.007516
 1868 Fit      -0.000685
 1869 Fit      -0.002633
 1870 Fit      -0.004093
 1871 Fit       0.003030
 1872 Fit       0.002372
 1873 Fit       0.001814
 1874 Fit       0.001127
 1875 Fit       0.000424
 1876 Fit       0.005467
 1877 Fit       0.005138
 1878 Fit       0.004709
 1879 Fit       0.004156
 1880 Fit       0.007297
 1881 Fit       0.006605
 1882 Fit       0.003499
 1883 Fit       0.001447
 1884 Fit       0.004021
 1885 Fit       0.003703
 1886 Fit       0.001667
 1887 Fit       0.003253
 1888 Fit      -0.023059
 1889 Fit      -0.014591
 1890 Fit      -0.006707
 1891 Fit      -0.030014
 1892 Fit      -0.023844
 1893 Fit      -0.018919
 1894 Fit      -0.014759
 1895 Fit      -0.010517
 1896 Fit      -0.005115
 1897 Fit      -0.026333
 1898 Fit      -0.023730
 1899 Fit      -0.020941
 1900 Fit      -0.018588
 1901 Fit      -0.016717
 1902 Fit      -0.014973
 1903 Fit      -0.012916
 1904 Fit      -0.010292
 1905 Fit      -0.011946
 1906 Fit      -0.016175
 1907 Fit      -0.017754
 1908 Fit      -0.017790
 1909 Fit      -0.017121
 1910 Fit      -0.016391
 1911 Fit      -0.015898
 1912 Fit      -0.015561
 1913 Fit      -0.015198
 1914 Fit      -0.014888
 1915 Fit      -0.014877
 1916 Fit      -0.015892
 1917 Fit      -0.008124
 1918 Fit      -0.009781
 1919 Fit      -0.010776
 1920 Fit      -0.011524
 1921 Fit      -0.011930
 1922 Fit      -0.011859
 1923 Fit      -0.004016
 1924 Fit      -0.005923
 1925 Fit      -0.006326
 1926 Fit       0.006920
 1927 Fit      -0.000776
 1928 Fit      -0.011872
 1929 Fit      -0.004084
 1930 Fit      -0.001471
 1931 Fit       0.001233
 1932 Fit       0.002312
 1933 Fit       0.005401
 1934 Fit       0.007104
 1935 Fit      -0.001594
 1936 Fit       0.001067
 1937 Fit       0.002595
 1938 Fit       0.004163
 1939 Fit      -0.005817
 1940 Fit      -0.002529
 1941 Fit       0.000300
 1942 Fit       0.000285
 1943 Fit       0.001476
 1944 Fit       0.008054
 1945 Fit       0.004229
 1946 Fit       0.008173
 1947 Fit       0.007500
 1948 Fit       0.006745
 1949 Fit       0.005120
 1950 Fit       0.001939
 1951 Fit       0.005083
 1952 Fit       0.004657
 1953 Fit       0.003747
 1954 Fit       0.002006
 1955 Fit       0.001886
 1956 Fit       0.000444
 1957 Fit      -0.001353
 1958 Fit       0.001554
 1959 Fit       0.004438
 1960 Fit       0.003942
 1961 Fit       0.001208
 1962 Fit       0.003606
 1963 Fit      -0.012133
 1964 Fit      -0.013560
 1965 Fit      -0.013706
 1966 Fit      -0.013474
 1967 Fit      -0.012672
 1968 Fit      -0.008268
 1969 Fit      -0.016250
 1970 Fit      -0.017772
 1971 Fit      -0.017891
 1972 Fit      -0.017665
 1973 Fit      -0.017786
 1974 Fit      -0.018164
 1975 Fit      -0.017933
 1976 Fit      -0.016092
 1977 Fit      -0.005992
 1978 Fit      -0.012436
 1979 Fit      -0.016078
 1980 Fit      -0.017837
 1981 Fit      -0.018491
 1982 Fit      -0.018917
 1983 Fit      -0.019859
 1984 Fit      -0.021597
 1985 Fit      -0.023776
 1986 Fit      -0.025397
 1987 Fit      -0.024898
 1988 Fit      -0.020461
 1989 Fit      -0.007009
 1990 Fit      -0.012556
 1991 Fit      -0.011998
 1992 Fit      -0.014478
 1993 Fit      -0.016168
 1994 Fit      -0.018084
 1995 Fit      -0.021120
 1996 Fit      -0.025623
 1997 Fit      -0.031152
 1998 Fit      -0.008133
 1999 Fit      -0.008894
 2000 Fit      -0.012695
 2001 Fit      -0.017533
 2002 Fit      -0.025177
 2003 Fit      -0.011278
 2004 Fit       0.006331
 2005 Fit       0.006653
 2006 Fit       0.007807
 2007 Fit       0.005141
 2008 Fit       0.006194
 2009 Fit       0.000836
 2010 Fit       0.003873
 2011 Fit       0.005701
 2012 Fit       0.006424
 2013 Fit       0.006706
 2014 Fit      -0.001034
 2015 Fit       0.004108
 2016 Fit       0.006748
 2017 Fit       0.007550
 2018 Fit       0.007917
 2019 Fit       0.004824
 2020 Fit       0.006150
 2021 Fit       0.005423
 2022 Fit       0.003582
 2023 Fit      -0.003048
 2024 Fit       0.006683
 2025 Fit       0.006522
 2026 Fit       0.005264
 2027 Fit       0.002245
 2028 Fit       0.007920
 2029 Fit       0.007918
 2030 Fit       0.006418
 2031 Fit       0.002023
 2032 Fit      -0.000042
 2033 Fit      -0.000910
 2034 Fit      -0.000396
 2035 Fit      -0.002186
 2036 Fit      -0.002003
 2037 Fit      -0.001016
 2038 Fit       0.000693
 2039 Fit      -0.004003
 2040 Fit       0.000188
 2041 Fit       0.001954
 2042 Fit      -0.000112
 2043 Fit       0.002338
 2044 Fit      -0.002698
 2045 Fit      -0.001591
 2046 Fit      -0.000783
 2047 Fit      -0.006068
 2048 Fit      -0.004453
 2049 Fit      -0.003075
 2050 Fit      -0.001958
 2051 Fit      -0.000717
 2052 Fit      -0.011304
 2053 Fit      -0.008984
 2054 Fit      -0.006923
 2055 Fit      -0.004937
 2056 Fit      -0.002307
 2057 Fit       0.002182
 2058 Fit       0.001154
 2059 Fit       0.000931
 2060 Fit       0.002724
 2061 Fit       0.003831
 2062 Fit       0.002997
 2063 Fit       0.001703
 2064 Fit       0.003590
 2065 Fit       0.004795
 2066 Fit       0.004897
 2067 Fit       0.003840
 2068 Fit       0.001913
 2069 Fit       0.002395
 2070 Fit       0.004386
 2071 Fit       0.005574
 2072 Fit       0.005897
 2073 Fit       0.005460
 2074 Fit      -0.000367
 2075 Fit      -0.001263
 2076 Fit      -0.000879
 2077 Fit      -0.001811
 2078 Fit      -0.002782
 2079 Fit       0.000004
 2080 Fit      -0.003195
 2081 Fit      -0.004282
 2082 Fit      -0.005232
 2083 Fit      -0.005951
 2084 Fit       0.000609
 2085 Fit      -0.001685
 2086 Fit      -0.009477
 2087 Fit      -0.010708
 2088 Fit      -0.011207
 2089 Fit      -0.006547
 Job cpu time:       0 days  0 hours  4 minutes 50.1 seconds.
 Normal termination of Gaussian 16 at Sat Jul  8 20:44:30 2023.
