 Entering Gaussian System, Link 0=g16
 Input=dimer_13b_00004_gaussian.com
 Output=dimer_13b_00004_gaussian.log
 Initial command:
 /dragofs/sw/campus/0.2/software/gaussian/16.gaussian/gaussian/g16_legacy/l1.exe "/lustre/scratch-global/iem/jramos/Gau-2439665.inp" -scrdir="/lustre/scratch-global/iem/jramos/"
 Entering Link 1 = /dragofs/sw/campus/0.2/software/gaussian/16.gaussian/gaussian/g16_legacy/l1.exe PID=   2439667.
  
 Copyright (c) 1988,1990,1992,1993,1995,1998,2003,2009,2016,
            Gaussian, Inc.  All Rights Reserved.
  
 This is part of the Gaussian(R) 16 program.  It is based on
 the Gaussian(R) 09 system (copyright 2009, Gaussian, Inc.),
 the Gaussian(R) 03 system (copyright 2003, Gaussian, Inc.),
 the Gaussian(R) 98 system (copyright 1998, Gaussian, Inc.),
 the Gaussian(R) 94 system (copyright 1995, Gaussian, Inc.),
 the Gaussian 92(TM) system (copyright 1992, Gaussian, Inc.),
 the Gaussian 90(TM) system (copyright 1990, Gaussian, Inc.),
 the Gaussian 88(TM) system (copyright 1988, Gaussian, Inc.),
 the Gaussian 86(TM) system (copyright 1986, Carnegie Mellon
 University), and the Gaussian 82(TM) system (copyright 1983,
 Carnegie Mellon University). Gaussian is a federally registered
 trademark of Gaussian, Inc.
  
 This software contains proprietary and confidential information,
 including trade secrets, belonging to Gaussian, Inc.
  
 This software is provided under written license and may be
 used, copied, transmitted, or stored only in accord with that
 written license.
  
 The following legend is applicable only to US Government
 contracts under FAR:
  
                    RESTRICTED RIGHTS LEGEND
  
 Use, reproduction and disclosure by the US Government is
 subject to restrictions as set forth in subparagraphs (a)
 and (c) of the Commercial Computer Software - Restricted
 Rights clause in FAR 52.227-19.
  
 Gaussian, Inc.
 340 Quinnipiac St., Bldg. 40, Wallingford CT 06492
  
  
 ---------------------------------------------------------------
 Warning -- This program may not be used in any manner that
 competes with the business of Gaussian, Inc. or will provide
 assistance to any competitor of Gaussian, Inc.  The licensee
 of this program is prohibited from giving any competitor of
 Gaussian, Inc. access to this program.  By using this program,
 the user acknowledges that Gaussian, Inc. is engaged in the
 business of creating and licensing software in the field of
 computational chemistry and represents and warrants to the
 licensee that it is not a competitor of Gaussian, Inc. and that
 it will not use this program in any manner prohibited above.
 ---------------------------------------------------------------
  

 Cite this work as:
 Gaussian 16, Revision A.03,
 M. J. Frisch, G. W. Trucks, H. B. Schlegel, G. E. Scuseria, 
 M. A. Robb, J. R. Cheeseman, G. Scalmani, V. Barone, 
 G. A. Petersson, H. Nakatsuji, X. Li, M. Caricato, A. V. Marenich, 
 J. Bloino, B. G. Janesko, R. Gomperts, B. Mennucci, H. P. Hratchian, 
 J. V. Ortiz, A. F. Izmaylov, J. L. Sonnenberg, D. Williams-Young, 
 F. Ding, F. Lipparini, F. Egidi, J. Goings, B. Peng, A. Petrone, 
 T. Henderson, D. Ranasinghe, V. G. Zakrzewski, J. Gao, N. Rega, 
 G. Zheng, W. Liang, M. Hada, M. Ehara, K. Toyota, R. Fukuda, 
 J. Hasegawa, M. Ishida, T. Nakajima, Y. Honda, O. Kitao, H. Nakai, 
 T. Vreven, K. Throssell, J. A. Montgomery, Jr., J. E. Peralta, 
 F. Ogliaro, M. J. Bearpark, J. J. Heyd, E. N. Brothers, K. N. Kudin, 
 V. N. Staroverov, T. A. Keith, R. Kobayashi, J. Normand, 
 K. Raghavachari, A. P. Rendell, J. C. Burant, S. S. Iyengar, 
 J. Tomasi, M. Cossi, J. M. Millam, M. Klene, C. Adamo, R. Cammi, 
 J. W. Ochterski, R. L. Martin, K. Morokuma, O. Farkas, 
 J. B. Foresman, and D. J. Fox, Gaussian, Inc., Wallingford CT, 2016.
 
 ******************************************
 Gaussian 16:  EM64L-G16RevA.03 25-Dec-2016
                14-Apr-2023 
 ******************************************
 %chk=dimer_13b_00004_gaussian.chk
 %nproc=8
 Will use up to    8 processors via shared memory.
 %mem=4000Mb
 -------------------------------------
 #p opt=modredundant m062x/6-311g(d,p)
 -------------------------------------
 1/18=120,19=15,26=3,38=1/1,3;
 2/9=110,12=2,17=6,18=5,40=1/2;
 3/5=4,6=6,7=101,11=2,25=1,30=1,71=1,74=-55/1,2,3;
 4//1;
 5/5=2,38=5/2;
 6/7=2,8=2,9=2,10=2,28=1/1;
 7//1,2,3,16;
 1/18=20,19=15,26=3/3(2);
 2/9=110/2;
 99//99;
 2/9=110/2;
 3/5=4,6=6,7=101,11=2,25=1,30=1,71=1,74=-55/1,2,3;
 4/5=5,16=3,69=1/1;
 5/5=2,38=5/2;
 7//1,2,3,16;
 1/18=20,19=15,26=3/3(-5);
 2/9=110/2;
 6/7=2,8=2,9=2,10=2,19=2,28=1/1;
 99/9=1/99;
 Leave Link    1 at Fri Apr 14 15:52:37 2023, MaxMem=   524288000 cpu:               0.6 elap:               0.2
 (Enter /dragofs/sw/campus/0.2/software/gaussian/16.gaussian/gaussian/g16_legacy/l101.exe)
 ----------------------------------------------------
 Conformer number 00004. Energy MM = 183.707 kcal/mol
 ----------------------------------------------------
 Symbolic Z-matrix:
 Charge =  0 Multiplicity = 1
 C                     0.2339    1.3822   -0.7252 
 H                    -0.7972    1.262    -0.3726 
 O                     0.167     2.1456   -1.9275 
 H                     0.332     1.5082   -2.6456 
 C                     1.0238    1.4226    1.506 
 H                    -0.0046    1.4191    1.8955 
 O                     1.0113    2.0856    0.2327 
 C                     0.8942    0.0133   -1.0066 
 H                     1.8812    0.2052   -1.4151 
 O                     0.1457   -0.6478   -2.0428 
 H                     0.4608   -1.5672   -2.0812 
 C                     0.8811   -0.8174    0.2775 
 H                    -0.1585   -1.004     0.5691 
 O                     1.472    -2.148     0.2974 
 C                     1.5722   -0.0108    1.404 
 H                     2.6508    0.0147    1.2121 
 O                     1.3949   -0.6943    2.6505 
 H                     1.5724   -1.6397    2.4761 
 C                     1.8834    2.2802    2.445 
 H                     1.8858    1.8841    3.4644 
 H                     2.918     2.3373    2.0842 
 O                     1.377     3.6177    2.4828 
 H                     1.1168    3.8241    1.5644 
 C                     2.7044   -2.4094   -0.3984 
 H                     3.3879   -2.7455    0.3921 
 C                     4.5975   -1.6372   -1.6024 
 H                     5.2407   -1.9461   -0.7656 
 O                     3.288    -1.3248   -1.0839 
 C                     2.459    -3.5731   -1.3796 
 H                     1.7435   -3.2699   -2.1533 
 O                     1.8915   -4.7206   -0.7318 
 H                     1.1811   -4.3851   -0.146 
 C                     3.7802   -3.974    -2.0375 
 H                     4.433    -4.4801   -1.3134 
 O                     3.5392   -4.9405   -3.0719 
 H                     2.9207   -5.5931   -2.6809 
 C                     4.4869   -2.7575   -2.646 
 H                     3.9169   -2.4024   -3.5146 
 O                     5.7745   -3.1522   -3.1201 
 H                     5.6148   -3.9453   -3.6738 
 C                     5.1827   -0.3587   -2.2085 
 H                     6.1572   -0.5423   -2.6709 
 H                     4.4982    0.0626   -2.9528 
 O                     5.3567    0.618    -1.1802 
 H                     5.621     1.4451   -1.6211 
 
 The following ModRedundant input section has been read:
 D      12      14      24      28 F                                           
 D       8      12      14      24 F                                           
 
 ITRead=  0  0  0  0  0  0  0  0  0  0  0  0  0  0  0  0  0  0  0  0
 ITRead=  0  0  0  0  0  0  0  0  0  0  0  0  0  0  0  0  0  0  0  0
 ITRead=  0  0  0  0  0
 MicOpt= -1 -1 -1 -1 -1 -1 -1 -1 -1 -1 -1 -1 -1 -1 -1 -1 -1 -1 -1 -1
 MicOpt= -1 -1 -1 -1 -1 -1 -1 -1 -1 -1 -1 -1 -1 -1 -1 -1 -1 -1 -1 -1
 MicOpt= -1 -1 -1 -1 -1
 NAtoms=     45 NQM=       45 NQMF=       0 NMMI=      0 NMMIF=      0
                NMic=       0 NMicF=      0.
                    Isotopes and Nuclear Properties:
 (Nuclear quadrupole moments (NQMom) in fm**2, nuclear magnetic moments (NMagM)
  in nuclear magnetons)

  Atom         1           2           3           4           5           6           7           8           9          10
 IAtWgt=          12           1          16           1          12           1          16          12           1          16
 AtmWgt=  12.0000000   1.0078250  15.9949146   1.0078250  12.0000000   1.0078250  15.9949146  12.0000000   1.0078250  15.9949146
 NucSpn=           0           1           0           1           0           1           0           0           1           0
 AtZEff=  -0.0000000  -0.0000000  -0.0000000  -0.0000000  -0.0000000  -0.0000000  -0.0000000  -0.0000000  -0.0000000  -0.0000000
 NQMom=    0.0000000   0.0000000   0.0000000   0.0000000   0.0000000   0.0000000   0.0000000   0.0000000   0.0000000   0.0000000
 NMagM=    0.0000000   2.7928460   0.0000000   2.7928460   0.0000000   2.7928460   0.0000000   0.0000000   2.7928460   0.0000000
 AtZNuc=   6.0000000   1.0000000   8.0000000   1.0000000   6.0000000   1.0000000   8.0000000   6.0000000   1.0000000   8.0000000

  Atom        11          12          13          14          15          16          17          18          19          20
 IAtWgt=           1          12           1          16          12           1          16           1          12           1
 AtmWgt=   1.0078250  12.0000000   1.0078250  15.9949146  12.0000000   1.0078250  15.9949146   1.0078250  12.0000000   1.0078250
 NucSpn=           1           0           1           0           0           1           0           1           0           1
 AtZEff=  -0.0000000  -0.0000000  -0.0000000  -0.0000000  -0.0000000  -0.0000000  -0.0000000  -0.0000000  -0.0000000  -0.0000000
 NQMom=    0.0000000   0.0000000   0.0000000   0.0000000   0.0000000   0.0000000   0.0000000   0.0000000   0.0000000   0.0000000
 NMagM=    2.7928460   0.0000000   2.7928460   0.0000000   0.0000000   2.7928460   0.0000000   2.7928460   0.0000000   2.7928460
 AtZNuc=   1.0000000   6.0000000   1.0000000   8.0000000   6.0000000   1.0000000   8.0000000   1.0000000   6.0000000   1.0000000

  Atom        21          22          23          24          25          26          27          28          29          30
 IAtWgt=           1          16           1          12           1          12           1          16          12           1
 AtmWgt=   1.0078250  15.9949146   1.0078250  12.0000000   1.0078250  12.0000000   1.0078250  15.9949146  12.0000000   1.0078250
 NucSpn=           1           0           1           0           1           0           1           0           0           1
 AtZEff=  -0.0000000  -0.0000000  -0.0000000  -0.0000000  -0.0000000  -0.0000000  -0.0000000  -0.0000000  -0.0000000  -0.0000000
 NQMom=    0.0000000   0.0000000   0.0000000   0.0000000   0.0000000   0.0000000   0.0000000   0.0000000   0.0000000   0.0000000
 NMagM=    2.7928460   0.0000000   2.7928460   0.0000000   2.7928460   0.0000000   2.7928460   0.0000000   0.0000000   2.7928460
 AtZNuc=   1.0000000   8.0000000   1.0000000   6.0000000   1.0000000   6.0000000   1.0000000   8.0000000   6.0000000   1.0000000

  Atom        31          32          33          34          35          36          37          38          39          40
 IAtWgt=          16           1          12           1          16           1          12           1          16           1
 AtmWgt=  15.9949146   1.0078250  12.0000000   1.0078250  15.9949146   1.0078250  12.0000000   1.0078250  15.9949146   1.0078250
 NucSpn=           0           1           0           1           0           1           0           1           0           1
 AtZEff=  -0.0000000  -0.0000000  -0.0000000  -0.0000000  -0.0000000  -0.0000000  -0.0000000  -0.0000000  -0.0000000  -0.0000000
 NQMom=    0.0000000   0.0000000   0.0000000   0.0000000   0.0000000   0.0000000   0.0000000   0.0000000   0.0000000   0.0000000
 NMagM=    0.0000000   2.7928460   0.0000000   2.7928460   0.0000000   2.7928460   0.0000000   2.7928460   0.0000000   2.7928460
 AtZNuc=   8.0000000   1.0000000   6.0000000   1.0000000   8.0000000   1.0000000   6.0000000   1.0000000   8.0000000   1.0000000

  Atom        41          42          43          44          45
 IAtWgt=          12           1           1          16           1
 AtmWgt=  12.0000000   1.0078250   1.0078250  15.9949146   1.0078250
 NucSpn=           0           1           1           0           1
 AtZEff=  -0.0000000  -0.0000000  -0.0000000  -0.0000000  -0.0000000
 NQMom=    0.0000000   0.0000000   0.0000000   0.0000000   0.0000000
 NMagM=    0.0000000   2.7928460   2.7928460   0.0000000   2.7928460
 AtZNuc=   6.0000000   1.0000000   1.0000000   8.0000000   1.0000000
 Leave Link  101 at Fri Apr 14 15:52:37 2023, MaxMem=   524288000 cpu:               1.8 elap:               0.5
 (Enter /dragofs/sw/campus/0.2/software/gaussian/16.gaussian/gaussian/g16_legacy/l103.exe)

 GradGradGradGradGradGradGradGradGradGradGradGradGradGradGradGradGradGrad
 Berny optimization.
 Initialization pass.
                           ----------------------------
                           !    Initial Parameters    !
                           ! (Angstroms and Degrees)  !
 --------------------------                            --------------------------
 ! Name  Definition              Value          Derivative Info.                !
 --------------------------------------------------------------------------------
 ! R1    R(1,2)                  1.0963         estimate D2E/DX2                !
 ! R2    R(1,3)                  1.4258         estimate D2E/DX2                !
 ! R3    R(1,7)                  1.4201         estimate D2E/DX2                !
 ! R4    R(1,8)                  1.5457         estimate D2E/DX2                !
 ! R5    R(3,4)                  0.9743         estimate D2E/DX2                !
 ! R6    R(5,6)                  1.0997         estimate D2E/DX2                !
 ! R7    R(5,7)                  1.4356         estimate D2E/DX2                !
 ! R8    R(5,15)                 1.5381         estimate D2E/DX2                !
 ! R9    R(5,19)                 1.535          estimate D2E/DX2                !
 ! R10   R(8,9)                  1.0853         estimate D2E/DX2                !
 ! R11   R(8,10)                 1.4391         estimate D2E/DX2                !
 ! R12   R(8,12)                 1.5294         estimate D2E/DX2                !
 ! R13   R(10,11)                0.9727         estimate D2E/DX2                !
 ! R14   R(12,13)                1.0957         estimate D2E/DX2                !
 ! R15   R(12,14)                1.456          estimate D2E/DX2                !
 ! R16   R(12,15)                1.5483         estimate D2E/DX2                !
 ! R17   R(14,24)                1.4392         estimate D2E/DX2                !
 ! R18   R(15,16)                1.0958         estimate D2E/DX2                !
 ! R19   R(15,17)                1.4326         estimate D2E/DX2                !
 ! R20   R(17,18)                0.9776         estimate D2E/DX2                !
 ! R21   R(19,20)                1.0937         estimate D2E/DX2                !
 ! R22   R(19,21)                1.0972         estimate D2E/DX2                !
 ! R23   R(19,22)                1.4307         estimate D2E/DX2                !
 ! R24   R(22,23)                0.9766         estimate D2E/DX2                !
 ! R25   R(24,25)                1.0977         estimate D2E/DX2                !
 ! R26   R(24,28)                1.4096         estimate D2E/DX2                !
 ! R27   R(24,29)                1.5418         estimate D2E/DX2                !
 ! R28   R(26,27)                1.0997         estimate D2E/DX2                !
 ! R29   R(26,28)                1.4426         estimate D2E/DX2                !
 ! R30   R(26,37)                1.5351         estimate D2E/DX2                !
 ! R31   R(26,41)                1.5311         estimate D2E/DX2                !
 ! R32   R(29,30)                1.0966         estimate D2E/DX2                !
 ! R33   R(29,31)                1.4347         estimate D2E/DX2                !
 ! R34   R(29,33)                1.5294         estimate D2E/DX2                !
 ! R35   R(31,32)                0.98           estimate D2E/DX2                !
 ! R36   R(33,34)                1.0985         estimate D2E/DX2                !
 ! R37   R(33,35)                1.436          estimate D2E/DX2                !
 ! R38   R(33,37)                1.5328         estimate D2E/DX2                !
 ! R39   R(35,36)                0.9805         estimate D2E/DX2                !
 ! R40   R(37,38)                1.0979         estimate D2E/DX2                !
 ! R41   R(37,39)                1.4278         estimate D2E/DX2                !
 ! R42   R(39,40)                0.9804         estimate D2E/DX2                !
 ! R43   R(41,42)                1.0942         estimate D2E/DX2                !
 ! R44   R(41,43)                1.0955         estimate D2E/DX2                !
 ! R45   R(41,44)                1.4289         estimate D2E/DX2                !
 ! R46   R(44,45)                0.9738         estimate D2E/DX2                !
 ! A1    A(2,1,3)              106.6058         estimate D2E/DX2                !
 ! A2    A(2,1,7)              110.6231         estimate D2E/DX2                !
 ! A3    A(2,1,8)              111.2987         estimate D2E/DX2                !
 ! A4    A(3,1,7)              109.2255         estimate D2E/DX2                !
 ! A5    A(3,1,8)              109.921          estimate D2E/DX2                !
 ! A6    A(7,1,8)              109.1242         estimate D2E/DX2                !
 ! A7    A(1,3,4)              105.2662         estimate D2E/DX2                !
 ! A8    A(6,5,7)              107.9067         estimate D2E/DX2                !
 ! A9    A(6,5,15)             110.729          estimate D2E/DX2                !
 ! A10   A(6,5,19)             107.9877         estimate D2E/DX2                !
 ! A11   A(7,5,15)             112.0038         estimate D2E/DX2                !
 ! A12   A(7,5,19)             106.8235         estimate D2E/DX2                !
 ! A13   A(15,5,19)            111.1969         estimate D2E/DX2                !
 ! A14   A(1,7,5)              111.9798         estimate D2E/DX2                !
 ! A15   A(1,8,9)              107.4836         estimate D2E/DX2                !
 ! A16   A(1,8,10)             108.4058         estimate D2E/DX2                !
 ! A17   A(1,8,12)             108.9363         estimate D2E/DX2                !
 ! A18   A(9,8,10)             106.4524         estimate D2E/DX2                !
 ! A19   A(9,8,12)             114.8249         estimate D2E/DX2                !
 ! A20   A(10,8,12)            110.5221         estimate D2E/DX2                !
 ! A21   A(8,10,11)            107.1073         estimate D2E/DX2                !
 ! A22   A(8,12,13)            108.9086         estimate D2E/DX2                !
 ! A23   A(8,12,14)            120.2882         estimate D2E/DX2                !
 ! A24   A(8,12,15)            108.9103         estimate D2E/DX2                !
 ! A25   A(13,12,14)           103.0485         estimate D2E/DX2                !
 ! A26   A(13,12,15)           108.5777         estimate D2E/DX2                !
 ! A27   A(14,12,15)           106.5582         estimate D2E/DX2                !
 ! A28   A(12,14,24)           120.4568         estimate D2E/DX2                !
 ! A29   A(5,15,12)            111.9994         estimate D2E/DX2                !
 ! A30   A(5,15,16)            109.9293         estimate D2E/DX2                !
 ! A31   A(5,15,17)            110.0473         estimate D2E/DX2                !
 ! A32   A(12,15,16)           108.9082         estimate D2E/DX2                !
 ! A33   A(12,15,17)           109.224          estimate D2E/DX2                !
 ! A34   A(16,15,17)           106.5758         estimate D2E/DX2                !
 ! A35   A(15,17,18)           106.4809         estimate D2E/DX2                !
 ! A36   A(5,19,20)            111.659          estimate D2E/DX2                !
 ! A37   A(5,19,21)            110.8534         estimate D2E/DX2                !
 ! A38   A(5,19,22)            109.8933         estimate D2E/DX2                !
 ! A39   A(20,19,21)           108.8621         estimate D2E/DX2                !
 ! A40   A(20,19,22)           108.3455         estimate D2E/DX2                !
 ! A41   A(21,19,22)           107.0859         estimate D2E/DX2                !
 ! A42   A(19,22,23)           105.4884         estimate D2E/DX2                !
 ! A43   A(14,24,25)           103.9242         estimate D2E/DX2                !
 ! A44   A(14,24,28)           116.7374         estimate D2E/DX2                !
 ! A45   A(14,24,29)           107.967          estimate D2E/DX2                !
 ! A46   A(25,24,28)           109.1478         estimate D2E/DX2                !
 ! A47   A(25,24,29)           109.0439         estimate D2E/DX2                !
 ! A48   A(28,24,29)           109.7043         estimate D2E/DX2                !
 ! A49   A(27,26,28)           108.5567         estimate D2E/DX2                !
 ! A50   A(27,26,37)           110.76           estimate D2E/DX2                !
 ! A51   A(27,26,41)           108.1929         estimate D2E/DX2                !
 ! A52   A(28,26,37)           109.693          estimate D2E/DX2                !
 ! A53   A(28,26,41)           107.9617         estimate D2E/DX2                !
 ! A54   A(37,26,41)           111.5808         estimate D2E/DX2                !
 ! A55   A(24,28,26)           112.5806         estimate D2E/DX2                !
 ! A56   A(24,29,30)           110.1316         estimate D2E/DX2                !
 ! A57   A(24,29,31)           112.2888         estimate D2E/DX2                !
 ! A58   A(24,29,33)           109.5179         estimate D2E/DX2                !
 ! A59   A(30,29,31)           106.3572         estimate D2E/DX2                !
 ! A60   A(30,29,33)           109.4282         estimate D2E/DX2                !
 ! A61   A(31,29,33)           109.0425         estimate D2E/DX2                !
 ! A62   A(29,31,32)           106.4283         estimate D2E/DX2                !
 ! A63   A(29,33,34)           110.5233         estimate D2E/DX2                !
 ! A64   A(29,33,35)           109.956          estimate D2E/DX2                !
 ! A65   A(29,33,37)           111.1622         estimate D2E/DX2                !
 ! A66   A(34,33,35)           105.3358         estimate D2E/DX2                !
 ! A67   A(34,33,37)           110.6923         estimate D2E/DX2                !
 ! A68   A(35,33,37)           108.9998         estimate D2E/DX2                !
 ! A69   A(33,35,36)           105.4612         estimate D2E/DX2                !
 ! A70   A(26,37,33)           110.0313         estimate D2E/DX2                !
 ! A71   A(26,37,38)           109.8284         estimate D2E/DX2                !
 ! A72   A(26,37,39)           111.2555         estimate D2E/DX2                !
 ! A73   A(33,37,38)           109.3528         estimate D2E/DX2                !
 ! A74   A(33,37,39)           109.1601         estimate D2E/DX2                !
 ! A75   A(38,37,39)           107.1518         estimate D2E/DX2                !
 ! A76   A(37,39,40)           105.3243         estimate D2E/DX2                !
 ! A77   A(26,41,42)           111.5664         estimate D2E/DX2                !
 ! A78   A(26,41,43)           110.5651         estimate D2E/DX2                !
 ! A79   A(26,41,44)           109.4164         estimate D2E/DX2                !
 ! A80   A(42,41,43)           109.5067         estimate D2E/DX2                !
 ! A81   A(42,41,44)           108.0822         estimate D2E/DX2                !
 ! A82   A(43,41,44)           107.5885         estimate D2E/DX2                !
 ! A83   A(41,44,45)           106.7253         estimate D2E/DX2                !
 ! D1    D(2,1,3,4)           -105.6484         estimate D2E/DX2                !
 ! D2    D(7,1,3,4)            134.7967         estimate D2E/DX2                !
 ! D3    D(8,1,3,4)             15.0982         estimate D2E/DX2                !
 ! D4    D(2,1,7,5)             58.0301         estimate D2E/DX2                !
 ! D5    D(3,1,7,5)            175.0712         estimate D2E/DX2                !
 ! D6    D(8,1,7,5)            -64.7398         estimate D2E/DX2                !
 ! D7    D(2,1,8,9)            176.1328         estimate D2E/DX2                !
 ! D8    D(2,1,8,10)            61.4394         estimate D2E/DX2                !
 ! D9    D(2,1,8,12)           -58.8772         estimate D2E/DX2                !
 ! D10   D(3,1,8,9)             58.2577         estimate D2E/DX2                !
 ! D11   D(3,1,8,10)           -56.4357         estimate D2E/DX2                !
 ! D12   D(3,1,8,12)          -176.7523         estimate D2E/DX2                !
 ! D13   D(7,1,8,9)            -61.5025         estimate D2E/DX2                !
 ! D14   D(7,1,8,10)          -176.1959         estimate D2E/DX2                !
 ! D15   D(7,1,8,12)            63.4875         estimate D2E/DX2                !
 ! D16   D(6,5,7,1)            -63.793          estimate D2E/DX2                !
 ! D17   D(15,5,7,1)            58.3318         estimate D2E/DX2                !
 ! D18   D(19,5,7,1)          -179.6894         estimate D2E/DX2                !
 ! D19   D(6,5,15,12)           70.184          estimate D2E/DX2                !
 ! D20   D(6,5,15,16)         -168.6011         estimate D2E/DX2                !
 ! D21   D(6,5,15,17)          -51.5146         estimate D2E/DX2                !
 ! D22   D(7,5,15,12)          -50.3141         estimate D2E/DX2                !
 ! D23   D(7,5,15,16)           70.9008         estimate D2E/DX2                !
 ! D24   D(7,5,15,17)         -172.0128         estimate D2E/DX2                !
 ! D25   D(19,5,15,12)        -169.7555         estimate D2E/DX2                !
 ! D26   D(19,5,15,16)         -48.5406         estimate D2E/DX2                !
 ! D27   D(19,5,15,17)          68.5459         estimate D2E/DX2                !
 ! D28   D(6,5,19,20)           59.9076         estimate D2E/DX2                !
 ! D29   D(6,5,19,21)         -178.5245         estimate D2E/DX2                !
 ! D30   D(6,5,19,22)          -60.3475         estimate D2E/DX2                !
 ! D31   D(7,5,19,20)          175.7499         estimate D2E/DX2                !
 ! D32   D(7,5,19,21)          -62.6821         estimate D2E/DX2                !
 ! D33   D(7,5,19,22)           55.4948         estimate D2E/DX2                !
 ! D34   D(15,5,19,20)         -61.7646         estimate D2E/DX2                !
 ! D35   D(15,5,19,21)          59.8034         estimate D2E/DX2                !
 ! D36   D(15,5,19,22)         177.9803         estimate D2E/DX2                !
 ! D37   D(1,8,10,11)         -168.8843         estimate D2E/DX2                !
 ! D38   D(9,8,10,11)           75.7485         estimate D2E/DX2                !
 ! D39   D(12,8,10,11)         -49.56           estimate D2E/DX2                !
 ! D40   D(1,8,12,13)           62.8665         estimate D2E/DX2                !
 ! D41   D(1,8,12,14)         -178.6795         estimate D2E/DX2                !
 ! D42   D(1,8,12,15)          -55.3838         estimate D2E/DX2                !
 ! D43   D(9,8,12,13)         -176.5582         estimate D2E/DX2                !
 ! D44   D(9,8,12,14)          -58.1043         estimate D2E/DX2                !
 ! D45   D(9,8,12,15)           65.1915         estimate D2E/DX2                !
 ! D46   D(10,8,12,13)         -56.1365         estimate D2E/DX2                !
 ! D47   D(10,8,12,14)          62.3175         estimate D2E/DX2                !
 ! D48   D(10,8,12,15)        -174.3868         estimate D2E/DX2                !
 ! D49   D(8,12,14,24)          39.9945         Frozen                          !
 ! D50   D(13,12,14,24)        161.3669         estimate D2E/DX2                !
 ! D51   D(15,12,14,24)        -84.4226         estimate D2E/DX2                !
 ! D52   D(8,12,15,5)           49.5704         estimate D2E/DX2                !
 ! D53   D(8,12,15,16)         -72.2317         estimate D2E/DX2                !
 ! D54   D(8,12,15,17)         171.7403         estimate D2E/DX2                !
 ! D55   D(13,12,15,5)         -68.8879         estimate D2E/DX2                !
 ! D56   D(13,12,15,16)        169.3099         estimate D2E/DX2                !
 ! D57   D(13,12,15,17)         53.282          estimate D2E/DX2                !
 ! D58   D(14,12,15,5)        -179.2787         estimate D2E/DX2                !
 ! D59   D(14,12,15,16)         58.9192         estimate D2E/DX2                !
 ! D60   D(14,12,15,17)        -57.1088         estimate D2E/DX2                !
 ! D61   D(12,14,24,25)        120.159          estimate D2E/DX2                !
 ! D62   D(12,14,24,28)         -0.0589         Frozen                          !
 ! D63   D(12,14,24,29)       -124.132          estimate D2E/DX2                !
 ! D64   D(5,15,17,18)         167.8224         estimate D2E/DX2                !
 ! D65   D(12,15,17,18)         44.4862         estimate D2E/DX2                !
 ! D66   D(16,15,17,18)        -73.0213         estimate D2E/DX2                !
 ! D67   D(5,19,22,23)         -39.6943         estimate D2E/DX2                !
 ! D68   D(20,19,22,23)       -161.9374         estimate D2E/DX2                !
 ! D69   D(21,19,22,23)         80.7881         estimate D2E/DX2                !
 ! D70   D(14,24,28,26)        172.532          estimate D2E/DX2                !
 ! D71   D(25,24,28,26)         55.1357         estimate D2E/DX2                !
 ! D72   D(29,24,28,26)        -64.286          estimate D2E/DX2                !
 ! D73   D(14,24,29,30)         65.2434         estimate D2E/DX2                !
 ! D74   D(14,24,29,31)        -53.0788         estimate D2E/DX2                !
 ! D75   D(14,24,29,33)       -174.3716         estimate D2E/DX2                !
 ! D76   D(25,24,29,30)        177.5498         estimate D2E/DX2                !
 ! D77   D(25,24,29,31)         59.2275         estimate D2E/DX2                !
 ! D78   D(25,24,29,33)        -62.0653         estimate D2E/DX2                !
 ! D79   D(28,24,29,30)        -62.9648         estimate D2E/DX2                !
 ! D80   D(28,24,29,31)        178.713          estimate D2E/DX2                !
 ! D81   D(28,24,29,33)         57.4202         estimate D2E/DX2                !
 ! D82   D(27,26,28,24)        -57.8164         estimate D2E/DX2                !
 ! D83   D(37,26,28,24)         63.333          estimate D2E/DX2                !
 ! D84   D(41,26,28,24)       -174.8839         estimate D2E/DX2                !
 ! D85   D(27,26,37,33)         64.605          estimate D2E/DX2                !
 ! D86   D(27,26,37,38)       -174.9696         estimate D2E/DX2                !
 ! D87   D(27,26,37,39)        -56.5036         estimate D2E/DX2                !
 ! D88   D(28,26,37,33)        -55.2071         estimate D2E/DX2                !
 ! D89   D(28,26,37,38)         65.2184         estimate D2E/DX2                !
 ! D90   D(28,26,37,39)       -176.3157         estimate D2E/DX2                !
 ! D91   D(41,26,37,33)       -174.7976         estimate D2E/DX2                !
 ! D92   D(41,26,37,38)        -54.3722         estimate D2E/DX2                !
 ! D93   D(41,26,37,39)         64.0938         estimate D2E/DX2                !
 ! D94   D(27,26,41,42)         65.8657         estimate D2E/DX2                !
 ! D95   D(27,26,41,43)       -172.0083         estimate D2E/DX2                !
 ! D96   D(27,26,41,44)        -53.6847         estimate D2E/DX2                !
 ! D97   D(28,26,41,42)       -176.8315         estimate D2E/DX2                !
 ! D98   D(28,26,41,43)        -54.7055         estimate D2E/DX2                !
 ! D99   D(28,26,41,44)         63.6181         estimate D2E/DX2                !
 ! D100  D(37,26,41,42)        -56.2226         estimate D2E/DX2                !
 ! D101  D(37,26,41,43)         65.9034         estimate D2E/DX2                !
 ! D102  D(37,26,41,44)       -175.7729         estimate D2E/DX2                !
 ! D103  D(24,29,31,32)         44.7138         estimate D2E/DX2                !
 ! D104  D(30,29,31,32)        -75.8147         estimate D2E/DX2                !
 ! D105  D(33,29,31,32)        166.2788         estimate D2E/DX2                !
 ! D106  D(24,29,33,34)         71.2674         estimate D2E/DX2                !
 ! D107  D(24,29,33,35)       -172.8603         estimate D2E/DX2                !
 ! D108  D(24,29,33,37)        -52.0651         estimate D2E/DX2                !
 ! D109  D(30,29,33,34)       -167.9199         estimate D2E/DX2                !
 ! D110  D(30,29,33,35)        -52.0476         estimate D2E/DX2                !
 ! D111  D(30,29,33,37)         68.7476         estimate D2E/DX2                !
 ! D112  D(31,29,33,34)        -51.9654         estimate D2E/DX2                !
 ! D113  D(31,29,33,35)         63.9069         estimate D2E/DX2                !
 ! D114  D(31,29,33,37)       -175.298          estimate D2E/DX2                !
 ! D115  D(29,33,35,36)        -45.6754         estimate D2E/DX2                !
 ! D116  D(34,33,35,36)         73.4245         estimate D2E/DX2                !
 ! D117  D(37,33,35,36)       -167.7636         estimate D2E/DX2                !
 ! D118  D(29,33,37,26)         51.521          estimate D2E/DX2                !
 ! D119  D(29,33,37,38)        -69.191          estimate D2E/DX2                !
 ! D120  D(29,33,37,39)        173.877          estimate D2E/DX2                !
 ! D121  D(34,33,37,26)        -71.7147         estimate D2E/DX2                !
 ! D122  D(34,33,37,38)        167.5732         estimate D2E/DX2                !
 ! D123  D(34,33,37,39)         50.6412         estimate D2E/DX2                !
 ! D124  D(35,33,37,26)        172.8774         estimate D2E/DX2                !
 ! D125  D(35,33,37,38)         52.1654         estimate D2E/DX2                !
 ! D126  D(35,33,37,39)        -64.7666         estimate D2E/DX2                !
 ! D127  D(26,37,39,40)        172.1017         estimate D2E/DX2                !
 ! D128  D(33,37,39,40)         50.4843         estimate D2E/DX2                !
 ! D129  D(38,37,39,40)        -67.8348         estimate D2E/DX2                !
 ! D130  D(26,41,44,45)       -172.9875         estimate D2E/DX2                !
 ! D131  D(42,41,44,45)         65.3389         estimate D2E/DX2                !
 ! D132  D(43,41,44,45)        -52.825          estimate D2E/DX2                !
 --------------------------------------------------------------------------------
 Trust Radius=3.00D-01 FncErr=1.00D-07 GrdErr=1.00D-06 EigMax=2.50D+02 EigMin=1.00D-04
 Number of steps in this run=    270 maximum allowed number of steps=    270.
 GradGradGradGradGradGradGradGradGradGradGradGradGradGradGradGradGradGrad

 Leave Link  103 at Fri Apr 14 15:52:38 2023, MaxMem=   524288000 cpu:               0.3 elap:               0.2
 (Enter /dragofs/sw/campus/0.2/software/gaussian/16.gaussian/gaussian/g16_legacy/l202.exe)
                          Input orientation:                          
 ---------------------------------------------------------------------
 Center     Atomic      Atomic             Coordinates (Angstroms)
 Number     Number       Type             X           Y           Z
 ---------------------------------------------------------------------
      1          6           0        0.233900    1.382200   -0.725200
      2          1           0       -0.797200    1.262000   -0.372600
      3          8           0        0.167000    2.145600   -1.927500
      4          1           0        0.332000    1.508200   -2.645600
      5          6           0        1.023800    1.422600    1.506000
      6          1           0       -0.004600    1.419100    1.895500
      7          8           0        1.011300    2.085600    0.232700
      8          6           0        0.894200    0.013300   -1.006600
      9          1           0        1.881200    0.205200   -1.415100
     10          8           0        0.145700   -0.647800   -2.042800
     11          1           0        0.460800   -1.567200   -2.081200
     12          6           0        0.881100   -0.817400    0.277500
     13          1           0       -0.158500   -1.004000    0.569100
     14          8           0        1.472000   -2.148000    0.297400
     15          6           0        1.572200   -0.010800    1.404000
     16          1           0        2.650800    0.014700    1.212100
     17          8           0        1.394900   -0.694300    2.650500
     18          1           0        1.572400   -1.639700    2.476100
     19          6           0        1.883400    2.280200    2.445000
     20          1           0        1.885800    1.884100    3.464400
     21          1           0        2.918000    2.337300    2.084200
     22          8           0        1.377000    3.617700    2.482800
     23          1           0        1.116800    3.824100    1.564400
     24          6           0        2.704400   -2.409400   -0.398400
     25          1           0        3.387900   -2.745500    0.392100
     26          6           0        4.597500   -1.637200   -1.602400
     27          1           0        5.240700   -1.946100   -0.765600
     28          8           0        3.288000   -1.324800   -1.083900
     29          6           0        2.459000   -3.573100   -1.379600
     30          1           0        1.743500   -3.269900   -2.153300
     31          8           0        1.891500   -4.720600   -0.731800
     32          1           0        1.181100   -4.385100   -0.146000
     33          6           0        3.780200   -3.974000   -2.037500
     34          1           0        4.433000   -4.480100   -1.313400
     35          8           0        3.539200   -4.940500   -3.071900
     36          1           0        2.920700   -5.593100   -2.680900
     37          6           0        4.486900   -2.757500   -2.646000
     38          1           0        3.916900   -2.402400   -3.514600
     39          8           0        5.774500   -3.152200   -3.120100
     40          1           0        5.614800   -3.945300   -3.673800
     41          6           0        5.182700   -0.358700   -2.208500
     42          1           0        6.157200   -0.542300   -2.670900
     43          1           0        4.498200    0.062600   -2.952800
     44          8           0        5.356700    0.618000   -1.180200
     45          1           0        5.621000    1.445100   -1.621100
 ---------------------------------------------------------------------
                    Distance matrix (angstroms):
                    1          2          3          4          5
     1  C    0.000000
     2  H    1.096331   0.000000
     3  O    1.425756   2.031784   0.000000
     4  H    1.927028   2.549948   0.974254   0.000000
     5  C    2.367241   2.621254   3.611891   4.209715   0.000000
     6  H    2.631789   2.407732   3.895199   4.554429   1.099695
     7  O    1.420104   2.077349   2.320109   3.013213   1.435625
     8  C    1.545661   2.195915   2.433841   2.288475   2.883762
     9  H    2.138899   3.062264   2.639354   2.368958   3.278723
    10  O    2.421724   2.706652   2.795860   2.246422   4.201380
    11  H    3.254102   3.536418   3.727576   3.129412   4.703603
    12  C    2.502502   2.750132   3.761826   3.775505   2.558745
    13  H    2.742834   2.535644   4.032238   4.109262   2.857272
    14  O    3.878262   4.150454   5.008813   4.829974   3.796154
    15  C    2.874889   3.223412   4.209934   4.499413   1.538110
    16  H    3.385941   3.994463   4.535095   4.742281   2.171564
    17  O    4.129785   4.215631   5.525473   5.833476   2.434925
    18  H    4.601281   4.706374   5.974558   6.138377   3.258794
    19  C    3.684755   4.020102   4.699245   5.377456   1.534963
    20  H    4.531382   4.723142   5.665266   6.315671   2.188917
    21  H    4.001167   4.582013   4.868109   5.453972   2.181510
    22  O    4.073745   4.292992   4.804365   5.642916   2.428447
    23  H    3.461886   3.738947   3.989091   4.868614   2.404010
    24  C    4.537224   5.073563   5.433652   5.101547   4.597323
    25  H    5.313566   5.844646   6.299016   6.054759   4.919634
    26  C    5.378407   6.246644   5.834775   5.401509   5.638782
    27  H    6.012259   6.848547   6.620759   6.289827   5.855814
    28  O    4.096833   4.887365   4.742993   4.382092   4.402544
    29  C    5.471225   5.915664   6.185223   5.652123   5.945040
    30  H    5.095135   5.492191   5.644819   5.006489   5.993997
    31  O    6.323911   6.568838   7.179715   6.700196   6.595419
    32  H    5.873194   5.987884   6.844865   6.457550   6.040135
    33  C    6.556467   7.151236   7.107518   6.504951   7.019788
    34  H    7.234983   7.823798   7.904162   7.379207   7.376553
    35  O    7.510562   8.035023   7.930586   7.214818   8.232463
    36  H    7.726478   8.132861   8.248512   7.558510   8.387396
    37  C    6.238157   7.017581   6.574053   5.954779   6.834135
    38  H    5.972306   6.747053   6.104502   5.375822   6.943132
    39  O    7.549475   8.379807   7.805962   7.180897   8.055976
    40  H    8.125920   8.895372   8.356264   7.661973   8.759107
    41  C    5.451746   6.461919   5.613174   5.215905   5.853801
    42  H    6.524947   7.543299   6.607567   6.175609   6.903559
    43  H    4.988767   6.011427   4.914206   4.420560   5.813945
    44  O    5.199433   6.239987   5.461227   5.309187   5.161112
    45  H    5.461450   6.541068   5.507331   5.387681   5.559992
                    6          7          8          9         10
     6  H    0.000000
     7  O    2.059412   0.000000
     8  C    3.347581   2.417438   0.000000
     9  H    3.998733   2.647239   1.085296   0.000000
    10  O    4.450267   3.660415   1.439102   2.033120   0.000000
    11  H    4.994870   4.358914   1.959740   2.366987   0.972656
    12  C    2.899021   2.906264   1.529427   2.216034   2.439953
    13  H    2.766665   3.320727   2.150792   3.091859   2.653571
    14  O    4.178334   4.259084   2.589495   2.938988   3.079969
    15  C    2.184602   2.466059   2.504248   2.844198   3.784323
    16  H    3.080669   2.817057   2.829890   2.744222   4.160385
    17  O    2.644822   3.704153   3.758428   4.192218   4.856926
    18  H    3.490026   4.384693   3.914277   4.317459   4.841466
    19  C    2.146622   2.385938   4.246280   4.382465   5.633217
    20  H    2.500257   3.353988   4.947020   5.160256   6.306165
    21  H    3.069249   2.669627   4.364606   4.226808   5.799017
    22  O    2.662251   2.746637   5.039911   5.205093   6.339688
    23  H    2.674171   2.192473   4.602368   4.749544   5.826905
    24  C    5.220926   4.844574   3.084835   2.923606   3.514859
    25  H    5.577917   5.386387   3.973145   3.773956   4.565188
    26  C    6.538777   5.485222   4.097994   3.287523   4.581636
    27  H    6.776370   5.927818   4.773824   4.041804   5.410716
    28  O    5.219868   4.306696   2.743495   2.104680   3.354380
    29  C    6.458921   6.059392   3.930648   3.822390   3.787951
    30  H    6.437030   5.908510   3.579893   3.555309   3.072553
    31  O    6.942177   6.930323   4.845610   4.972978   4.621065
    32  H    6.265967   6.483996   4.490976   4.813690   4.317096
    33  C    7.673248   7.038421   5.028947   4.632418   4.926786
    34  H    8.049217   7.563522   5.727816   5.336109   5.796507
    35  O    8.813518   8.165583   5.983446   5.654395   5.567959
    36  H    8.869711   8.431922   6.192068   6.025205   5.706469
    37  C    7.631696   6.619843   4.824154   4.133083   4.864227
    38  H    7.697481   6.528929   4.611115   3.918106   4.412116
    39  O    8.913530   7.833511   6.189071   5.416359   6.254277
    40  H    9.558846   8.533739   6.713310   6.022304   6.591261
    41  C    6.849195   5.416146   4.469248   3.442001   5.048010
    42  H    7.916241   6.466609   5.547770   4.518846   6.045145
    43  H    6.754355   5.137938   4.096211   3.038675   4.503002
    44  O    6.232594   4.799233   4.506629   3.507803   5.431468
    45  H    6.634344   5.009606   4.976977   3.945363   5.876816
                   11         12         13         14         15
    11  H    0.000000
    12  C    2.510442   0.000000
    13  H    2.779355   1.095727   0.000000
    14  O    2.649074   1.456041   2.010246   0.000000
    15  C    3.975451   1.548297   2.163060   2.408781   0.000000
    16  H    4.259616   2.167419   3.056692   2.627454   1.095835
    17  O    4.901376   2.431105   2.615567   2.766996   1.432609
    18  H    4.691470   2.447022   2.652693   2.239460   1.950055
    19  C    6.108417   3.911239   4.298177   4.938663   2.535588
    20  H    6.685490   4.296959   4.571985   5.143826   2.816778
    21  H    6.215586   4.167164   4.787971   5.039989   2.790596
    22  O    6.967977   4.977889   5.232602   6.166709   3.790505
    23  H    6.541166   4.822363   5.091911   6.115344   3.865175
    24  C    2.928286   2.513111   3.332777   1.439193   3.206837
    25  H    4.009179   3.164609   3.954884   2.009141   3.435010
    26  C    4.164905   4.244729   5.266487   3.693089   4.564653
    27  H    4.972103   4.622568   5.640952   3.920948   4.680859
    28  O    3.007728   2.811411   3.835842   2.425594   3.295484
    29  C    2.916964   3.581847   4.153193   2.411930   4.607041
    30  H    2.133004   3.559112   4.020369   2.708930   4.827573
    31  O    3.716411   4.156268   4.439364   2.802410   5.181294
    32  H    3.493478   3.605251   3.706445   2.299096   4.657248
    33  C    4.100367   4.871153   5.579303   3.756837   5.694396
    34  H    4.985266   5.344373   6.058791   4.098889   5.961802
    35  O    4.673027   5.940028   6.513517   4.839789   6.942961
    36  H    4.755904   5.976572   6.411225   4.778882   7.047477
    37  C    4.236189   5.031166   5.915350   4.257313   5.695817
    38  H    3.833643   5.109631   5.936414   4.535813   5.950630
    39  O    5.641538   6.398464   7.309271   5.585627   6.927857
    40  H    5.895375   6.914076   7.744962   6.013610   7.589925
    41  C    4.875758   4.989425   6.054741   4.821869   5.119268
    42  H    5.817829   6.050287   7.113286   5.774095   6.157071
    43  H    4.440330   4.928758   5.935172   4.960689   5.248673
    44  O    5.436611   4.921002   6.009024   4.992490   4.625572
    45  H    5.992771   5.584822   6.648134   5.814225   5.259625
                   16         17         18         19         20
    16  H    0.000000
    17  O    2.036900   0.000000
    18  H    2.344714   0.977601   0.000000
    19  C    2.690992   3.021343   3.932341   0.000000
    20  H    3.025349   2.748011   3.673163   1.093653   0.000000
    21  H    2.495281   3.439641   4.216723   1.097194   1.782072
    22  O    4.027264   4.315297   5.261034   1.430656   2.056158
    23  H    4.121747   4.655415   5.558046   1.935655   2.822226
    24  C    2.910815   3.735258   3.183805   5.545387   5.833136
    25  H    2.972275   3.644152   2.976893   5.633434   5.755739
    26  C    3.799977   5.406743   5.077933   6.252504   6.739832
    27  H    3.803106   5.294046   4.904990   6.280209   6.619568
    28  O    2.733478   4.234041   3.964347   5.236608   5.740230
    29  C    4.430125   5.065719   4.403467   7.015697   7.319421
    30  H    4.789333   5.461843   4.911026   7.208852   7.625124
    31  O    5.174780   5.281823   4.459192   7.687869   7.824972
    32  H    4.833497   4.635529   3.816510   7.185592   7.268732
    33  C    5.267369   6.198664   5.540390   7.925003   8.256936
    34  H    5.455054   6.266964   5.532740   8.144181   8.355755
    35  O    6.610289   7.441377   6.748621   9.236686   9.593337
    36  H    6.831963   7.399333   6.636410   9.451968   9.733666
    37  C    5.093259   6.470716   5.998308   7.620690   8.102293
    38  H    5.457754   6.876521   6.478185   7.847210   8.438358
    39  O    6.209244   7.649967   7.159801   8.696089   9.156525
    40  H    6.952619   8.268817   7.712202   9.493151   9.941893
    41  C    4.272054   6.170084   6.051504   6.285240   6.934082
    42  H    5.261443   7.142822   6.979705   7.239082   7.859655
    43  H    4.556487   6.449833   6.397741   6.394621   7.164004
    44  O    3.661825   5.665002   5.725964   5.288553   5.934852
    45  H    4.346856   6.378363   6.534080   5.585715   6.325089
                   21         22         23         24         25
    21  H    0.000000
    22  O    2.042789   0.000000
    23  H    2.392716   0.976608   0.000000
    24  C    5.360978   6.810965   6.725294   0.000000
    25  H    5.377626   6.993215   7.049243   1.097737   0.000000
    26  C    5.675244   7.394218   7.209001   2.372707   2.582536
    27  H    5.644804   7.512400   7.465297   2.604285   2.326409
    28  O    4.856412   6.387611   6.183751   1.409559   2.051084
    29  C    6.865961   8.233861   8.073859   1.541808   2.164878
    30  H    7.125767   8.310643   8.033610   2.177949   3.075404
    31  O    7.667953   8.951291   8.881700   2.472571   2.720916
    32  H    7.292549   8.425780   8.385736   2.507497   2.801394
    33  C    7.587115   9.156549   8.993206   2.508379   2.750649
    34  H    7.766328   9.451171   9.393543   2.848347   2.647603
    35  O    8.940785  10.429410  10.206935   3.775044   4.103683
    36  H    9.251888  10.671722  10.486195   3.923332   4.215499
    37  C    7.126937   8.753242   8.508966   2.889669   3.230789
    38  H    7.403318   8.869132   8.509178   3.343786   3.957255
    39  O    8.085725   9.826599   9.607678   4.169522   4.265772
    40  H    8.938588  10.633045  10.393956   4.643023   4.788543
    41  C    5.551987   7.232109   6.947095   3.691044   3.959955
    42  H    6.433933   8.168019   7.899927   4.535653   4.680287
    43  H    5.748275   7.205996   6.781434   3.981641   4.506279
    44  O    4.422619   6.184964   5.982362   4.100129   4.202551
    45  H    4.672417   6.290765   6.007901   4.985852   5.157600
                   26         27         28         29         30
    26  C    0.000000
    27  H    1.099709   0.000000
    28  O    1.442646   2.073732   0.000000
    29  C    2.893187   3.280546   2.414442   0.000000
    30  H    3.333844   3.988554   2.704165   1.096577   0.000000
    31  O    4.193773   4.349268   3.688583   1.434732   2.036442
    32  H    4.619940   4.776293   3.831986   1.952983   2.364153
    33  C    2.513548   2.804134   2.858299   1.529419   2.158081
    34  H    2.862283   2.715441   3.364463   2.173409   3.066501
    35  O    3.767124   4.144943   4.133828   2.429093   2.619021
    36  H    4.429895   4.727725   4.572057   2.446824   2.657333
    37  C    1.535059   2.182313   2.435189   2.526134   2.833999
    38  H    2.169160   3.085070   2.732222   2.837999   2.707279
    39  O    2.446215   2.698757   3.697051   3.768161   4.146989
    40  H    3.263882   3.548856   4.357591   3.919306   4.213674
    41  C    1.531136   2.145964   2.405818   4.293947   4.506243
    42  H    2.184757   2.537872   3.370932   4.952766   5.214255
    43  H    2.173191   3.061050   2.623404   4.455514   4.396945
    44  O    2.416726   2.599992   2.839589   5.099191   5.396101
    45  H    3.247842   3.518060   3.661123   5.936236   6.127762
                   31         32         33         34         35
    31  O    0.000000
    32  H    0.979995   0.000000
    33  C    2.414426   3.240694   0.000000
    34  H    2.618267   3.456400   1.098456   0.000000
    35  O    2.870425   3.798683   1.436032   2.025628   0.000000
    36  H    2.370548   3.303209   1.942727   2.322903   0.980464
    37  C    3.775450   4.452796   1.532831   2.178550   2.417647
    38  H    4.149732   4.771076   2.161120   3.070583   2.603957
    39  O    4.820949   5.609335   2.413423   2.612873   2.863024
    40  H    4.808265   5.683000   2.458467   2.693353   2.379248
    41  C    5.660284   6.039752   3.881577   4.283596   4.943627
    42  H    6.278097   6.775235   4.222309   4.507986   5.134091
    43  H    5.882748   6.217983   4.200885   4.829908   5.095574
    44  O    6.380386   6.598198   4.930191   5.182817   6.146443
    45  H    7.260570   7.475284   5.738343   6.050952   6.871288
                   36         37         38         39         40
    36  H    0.000000
    37  C    3.239572   0.000000
    38  H    3.445002   1.097935   0.000000
    39  O    3.780881   1.427751   2.041692   0.000000
    40  H    3.310479   1.933753   2.299728   0.980355   0.000000
    41  C    5.721778   2.535702   2.735847   2.997480   3.898399
    42  H    5.998801   2.774461   3.031624   2.675784   3.588930
    43  H    5.877872   2.836762   2.594177   3.462928   4.222547
    44  O    6.838418   3.781418   4.079861   4.260537   5.206569
    45  H    7.612559   4.471963   4.614386   4.837947   5.768018
                   41         42         43         44         45
    41  C    0.000000
    42  H    1.094154   0.000000
    43  H    1.095453   1.788198   0.000000
    44  O    1.428853   2.051654   2.046363   0.000000
    45  H    1.947008   2.310703   2.223828   0.973828   0.000000
 Stoichiometry    C12H22O11
 Framework group  C1[X(C12H22O11)]
 Deg. of freedom   129
 Full point group                 C1      NOp   1
 Largest Abelian subgroup         C1      NOp   1
 Largest concise Abelian subgroup C1      NOp   1
                         Standard orientation:                         
 ---------------------------------------------------------------------
 Center     Atomic      Atomic             Coordinates (Angstroms)
 Number     Number       Type             X           Y           Z
 ---------------------------------------------------------------------
      1          6           0        2.580211   -0.235272    1.738928
      2          1           0        3.097074   -1.177213    1.956967
      3          8           0        2.608693    0.532601    2.939902
      4          1           0        1.702925    0.486035    3.295694
      5          6           0        3.358634   -0.290857   -0.495977
      6          1           0        3.981466   -1.171661   -0.282451
      7          8           0        3.252822    0.478185    0.711665
      8          6           0        1.116977   -0.484526    1.307783
      9          1           0        0.646512    0.484487    1.175329
     10          8           0        0.426436   -1.127774    2.394246
     11          1           0       -0.428749   -1.435292    2.047619
     12          6           0        1.110701   -1.376566    0.065458
     13          1           0        1.550810   -2.346524    0.322564
     14          8           0       -0.147581   -1.744132   -0.568323
     15          6           0        1.980650   -0.715361   -1.031457
     16          1           0        1.449223    0.156945   -1.428346
     17          8           0        2.138342   -1.629459   -2.123211
     18          1           0        1.255683   -2.014061   -2.292612
     19          6           0        4.105058    0.581867   -1.514463
     20          1           0        4.295964    0.041493   -2.445928
     21          1           0        3.534495    1.490924   -1.742298
     22          8           0        5.360752    0.999022   -0.970411
     23          1           0        5.183268    1.204102   -0.032218
     24          6           0       -1.208140   -0.779923   -0.697905
     25          1           0       -1.371533   -0.710948   -1.781219
     26          6           0       -2.005640    1.447006   -0.512110
     27          1           0       -2.108667    1.488638   -1.606191
     28          8           0       -0.959415    0.509170   -0.184843
     29          6           0       -2.469720   -1.368637   -0.035330
     30          1           0       -2.309741   -1.486125    1.043134
     31          8           0       -2.791656   -2.672353   -0.540443
     32          1           0       -1.949388   -3.172171   -0.574460
     33          6           0       -3.656213   -0.433737   -0.274746
     34          1           0       -3.968752   -0.469897   -1.327181
     35          8           0       -4.794733   -0.884793    0.475258
     36          1           0       -4.841335   -1.852262    0.323135
     37          6           0       -3.321540    1.002939    0.141815
     38          1           0       -3.229697    1.052836    1.234764
     39          8           0       -4.399835    1.861826   -0.229757
     40          1           0       -5.207027    1.431886    0.123352
     41          6           0       -1.570840    2.830144   -0.019917
     42          1           0       -2.349198    3.580272   -0.189150
     43          1           0       -1.319473    2.797856    1.045817
     44          8           0       -0.399045    3.239472   -0.727708
     45          1           0       -0.092935    4.064085   -0.309794
 ---------------------------------------------------------------------
 Rotational constants (GHZ):           0.3953253           0.1535796           0.1422130
 Leave Link  202 at Fri Apr 14 15:52:38 2023, MaxMem=   524288000 cpu:               0.8 elap:               0.3
 (Enter /dragofs/sw/campus/0.2/software/gaussian/16.gaussian/gaussian/g16_legacy/l301.exe)
 Standard basis: 6-311G(d,p) (5D, 7F)
 Ernie: Thresh=  0.10000D-02 Tol=  0.10000D-05 Strict=F.
 There are   569 symmetry adapted cartesian basis functions of A   symmetry.
 There are   546 symmetry adapted basis functions of A   symmetry.
   546 basis functions,   912 primitive gaussians,   569 cartesian basis functions
    91 alpha electrons       91 beta electrons
       nuclear repulsion energy      2327.8768394870 Hartrees.
 IExCor= 4336 DFT=T Ex+Corr=M062X ExCW=0 ScaHFX=  0.540000
 ScaDFX=  1.000000  1.000000  1.000000  1.000000 ScalE2=  1.000000  1.000000
 IRadAn=      5 IRanWt=     -1 IRanGd=            0 ICorTp=0 IEmpDi=  4
 NAtoms=   45 NActive=   45 NUniq=   45 SFac= 1.00D+00 NAtFMM=   60 NAOKFM=F Big=F
 Integral buffers will be    131072 words long.
 Raffenetti 2 integral format.
 Two-electron integral symmetry is turned on.
 Leave Link  301 at Fri Apr 14 15:52:38 2023, MaxMem=   524288000 cpu:               0.5 elap:               0.2
 (Enter /dragofs/sw/campus/0.2/software/gaussian/16.gaussian/gaussian/g16_legacy/l302.exe)
 NPDir=0 NMtPBC=     1 NCelOv=     1 NCel=       1 NClECP=     1 NCelD=      1
         NCelK=      1 NCelE2=     1 NClLst=     1 CellRange=     0.0.
 One-electron integrals computed using PRISM.
 One-electron integral symmetry used in STVInt
 NBasis=   546 RedAO= T EigKep=  8.28D-04  NBF=   546
 NBsUse=   546 1.00D-06 EigRej= -1.00D+00 NBFU=   546
 Precomputing XC quadrature grid using
 IXCGrd= 4 IRadAn=           5 IRanWt=          -1 IRanGd=           0 AccXCQ= 0.00D+00.
 Generated NRdTot=       0 NPtTot=           0 NUsed=           0 NTot=          32
 NSgBfM=   566   565   565   565   566 MxSgAt=    45 MxSgA2=    45.
 Leave Link  302 at Fri Apr 14 15:52:41 2023, MaxMem=   524288000 cpu:              15.4 elap:               3.1
 (Enter /dragofs/sw/campus/0.2/software/gaussian/16.gaussian/gaussian/g16_legacy/l303.exe)
 DipDrv:  MaxL=1.
 Leave Link  303 at Fri Apr 14 15:52:42 2023, MaxMem=   524288000 cpu:               1.6 elap:               0.5
 (Enter /dragofs/sw/campus/0.2/software/gaussian/16.gaussian/gaussian/g16_legacy/l401.exe)
 ExpMin= 1.03D-01 ExpMax= 8.59D+03 ExpMxC= 1.30D+03 IAcc=3 IRadAn=         5 AccDes= 0.00D+00
 Harris functional with IExCor= 1009 and IRadAn=       5 diagonalized for initial guess.
 HarFok:  IExCor= 1009 AccDes= 0.00D+00 IRadAn=         5 IDoV= 1 UseB2=F ITyADJ=14
 ICtDFT=  3500011 ScaDFX=  1.000000  1.000000  1.000000  1.000000
 FoFCou: FMM=F IPFlag=           0 FMFlag=      100000 FMFlg1=           0
         NFxFlg=           0 DoJE=T BraDBF=F KetDBF=T FulRan=T
         wScrn=  0.000000 ICntrl=       500 IOpCl=  0 I1Cent=   200000004 NGrid=           0
         NMat0=    1 NMatS0=      1 NMatT0=    0 NMatD0=    1 NMtDS0=    0 NMtDT0=    0
 Petite list used in FoFCou.
 Harris En= -1297.08290531452    
 JPrj=0 DoOrth=F DoCkMO=F.
 Leave Link  401 at Fri Apr 14 15:52:51 2023, MaxMem=   524288000 cpu:              52.5 elap:               9.4
 (Enter /dragofs/sw/campus/0.2/software/gaussian/16.gaussian/gaussian/g16_legacy/l502.exe)
 Integral symmetry usage will be decided dynamically.
 Closed shell SCF:
 Using DIIS extrapolation, IDIIS=  1040.
 NGot=   524288000 LenX=   523630196 LenY=   523305866
 Requested convergence on RMS density matrix=1.00D-08 within 128 cycles.
 Requested convergence on MAX density matrix=1.00D-06.
 Requested convergence on             energy=1.00D-06.
 No special actions if energy rises.
 Fock matrices will be formed incrementally for  20 cycles.
 Integral accuracy reduced to 1.0D-05 until final iterations.

 Cycle   1  Pass 0  IDiag  1:
 FoFJK:  IHMeth= 1 ICntrl=       0 DoSepK=F KAlg= 0 I1Cent=           0 FoldK=F
 IRaf= 750000000 NMat=       1 IRICut=       1 DoRegI=T DoRafI=F ISym2E= 0 IDoP0=0 IntGTp=1.
 FoFCou: FMM=F IPFlag=           0 FMFlag=      100000 FMFlg1=           0
         NFxFlg=           0 DoJE=F BraDBF=F KetDBF=F FulRan=T
         wScrn=  0.000000 ICntrl=         0 IOpCl=  0 I1Cent=           0 NGrid=           0
         NMat0=    1 NMatS0=      1 NMatT0=    0 NMatD0=    1 NMtDS0=    0 NMtDT0=    0
 Symmetry not used in FoFCou.
 E= -1297.30162495348    
 DIIS: error= 2.46D-02 at cycle   1 NSaved=   1.
 NSaved= 1 IEnMin= 1 EnMin= -1297.30162495348     IErMin= 1 ErrMin= 2.46D-02
 ErrMax= 2.46D-02  0.00D+00 EMaxC= 1.00D-01 BMatC= 8.43D-01 BMatP= 8.43D-01
 IDIUse=3 WtCom= 7.54D-01 WtEn= 2.46D-01
 Coeff-Com:  0.100D+01
 Coeff-En:   0.100D+01
 Coeff:      0.100D+01
 Gap=     0.418 Goal=   None    Shift=    0.000
 GapD=    0.418 DampG=2.000 DampE=0.500 DampFc=1.0000 IDamp=-1.
 RMSDP=2.44D-03 MaxDP=1.61D-01              OVMax= 1.10D-01

 Cycle   2  Pass 0  IDiag  1:
 RMSU=  2.44D-03    CP:  1.02D+00
 E= -1297.35971124188     Delta-E=       -0.058086288409 Rises=F Damp=F
 DIIS: error= 2.65D-02 at cycle   2 NSaved=   2.
 NSaved= 2 IEnMin= 2 EnMin= -1297.35971124188     IErMin= 1 ErrMin= 2.46D-02
 ErrMax= 2.65D-02  0.00D+00 EMaxC= 1.00D-01 BMatC= 6.35D-01 BMatP= 8.43D-01
 IDIUse=3 WtCom= 7.35D-01 WtEn= 2.65D-01
 Coeff-Com:  0.461D+00 0.539D+00
 Coeff-En:   0.465D+00 0.535D+00
 Coeff:      0.462D+00 0.538D+00
 Gap=     0.386 Goal=   None    Shift=    0.000
 RMSDP=1.41D-03 MaxDP=8.14D-02 DE=-5.81D-02 OVMax= 5.89D-02

 Cycle   3  Pass 0  IDiag  1:
 RMSU=  4.58D-04    CP:  1.01D+00  4.53D-01
 E= -1297.76736553894     Delta-E=       -0.407654297059 Rises=F Damp=F
 DIIS: error= 5.58D-03 at cycle   3 NSaved=   3.
 NSaved= 3 IEnMin= 3 EnMin= -1297.76736553894     IErMin= 3 ErrMin= 5.58D-03
 ErrMax= 5.58D-03  0.00D+00 EMaxC= 1.00D-01 BMatC= 2.32D-02 BMatP= 6.35D-01
 IDIUse=3 WtCom= 9.44D-01 WtEn= 5.58D-02
 Coeff-Com:  0.670D-01 0.186D+00 0.747D+00
 Coeff-En:   0.000D+00 0.000D+00 0.100D+01
 Coeff:      0.633D-01 0.175D+00 0.761D+00
 Gap=     0.381 Goal=   None    Shift=    0.000
 RMSDP=2.68D-04 MaxDP=1.03D-02 DE=-4.08D-01 OVMax= 1.47D-02

 Cycle   4  Pass 0  IDiag  1:
 RMSU=  1.87D-04    CP:  1.01D+00  5.08D-01  7.03D-01
 E= -1297.78099559911     Delta-E=       -0.013630060165 Rises=F Damp=F
 DIIS: error= 1.73D-03 at cycle   4 NSaved=   4.
 NSaved= 4 IEnMin= 4 EnMin= -1297.78099559911     IErMin= 4 ErrMin= 1.73D-03
 ErrMax= 1.73D-03  0.00D+00 EMaxC= 1.00D-01 BMatC= 3.00D-03 BMatP= 2.32D-02
 IDIUse=3 WtCom= 9.83D-01 WtEn= 1.73D-02
 Coeff-Com:  0.344D-02 0.466D-01 0.353D+00 0.597D+00
 Coeff-En:   0.000D+00 0.000D+00 0.671D-01 0.933D+00
 Coeff:      0.338D-02 0.458D-01 0.348D+00 0.603D+00
 Gap=     0.369 Goal=   None    Shift=    0.000
 RMSDP=1.03D-04 MaxDP=4.13D-03 DE=-1.36D-02 OVMax= 5.30D-03

 Cycle   5  Pass 0  IDiag  1:
 RMSU=  3.88D-05    CP:  1.01D+00  5.00D-01  8.03D-01  5.67D-01
 E= -1297.78360608079     Delta-E=       -0.002610481685 Rises=F Damp=F
 DIIS: error= 2.11D-04 at cycle   5 NSaved=   5.
 NSaved= 5 IEnMin= 5 EnMin= -1297.78360608079     IErMin= 5 ErrMin= 2.11D-04
 ErrMax= 2.11D-04  0.00D+00 EMaxC= 1.00D-01 BMatC= 5.60D-05 BMatP= 3.00D-03
 IDIUse=3 WtCom= 9.98D-01 WtEn= 2.11D-03
 Coeff-Com: -0.184D-02 0.691D-02 0.745D-01 0.189D+00 0.732D+00
 Coeff-En:   0.000D+00 0.000D+00 0.000D+00 0.000D+00 0.100D+01
 Coeff:     -0.184D-02 0.690D-02 0.743D-01 0.188D+00 0.732D+00
 Gap=     0.369 Goal=   None    Shift=    0.000
 RMSDP=1.75D-05 MaxDP=6.51D-04 DE=-2.61D-03 OVMax= 7.84D-04

 Cycle   6  Pass 0  IDiag  1:
 RMSU=  1.21D-05    CP:  1.01D+00  5.00D-01  8.05D-01  6.16D-01  7.87D-01
 E= -1297.78364192678     Delta-E=       -0.000035845984 Rises=F Damp=F
 DIIS: error= 1.03D-04 at cycle   6 NSaved=   6.
 NSaved= 6 IEnMin= 6 EnMin= -1297.78364192678     IErMin= 6 ErrMin= 1.03D-04
 ErrMax= 1.03D-04  0.00D+00 EMaxC= 1.00D-01 BMatC= 1.13D-05 BMatP= 5.60D-05
 IDIUse=3 WtCom= 9.99D-01 WtEn= 1.03D-03
 Coeff-Com: -0.118D-02 0.317D-03 0.135D-01 0.561D-01 0.367D+00 0.564D+00
 Coeff-En:   0.000D+00 0.000D+00 0.000D+00 0.000D+00 0.168D-01 0.983D+00
 Coeff:     -0.118D-02 0.316D-03 0.135D-01 0.561D-01 0.367D+00 0.565D+00
 Gap=     0.369 Goal=   None    Shift=    0.000
 RMSDP=5.46D-06 MaxDP=3.47D-04 DE=-3.58D-05 OVMax= 3.17D-04

 Initial convergence to 1.0D-05 achieved.  Increase integral accuracy.
 Cycle   7  Pass 1  IDiag  1:
 E= -1297.78356147431     Delta-E=        0.000080452471 Rises=F Damp=F
 DIIS: error= 2.59D-05 at cycle   1 NSaved=   1.
 NSaved= 1 IEnMin= 1 EnMin= -1297.78356147431     IErMin= 1 ErrMin= 2.59D-05
 ErrMax= 2.59D-05  0.00D+00 EMaxC= 1.00D-01 BMatC= 1.15D-06 BMatP= 1.15D-06
 IDIUse=1 WtCom= 1.00D+00 WtEn= 0.00D+00
 Coeff-Com:  0.100D+01
 Coeff:      0.100D+01
 Gap=     0.369 Goal=   None    Shift=    0.000
 RMSDP=5.46D-06 MaxDP=3.47D-04 DE= 8.05D-05 OVMax= 1.73D-04

 Cycle   8  Pass 1  IDiag  1:
 RMSU=  1.21D-05    CP:  1.00D+00
 E= -1297.78356213240     Delta-E=       -0.000000658092 Rises=F Damp=F
 DIIS: error= 2.69D-05 at cycle   2 NSaved=   2.
 NSaved= 2 IEnMin= 2 EnMin= -1297.78356213240     IErMin= 1 ErrMin= 2.59D-05
 ErrMax= 2.69D-05  0.00D+00 EMaxC= 1.00D-01 BMatC= 6.25D-07 BMatP= 1.15D-06
 IDIUse=1 WtCom= 1.00D+00 WtEn= 0.00D+00
 Coeff-Com:  0.400D+00 0.600D+00
 Coeff:      0.400D+00 0.600D+00
 Gap=     0.369 Goal=   None    Shift=    0.000
 RMSDP=1.53D-06 MaxDP=1.10D-04 DE=-6.58D-07 OVMax= 1.01D-04

 Cycle   9  Pass 1  IDiag  1:
 RMSU=  1.53D-06    CP:  1.00D+00  1.01D+00
 E= -1297.78356247867     Delta-E=       -0.000000346270 Rises=F Damp=F
 DIIS: error= 1.19D-05 at cycle   3 NSaved=   3.
 NSaved= 3 IEnMin= 3 EnMin= -1297.78356247867     IErMin= 3 ErrMin= 1.19D-05
 ErrMax= 1.19D-05  0.00D+00 EMaxC= 1.00D-01 BMatC= 1.13D-07 BMatP= 6.25D-07
 IDIUse=1 WtCom= 1.00D+00 WtEn= 0.00D+00
 Coeff-Com: -0.258D-01 0.289D+00 0.737D+00
 Coeff:     -0.258D-01 0.289D+00 0.737D+00
 Gap=     0.369 Goal=   None    Shift=    0.000
 RMSDP=5.74D-07 MaxDP=3.64D-05 DE=-3.46D-07 OVMax= 3.18D-05

 Cycle  10  Pass 1  IDiag  1:
 RMSU=  2.77D-07    CP:  1.00D+00  1.03D+00  7.20D-01
 E= -1297.78356255656     Delta-E=       -0.000000077894 Rises=F Damp=F
 DIIS: error= 8.03D-07 at cycle   4 NSaved=   4.
 NSaved= 4 IEnMin= 4 EnMin= -1297.78356255656     IErMin= 4 ErrMin= 8.03D-07
 ErrMax= 8.03D-07  0.00D+00 EMaxC= 1.00D-01 BMatC= 1.55D-09 BMatP= 1.13D-07
 IDIUse=1 WtCom= 1.00D+00 WtEn= 0.00D+00
 Coeff-Com: -0.158D-01 0.831D-01 0.246D+00 0.687D+00
 Coeff:     -0.158D-01 0.831D-01 0.246D+00 0.687D+00
 Gap=     0.369 Goal=   None    Shift=    0.000
 RMSDP=9.71D-08 MaxDP=4.50D-06 DE=-7.79D-08 OVMax= 4.97D-06

 Cycle  11  Pass 1  IDiag  1:
 RMSU=  8.87D-08    CP:  1.00D+00  1.03D+00  7.43D-01  9.60D-01
 E= -1297.78356255773     Delta-E=       -0.000000001170 Rises=F Damp=F
 DIIS: error= 3.90D-07 at cycle   5 NSaved=   5.
 NSaved= 5 IEnMin= 5 EnMin= -1297.78356255773     IErMin= 5 ErrMin= 3.90D-07
 ErrMax= 3.90D-07  0.00D+00 EMaxC= 1.00D-01 BMatC= 2.27D-10 BMatP= 1.55D-09
 IDIUse=1 WtCom= 1.00D+00 WtEn= 0.00D+00
 Coeff-Com: -0.156D-02-0.134D-01-0.226D-01 0.247D+00 0.791D+00
 Coeff:     -0.156D-02-0.134D-01-0.226D-01 0.247D+00 0.791D+00
 Gap=     0.369 Goal=   None    Shift=    0.000
 RMSDP=3.24D-08 MaxDP=1.46D-06 DE=-1.17D-09 OVMax= 2.00D-06

 Cycle  12  Pass 1  IDiag  1:
 RMSU=  2.05D-08    CP:  1.00D+00  1.03D+00  7.45D-01  1.05D+00  9.40D-01
 E= -1297.78356255796     Delta-E=       -0.000000000226 Rises=F Damp=F
 DIIS: error= 1.63D-07 at cycle   6 NSaved=   6.
 NSaved= 6 IEnMin= 6 EnMin= -1297.78356255796     IErMin= 6 ErrMin= 1.63D-07
 ErrMax= 1.63D-07  0.00D+00 EMaxC= 1.00D-01 BMatC= 2.71D-11 BMatP= 2.27D-10
 IDIUse=1 WtCom= 1.00D+00 WtEn= 0.00D+00
 Coeff-Com:  0.786D-03-0.132D-01-0.326D-01 0.396D-01 0.333D+00 0.672D+00
 Coeff:      0.786D-03-0.132D-01-0.326D-01 0.396D-01 0.333D+00 0.672D+00
 Gap=     0.369 Goal=   None    Shift=    0.000
 RMSDP=1.11D-08 MaxDP=5.24D-07 DE=-2.26D-10 OVMax= 6.72D-07

 Cycle  13  Pass 1  IDiag  1:
 RMSU=  7.49D-09    CP:  1.00D+00  1.03D+00  7.45D-01  1.07D+00  9.96D-01
                    CP:  8.57D-01
 E= -1297.78356255802     Delta-E=       -0.000000000063 Rises=F Damp=F
 DIIS: error= 3.90D-08 at cycle   7 NSaved=   7.
 NSaved= 7 IEnMin= 7 EnMin= -1297.78356255802     IErMin= 7 ErrMin= 3.90D-08
 ErrMax= 3.90D-08  0.00D+00 EMaxC= 1.00D-01 BMatC= 2.17D-12 BMatP= 2.71D-11
 IDIUse=1 WtCom= 1.00D+00 WtEn= 0.00D+00
 Coeff-Com:  0.481D-03-0.457D-02-0.123D-01-0.468D-02 0.778D-01 0.277D+00
 Coeff-Com:  0.666D+00
 Coeff:      0.481D-03-0.457D-02-0.123D-01-0.468D-02 0.778D-01 0.277D+00
 Coeff:      0.666D+00
 Gap=     0.369 Goal=   None    Shift=    0.000
 RMSDP=2.50D-09 MaxDP=1.39D-07 DE=-6.32D-11 OVMax= 1.75D-07

 SCF Done:  E(RM062X) =  -1297.78356256     A.U. after   13 cycles
            NFock= 13  Conv=0.25D-08     -V/T= 2.0036
 KE= 1.293124552299D+03 PE=-7.702304875461D+03 EE= 2.783519921118D+03
 Leave Link  502 at Fri Apr 14 15:57:41 2023, MaxMem=   524288000 cpu:            1716.0 elap:             289.8
 (Enter /dragofs/sw/campus/0.2/software/gaussian/16.gaussian/gaussian/g16_legacy/l601.exe)
 Copying SCF densities to generalized density rwf, IOpCl= 0 IROHF=0.

 **********************************************************************

            Population analysis using the SCF density.

 **********************************************************************

 Orbital symmetries:
       Occupied  (A) (A) (A) (A) (A) (A) (A) (A) (A) (A) (A) (A)
                 (A) (A) (A) (A) (A) (A) (A) (A) (A) (A) (A) (A)
                 (A) (A) (A) (A) (A) (A) (A) (A) (A) (A) (A) (A)
                 (A) (A) (A) (A) (A) (A) (A) (A) (A) (A) (A) (A)
                 (A) (A) (A) (A) (A) (A) (A) (A) (A) (A) (A) (A)
                 (A) (A) (A) (A) (A) (A) (A) (A) (A) (A) (A) (A)
                 (A) (A) (A) (A) (A) (A) (A) (A) (A) (A) (A) (A)
                 (A) (A) (A) (A) (A) (A) (A)
       Virtual   (A) (A) (A) (A) (A) (A) (A) (A) (A) (A) (A) (A)
                 (A) (A) (A) (A) (A) (A) (A) (A) (A) (A) (A) (A)
                 (A) (A) (A) (A) (A) (A) (A) (A) (A) (A) (A) (A)
                 (A) (A) (A) (A) (A) (A) (A) (A) (A) (A) (A) (A)
                 (A) (A) (A) (A) (A) (A) (A) (A) (A) (A) (A) (A)
                 (A) (A) (A) (A) (A) (A) (A) (A) (A) (A) (A) (A)
                 (A) (A) (A) (A) (A) (A) (A) (A) (A) (A) (A) (A)
                 (A) (A) (A) (A) (A) (A) (A) (A) (A) (A) (A) (A)
                 (A) (A) (A) (A) (A) (A) (A) (A) (A) (A) (A) (A)
                 (A) (A) (A) (A) (A) (A) (A) (A) (A) (A) (A) (A)
                 (A) (A) (A) (A) (A) (A) (A) (A) (A) (A) (A) (A)
                 (A) (A) (A) (A) (A) (A) (A) (A) (A) (A) (A) (A)
                 (A) (A) (A) (A) (A) (A) (A) (A) (A) (A) (A) (A)
                 (A) (A) (A) (A) (A) (A) (A) (A) (A) (A) (A) (A)
                 (A) (A) (A) (A) (A) (A) (A) (A) (A) (A) (A) (A)
                 (A) (A) (A) (A) (A) (A) (A) (A) (A) (A) (A) (A)
                 (A) (A) (A) (A) (A) (A) (A) (A) (A) (A) (A) (A)
                 (A) (A) (A) (A) (A) (A) (A) (A) (A) (A) (A) (A)
                 (A) (A) (A) (A) (A) (A) (A) (A) (A) (A) (A) (A)
                 (A) (A) (A) (A) (A) (A) (A) (A) (A) (A) (A) (A)
                 (A) (A) (A) (A) (A) (A) (A) (A) (A) (A) (A) (A)
                 (A) (A) (A) (A) (A) (A) (A) (A) (A) (A) (A) (A)
                 (A) (A) (A) (A) (A) (A) (A) (A) (A) (A) (A) (A)
                 (A) (A) (A) (A) (A) (A) (A) (A) (A) (A) (A) (A)
                 (A) (A) (A) (A) (A) (A) (A) (A) (A) (A) (A) (A)
                 (A) (A) (A) (A) (A) (A) (A) (A) (A) (A) (A) (A)
                 (A) (A) (A) (A) (A) (A) (A) (A) (A) (A) (A) (A)
                 (A) (A) (A) (A) (A) (A) (A) (A) (A) (A) (A) (A)
                 (A) (A) (A) (A) (A) (A) (A) (A) (A) (A) (A) (A)
                 (A) (A) (A) (A) (A) (A) (A) (A) (A) (A) (A) (A)
                 (A) (A) (A) (A) (A) (A) (A) (A) (A) (A) (A) (A)
                 (A) (A) (A) (A) (A) (A) (A) (A) (A) (A) (A) (A)
                 (A) (A) (A) (A) (A) (A) (A) (A) (A) (A) (A) (A)
                 (A) (A) (A) (A) (A) (A) (A) (A) (A) (A) (A) (A)
                 (A) (A) (A) (A) (A) (A) (A) (A) (A) (A) (A) (A)
                 (A) (A) (A) (A) (A) (A) (A) (A) (A) (A) (A) (A)
                 (A) (A) (A) (A) (A) (A) (A) (A) (A) (A) (A) (A)
                 (A) (A) (A) (A) (A) (A) (A) (A) (A) (A) (A)
 The electronic state is 1-A.
 Alpha  occ. eigenvalues --  -19.67813 -19.67372 -19.65033 -19.64673 -19.64280
 Alpha  occ. eigenvalues --  -19.64208 -19.63883 -19.62703 -19.62650 -19.62587
 Alpha  occ. eigenvalues --  -19.59733 -10.68381 -10.65669 -10.63152 -10.62581
 Alpha  occ. eigenvalues --  -10.62563 -10.62213 -10.62000 -10.60951 -10.60674
 Alpha  occ. eigenvalues --  -10.60606 -10.60539 -10.57987  -1.23541  -1.20374
 Alpha  occ. eigenvalues --   -1.18362  -1.18238  -1.16626  -1.16362  -1.15104
 Alpha  occ. eigenvalues --   -1.14938  -1.14465  -1.13530  -1.11746  -0.91839
 Alpha  occ. eigenvalues --   -0.91156  -0.88798  -0.87237  -0.81076  -0.78219
 Alpha  occ. eigenvalues --   -0.76053  -0.73412  -0.72762  -0.71410  -0.70218
 Alpha  occ. eigenvalues --   -0.68871  -0.65316  -0.63531  -0.62843  -0.61961
 Alpha  occ. eigenvalues --   -0.60758  -0.60511  -0.59984  -0.59308  -0.58503
 Alpha  occ. eigenvalues --   -0.57690  -0.56101  -0.55652  -0.55211  -0.54639
 Alpha  occ. eigenvalues --   -0.53917  -0.53346  -0.52543  -0.52205  -0.50936
 Alpha  occ. eigenvalues --   -0.50510  -0.49777  -0.48550  -0.48376  -0.47121
 Alpha  occ. eigenvalues --   -0.46890  -0.46204  -0.45934  -0.45146  -0.44572
 Alpha  occ. eigenvalues --   -0.43230  -0.42508  -0.41665  -0.41292  -0.40362
 Alpha  occ. eigenvalues --   -0.39804  -0.39318  -0.37946  -0.37762  -0.37613
 Alpha  occ. eigenvalues --   -0.37039  -0.36143  -0.35816  -0.34449  -0.34284
 Alpha  occ. eigenvalues --   -0.33370
 Alpha virt. eigenvalues --    0.03498   0.04219   0.04498   0.05648   0.07080
 Alpha virt. eigenvalues --    0.07822   0.08513   0.09167   0.09926   0.10617
 Alpha virt. eigenvalues --    0.10902   0.11793   0.11943   0.12942   0.13130
 Alpha virt. eigenvalues --    0.13757   0.14209   0.14600   0.15086   0.15910
 Alpha virt. eigenvalues --    0.16331   0.16699   0.17409   0.18476   0.18605
 Alpha virt. eigenvalues --    0.19561   0.20290   0.20889   0.21875   0.22335
 Alpha virt. eigenvalues --    0.22638   0.24096   0.24482   0.25472   0.25934
 Alpha virt. eigenvalues --    0.26373   0.27359   0.28325   0.29565   0.29809
 Alpha virt. eigenvalues --    0.30910   0.31261   0.32094   0.34152   0.34591
 Alpha virt. eigenvalues --    0.35627   0.36128   0.37234   0.39127   0.39546
 Alpha virt. eigenvalues --    0.40948   0.41885   0.42579   0.43438   0.43785
 Alpha virt. eigenvalues --    0.44469   0.44680   0.45251   0.46025   0.46472
 Alpha virt. eigenvalues --    0.47659   0.47812   0.48811   0.49364   0.50221
 Alpha virt. eigenvalues --    0.50424   0.50845   0.51543   0.52814   0.53167
 Alpha virt. eigenvalues --    0.53642   0.54548   0.55089   0.55288   0.55526
 Alpha virt. eigenvalues --    0.56563   0.56791   0.57381   0.58141   0.58693
 Alpha virt. eigenvalues --    0.59290   0.59951   0.60590   0.60918   0.61559
 Alpha virt. eigenvalues --    0.62100   0.62893   0.63599   0.63658   0.64128
 Alpha virt. eigenvalues --    0.64593   0.64962   0.65478   0.66208   0.66896
 Alpha virt. eigenvalues --    0.67651   0.68311   0.68663   0.69801   0.71068
 Alpha virt. eigenvalues --    0.72727   0.74579   0.76332   0.76891   0.78680
 Alpha virt. eigenvalues --    0.81097   0.83121   0.84048   0.84946   0.85788
 Alpha virt. eigenvalues --    0.88460   0.88832   0.89181   0.90165   0.91040
 Alpha virt. eigenvalues --    0.91379   0.92102   0.92776   0.93375   0.94158
 Alpha virt. eigenvalues --    0.94399   0.95441   0.96228   0.97004   0.98272
 Alpha virt. eigenvalues --    0.99437   0.99819   1.00618   1.01334   1.01630
 Alpha virt. eigenvalues --    1.02217   1.03146   1.04003   1.05246   1.05783
 Alpha virt. eigenvalues --    1.06091   1.08460   1.09978   1.10601   1.11983
 Alpha virt. eigenvalues --    1.12971   1.13834   1.14449   1.14713   1.16185
 Alpha virt. eigenvalues --    1.17976   1.18173   1.19347   1.20026   1.21204
 Alpha virt. eigenvalues --    1.22067   1.23274   1.23414   1.24215   1.25408
 Alpha virt. eigenvalues --    1.28693   1.29380   1.30597   1.33630   1.34916
 Alpha virt. eigenvalues --    1.36962   1.37982   1.38802   1.39647   1.41226
 Alpha virt. eigenvalues --    1.41923   1.42553   1.43150   1.43347   1.44829
 Alpha virt. eigenvalues --    1.45598   1.46773   1.46892   1.47889   1.49374
 Alpha virt. eigenvalues --    1.49829   1.50009   1.50847   1.51666   1.52629
 Alpha virt. eigenvalues --    1.52996   1.53570   1.53893   1.54444   1.55680
 Alpha virt. eigenvalues --    1.56024   1.57335   1.57593   1.58409   1.59040
 Alpha virt. eigenvalues --    1.59397   1.59761   1.60247   1.60569   1.61416
 Alpha virt. eigenvalues --    1.62453   1.63067   1.63456   1.63722   1.64555
 Alpha virt. eigenvalues --    1.65595   1.65736   1.66655   1.67014   1.67766
 Alpha virt. eigenvalues --    1.68878   1.68969   1.69902   1.71582   1.71813
 Alpha virt. eigenvalues --    1.73306   1.74085   1.74683   1.75793   1.75995
 Alpha virt. eigenvalues --    1.76767   1.77150   1.79604   1.80475   1.81874
 Alpha virt. eigenvalues --    1.82292   1.83043   1.84529   1.85270   1.85785
 Alpha virt. eigenvalues --    1.88366   1.89608   1.89949   1.92252   1.92785
 Alpha virt. eigenvalues --    1.93809   1.94735   1.95188   1.95828   1.96225
 Alpha virt. eigenvalues --    1.97217   1.98754   1.99362   2.00231   2.01381
 Alpha virt. eigenvalues --    2.01893   2.03202   2.03881   2.05225   2.05660
 Alpha virt. eigenvalues --    2.06211   2.07044   2.07750   2.07981   2.09123
 Alpha virt. eigenvalues --    2.09542   2.10411   2.11355   2.11713   2.13147
 Alpha virt. eigenvalues --    2.13853   2.15209   2.16713   2.17190   2.18417
 Alpha virt. eigenvalues --    2.19744   2.20793   2.21618   2.22904   2.23384
 Alpha virt. eigenvalues --    2.24635   2.27642   2.29967   2.31905   2.32174
 Alpha virt. eigenvalues --    2.33485   2.34562   2.39962   2.40836   2.42980
 Alpha virt. eigenvalues --    2.44709   2.45511   2.46082   2.46723   2.48982
 Alpha virt. eigenvalues --    2.49636   2.51886   2.52611   2.54125   2.54325
 Alpha virt. eigenvalues --    2.54823   2.55830   2.56962   2.58444   2.59846
 Alpha virt. eigenvalues --    2.60828   2.61104   2.62415   2.63272   2.64474
 Alpha virt. eigenvalues --    2.67058   2.73155   2.74741   2.77575   2.77953
[...]
    31  O   -0.000000  -0.000000   0.000000   0.000000  -0.000000  -0.036882
    32  H    0.000000   0.000000   0.000000  -0.000000  -0.000000  -0.011850
    33  C    0.000000   0.000000   0.000000  -0.000000  -0.000000  -0.061410
    34  H    0.000000   0.000000   0.000000   0.000000  -0.000000  -0.001889
    35  O   -0.000000  -0.000000  -0.000000   0.000000   0.000000   0.005852
    36  H   -0.000000  -0.000000   0.000000   0.000000  -0.000000   0.001555
    37  C   -0.000000   0.000000  -0.000000  -0.000000   0.000000  -0.001645
    38  H   -0.000000   0.000000   0.000000  -0.000000  -0.000000   0.001069
    39  O   -0.000000  -0.000000   0.000000   0.000000  -0.000000  -0.000287
    40  H    0.000000   0.000000  -0.000000  -0.000000   0.000000  -0.000346
    41  C    0.000000  -0.000000  -0.000000   0.000000   0.000000   0.005696
    42  H   -0.000000  -0.000000  -0.000000  -0.000000   0.000000  -0.000224
    43  H   -0.000000  -0.000000  -0.000002   0.000000   0.000000  -0.000882
    44  O   -0.000000  -0.000000  -0.000028  -0.000000  -0.000000  -0.000492
    45  H    0.000000  -0.000000   0.000015  -0.000000  -0.000000   0.000078
              25         26         27         28         29         30
     1  C    0.000124  -0.000012   0.000014   0.001055  -0.000061   0.000342
     2  H   -0.000003   0.000005  -0.000000  -0.000071   0.000000   0.000026
     3  O   -0.000000   0.000001  -0.000000  -0.000006  -0.000000  -0.000007
     4  H   -0.000002   0.000005  -0.000000  -0.000040   0.000004  -0.000073
     5  C   -0.000109  -0.000000  -0.000006  -0.000098   0.000011  -0.000024
     6  H   -0.000010   0.000001   0.000000  -0.000019  -0.000002  -0.000004
     7  O   -0.000002   0.000002   0.000000  -0.000016  -0.000000  -0.000005
     8  C   -0.000493   0.000990   0.000099  -0.019415   0.000212  -0.000957
     9  H   -0.000288  -0.003032  -0.000354   0.001082   0.000443   0.000641
    10  O    0.000036   0.000247  -0.000019  -0.004444  -0.003000   0.011077
    11  H    0.000759  -0.002033   0.000381   0.013630   0.001964   0.001922
    12  C    0.002251  -0.000407  -0.000123   0.000828   0.000168  -0.002307
    13  H   -0.000669   0.000047  -0.000003  -0.000110  -0.000018   0.000079
    14  O   -0.040714   0.003278  -0.000110  -0.041951  -0.046430  -0.000532
    15  C    0.001668   0.000246   0.000104  -0.000221  -0.000113   0.000532
    16  H   -0.001461  -0.000243  -0.000148   0.004503   0.000369   0.000012
    17  O    0.000652  -0.000000  -0.000007   0.000003  -0.000021  -0.000006
    18  H   -0.001257  -0.000025  -0.000001   0.000178   0.000208  -0.000052
    19  C    0.000003  -0.000000  -0.000000   0.000003   0.000000   0.000000
    20  H   -0.000002   0.000000   0.000000   0.000001   0.000000   0.000000
    21  H    0.000003   0.000001   0.000000  -0.000029  -0.000000  -0.000000
    22  O   -0.000000   0.000000   0.000000   0.000000  -0.000000  -0.000000
    23  H    0.000000  -0.000000   0.000000   0.000000   0.000000   0.000000
    24  C    0.413698  -0.079223  -0.006463   0.219538   0.213392  -0.029513
    25  H    0.570253  -0.004320   0.008016  -0.037446  -0.090582   0.009653
    26  C   -0.004320   5.362982   0.386914   0.220254  -0.008230   0.003610
    27  H    0.008016   0.386914   0.541295  -0.036450  -0.000330  -0.000236
    28  O   -0.037446   0.220254  -0.036450   8.194515  -0.038206  -0.003561
    29  C   -0.090582  -0.008230  -0.000330  -0.038206   5.345056   0.360131
    30  H    0.009653   0.003610  -0.000236  -0.003561   0.360131   0.577449
    31  O    0.009991   0.000088  -0.000127   0.002012   0.232871  -0.032943
    32  H   -0.000124  -0.000050   0.000036   0.000447  -0.040733  -0.005188
    33  C   -0.001057  -0.029711  -0.011196  -0.006295   0.181656  -0.049636
    34  H    0.007069  -0.000375   0.005125   0.000290  -0.046311   0.010954
    35  O   -0.000206   0.003311  -0.000071  -0.000057  -0.039914   0.008231
    36  H   -0.000080  -0.000845  -0.000063  -0.000037  -0.009864  -0.001783
    37  C   -0.001711   0.129315  -0.057136  -0.034755  -0.053080  -0.003771
    38  H    0.000020  -0.040334   0.010121   0.002154   0.001719   0.005011
    39  O   -0.000106  -0.044543   0.008665   0.001486   0.006331  -0.000136
    40  H   -0.000013   0.010608  -0.000620  -0.000237   0.001622  -0.000028
    41  C    0.000338   0.289363  -0.032240  -0.044639  -0.001473  -0.000029
    42  H    0.000087  -0.051132  -0.006220   0.004524   0.000018   0.000025
    43  H   -0.000029  -0.044822   0.011520  -0.003483  -0.000052  -0.000298
    44  O   -0.000054  -0.060279   0.005552   0.002178   0.000016   0.000014
    45  H   -0.000005   0.011492  -0.000476  -0.000192  -0.000003  -0.000000
              31         32         33         34         35         36
     1  C    0.000000   0.000003   0.000003  -0.000000  -0.000000  -0.000000
     2  H   -0.000000  -0.000002   0.000000   0.000000  -0.000000  -0.000000
     3  O    0.000000   0.000000  -0.000000  -0.000000   0.000000   0.000000
     4  H   -0.000000   0.000000   0.000000   0.000000   0.000000   0.000000
     5  C    0.000000  -0.000003  -0.000000  -0.000000   0.000000   0.000000
     6  H    0.000000  -0.000000  -0.000000   0.000000   0.000000   0.000000
     7  O   -0.000000   0.000000   0.000000   0.000000   0.000000   0.000000
     8  C    0.000004   0.000096  -0.000103  -0.000014   0.000000   0.000001
     9  H   -0.000009  -0.000021  -0.000150  -0.000002   0.000002  -0.000000
    10  O    0.000015  -0.000063   0.000186  -0.000010   0.000000  -0.000002
    11  H   -0.000084   0.000099  -0.001409   0.000052  -0.000224  -0.000007
    12  C    0.000235   0.000042   0.000354   0.000000  -0.000002  -0.000002
    13  H    0.000110  -0.000263   0.000003  -0.000001  -0.000000  -0.000000
    14  O   -0.003485   0.015011   0.005585  -0.000168  -0.000020  -0.000018
    15  C   -0.000023   0.000080   0.000052  -0.000000  -0.000000  -0.000000
    16  H   -0.000005  -0.000014  -0.000053  -0.000007   0.000000  -0.000000
    17  O    0.000000  -0.000003   0.000000  -0.000000  -0.000000   0.000000
    18  H   -0.000033   0.000005  -0.000014  -0.000006   0.000000   0.000000
    19  C   -0.000000   0.000000   0.000000   0.000000  -0.000000  -0.000000
    20  H   -0.000000   0.000000   0.000000   0.000000  -0.000000  -0.000000
    21  H    0.000000   0.000000   0.000000   0.000000  -0.000000   0.000000
    22  O    0.000000  -0.000000  -0.000000   0.000000   0.000000   0.000000
    23  H   -0.000000  -0.000000  -0.000000  -0.000000   0.000000  -0.000000
    24  C   -0.036882  -0.011850  -0.061410  -0.001889   0.005852   0.001555
    25  H    0.009991  -0.000124  -0.001057   0.007069  -0.000206  -0.000080
    26  C    0.000088  -0.000050  -0.029711  -0.000375   0.003311  -0.000845
    27  H   -0.000127   0.000036  -0.011196   0.005125  -0.000071  -0.000063
    28  O    0.002012   0.000447  -0.006295   0.000290  -0.000057  -0.000037
    29  C    0.232871  -0.040733   0.181656  -0.046311  -0.039914  -0.009864
    30  H   -0.032943  -0.005188  -0.049636   0.010954   0.008231  -0.001783
    31  O    7.966155   0.324278  -0.044958   0.002738  -0.002013   0.014146
    32  H    0.324278   0.431951   0.010777  -0.000560  -0.000480  -0.000722
    33  C   -0.044958   0.010777   5.321551   0.377198   0.242307  -0.042675
    34  H    0.002738  -0.000560   0.377198   0.563555  -0.036562  -0.004780
    35  O   -0.002013  -0.000480   0.242307  -0.036562   7.964595   0.326587
    36  H    0.014146  -0.000722  -0.042675  -0.004780   0.326587   0.427724
    37  C    0.004113  -0.000627   0.219408  -0.053741  -0.052020   0.012654
    38  H   -0.000235  -0.000011  -0.058382   0.011688   0.004940  -0.000817
    39  O   -0.000015   0.000007  -0.029599   0.006510  -0.004120  -0.000427
    40  H   -0.000023   0.000006  -0.005123  -0.001530   0.016536  -0.000926
    41  C    0.000008  -0.000002   0.006534  -0.000621  -0.000074   0.000027
    42  H    0.000000  -0.000001   0.000354   0.000006  -0.000009   0.000004
    43  H    0.000000   0.000001  -0.000466  -0.000063   0.000001  -0.000002
    44  O   -0.000000  -0.000000  -0.000124  -0.000004   0.000000  -0.000000
    45  H    0.000000  -0.000000   0.000028   0.000001  -0.000000   0.000000
              37         38         39         40         41         42
     1  C   -0.000002   0.000003   0.000000   0.000000  -0.000003   0.000000
     2  H   -0.000001   0.000000   0.000000  -0.000000  -0.000003  -0.000000
     3  O    0.000000   0.000000  -0.000000   0.000000  -0.000006  -0.000000
     4  H   -0.000001  -0.000003   0.000000  -0.000000   0.000002  -0.000000
     5  C   -0.000000   0.000000   0.000000  -0.000000   0.000001  -0.000000
     6  H    0.000000   0.000000   0.000000  -0.000000  -0.000001  -0.000000
     7  O    0.000000   0.000000   0.000000   0.000000  -0.000006  -0.000000
     8  C   -0.000284   0.000218   0.000001  -0.000000   0.000534  -0.000035
     9  H    0.000635  -0.000251  -0.000002   0.000002  -0.001937   0.000445
    10  O   -0.000089  -0.000173   0.000000   0.000000  -0.000078  -0.000002
    11  H    0.001463   0.002767   0.000004  -0.000010   0.000062  -0.000016
    12  C    0.000044  -0.000104  -0.000000   0.000000  -0.000046   0.000002
    13  H    0.000001  -0.000004  -0.000000   0.000000  -0.000007  -0.000000
    14  O   -0.000683  -0.000087   0.000000   0.000001  -0.000104   0.000005
    15  C   -0.000037  -0.000003  -0.000000  -0.000000   0.000009  -0.000009
    16  H    0.000207  -0.000009  -0.000000   0.000000  -0.000510   0.000060
    17  O   -0.000000  -0.000000   0.000000   0.000000   0.000001   0.000000
    18  H    0.000001   0.000001   0.000000  -0.000000   0.000003  -0.000000
    19  C   -0.000000  -0.000000  -0.000000   0.000000   0.000000  -0.000000
    20  H    0.000000   0.000000  -0.000000   0.000000  -0.000000  -0.000000
    21  H   -0.000000   0.000000   0.000000  -0.000000  -0.000000  -0.000000
    22  O   -0.000000  -0.000000   0.000000  -0.000000   0.000000  -0.000000
    23  H    0.000000  -0.000000  -0.000000   0.000000   0.000000   0.000000
    24  C   -0.001645   0.001069  -0.000287  -0.000346   0.005696  -0.000224
    25  H   -0.001711   0.000020  -0.000106  -0.000013   0.000338   0.000087
    26  C    0.129315  -0.040334  -0.044543   0.010608   0.289363  -0.051132
    27  H   -0.057136   0.010121   0.008665  -0.000620  -0.032240  -0.006220
    28  O   -0.034755   0.002154   0.001486  -0.000237  -0.044639   0.004524
    29  C   -0.053080   0.001719   0.006331   0.001622  -0.001473   0.000018
    30  H   -0.003771   0.005011  -0.000136  -0.000028  -0.000029   0.000025
    31  O    0.004113  -0.000235  -0.000015  -0.000023   0.000008   0.000000
    32  H   -0.000627  -0.000011   0.000007   0.000006  -0.000002  -0.000001
    33  C    0.219408  -0.058382  -0.029599  -0.005123   0.006534   0.000354
    34  H   -0.053741   0.011688   0.006510  -0.001530  -0.000621   0.000006
    35  O   -0.052020   0.004940  -0.004120   0.016536  -0.000074  -0.000009
    36  H    0.012654  -0.000817  -0.000427  -0.000926   0.000027   0.000004
    37  C    5.353232   0.370906   0.220184  -0.046240  -0.039205   0.002676
    38  H    0.370906   0.590149  -0.033778  -0.003798  -0.012730  -0.000213
    39  O    0.220184  -0.033778   7.963324   0.321734  -0.005091   0.014234
    40  H   -0.046240  -0.003798   0.321734   0.433031  -0.000283  -0.000283
    41  C   -0.039205  -0.012730  -0.005091  -0.000283   4.819235   0.407865
    42  H    0.002676  -0.000213   0.014234  -0.000283   0.407865   0.551915
    43  H   -0.004259   0.006112  -0.000162  -0.000118   0.393731  -0.043711
    44  O    0.003649  -0.000076   0.000001   0.000006   0.275762  -0.031444
    45  H   -0.000675  -0.000029   0.000001  -0.000005  -0.036555  -0.003930
              43         44         45
     1  C    0.000111  -0.000012  -0.000002
     2  H   -0.000008  -0.000000   0.000000
     3  O   -0.000032   0.000000   0.000000
     4  H   -0.000008  -0.000002   0.000000
     5  C   -0.000002  -0.000007   0.000001
     6  H   -0.000001  -0.000000   0.000000
     7  O   -0.000018  -0.000001   0.000004
     8  C    0.001058  -0.000976   0.000054
     9  H   -0.004750   0.007186  -0.000140
    10  O    0.000035   0.000002  -0.000001
    11  H    0.001476  -0.000098  -0.000000
    12  C   -0.000050   0.000036  -0.000008
    13  H   -0.000007  -0.000001   0.000000
    14  O    0.000001   0.000000  -0.000001
    15  C    0.000034  -0.000536   0.000024
    16  H   -0.000059   0.004753  -0.000207
    17  O    0.000000   0.000000  -0.000000
    18  H    0.000001  -0.000003   0.000000
    19  C   -0.000000  -0.000000   0.000000
    20  H   -0.000000  -0.000000  -0.000000
    21  H   -0.000002  -0.000028   0.000015
    22  O    0.000000  -0.000000  -0.000000
    23  H    0.000000  -0.000000  -0.000000
    24  C   -0.000882  -0.000492   0.000078
    25  H   -0.000029  -0.000054  -0.000005
    26  C   -0.044822  -0.060279   0.011492
    27  H    0.011520   0.005552  -0.000476
    28  O   -0.003483   0.002178  -0.000192
    29  C   -0.000052   0.000016  -0.000003
    30  H   -0.000298   0.000014  -0.000000
    31  O    0.000000  -0.000000   0.000000
    32  H    0.000001  -0.000000  -0.000000
    33  C   -0.000466  -0.000124   0.000028
    34  H   -0.000063  -0.000004   0.000001
    35  O    0.000001   0.000000  -0.000000
    36  H   -0.000002  -0.000000   0.000000
    37  C   -0.004259   0.003649  -0.000675
    38  H    0.006112  -0.000076  -0.000029
    39  O   -0.000162   0.000001   0.000001
    40  H   -0.000118   0.000006  -0.000005
    41  C    0.393731   0.275762  -0.036555
    42  H   -0.043711  -0.031444  -0.003930
    43  H    0.609142  -0.040101  -0.005237
    44  O   -0.040101   7.935922   0.316266
    45  H   -0.005237   0.316266   0.453090
 Mulliken charges:
               1
     1  C    0.276501
     2  H    0.124920
     3  O   -0.400570
     4  H    0.258570
     5  C   -0.078403
     6  H    0.163250
     7  O   -0.390106
     8  C   -0.078382
     9  H    0.186275
    10  O   -0.428325
    11  H    0.259261
    12  C   -0.014533
    13  H    0.171823
    14  O   -0.442050
    15  C    0.042373
    16  H    0.171238
    17  O   -0.421927
    18  H    0.263073
    19  C   -0.003127
    20  H    0.152632
    21  H    0.125340
    22  O   -0.418830
    23  H    0.259809
    24  C    0.209764
    25  H    0.156121
    26  C   -0.053142
    27  H    0.174555
    28  O   -0.396900
    29  C    0.032235
    30  H    0.141375
    31  O   -0.435931
    32  H    0.277876
    33  C   -0.023633
    34  H    0.161458
    35  O   -0.436591
    36  H    0.280352
    37  C    0.031472
    38  H    0.144158
    39  O   -0.424213
    40  H    0.276038
    41  C   -0.023527
    42  H    0.155013
    43  H    0.125401
    44  O   -0.417104
    45  H    0.266412
 Sum of Mulliken charges =  -0.00000
 Mulliken charges with hydrogens summed into heavy atoms:
               1
     1  C    0.401421
     3  O   -0.142000
     5  C    0.084847
     7  O   -0.390106
     8  C    0.107893
    10  O   -0.169064
    12  C    0.157290
    14  O   -0.442050
    15  C    0.213611
    17  O   -0.158854
    19  C    0.274845
    22  O   -0.159021
    24  C    0.365885
    26  C    0.121413
    28  O   -0.396900
    29  C    0.173611
    31  O   -0.158056
    33  C    0.137825
    35  O   -0.156239
    37  C    0.175629
    39  O   -0.148175
    41  C    0.256886
    44  O   -0.150692
 Electronic spatial extent (au):  <R**2>=           8120.9954
 Charge=             -0.0000 electrons
 Dipole moment (field-independent basis, Debye):
    X=             -5.7564    Y=             -0.1056    Z=              0.8724  Tot=              5.8231
 Quadrupole moment (field-independent basis, Debye-Ang):
   XX=           -160.6048   YY=           -125.3952   ZZ=           -139.4728
   XY=             -0.2833   XZ=              1.9503   YZ=             -0.0083
 Traceless Quadrupole moment (field-independent basis, Debye-Ang):
   XX=            -18.7805   YY=             16.4291   ZZ=              2.3515
   XY=             -0.2833   XZ=              1.9503   YZ=             -0.0083
 Octapole moment (field-independent basis, Debye-Ang**2):
  XXX=           -182.4507  YYY=             34.5355  ZZZ=              6.7197  XYY=             -7.2612
  XXY=            -22.9357  XXZ=             28.6255  XZZ=            -17.8718  YZZ=             -3.4318
  YYZ=              4.6056  XYZ=            -17.4259
 Hexadecapole moment (field-independent basis, Debye-Ang**3):
 XXXX=          -7670.5790 YYYY=          -1428.5026 ZZZZ=          -1226.0838 XXXY=             86.0529
 XXXZ=            182.0328 YYYX=             59.1984 YYYZ=            -42.8007 ZZZX=             -4.1687
 ZZZY=             31.8700 XXYY=          -1450.7063 XXZZ=          -1448.1539 YYZZ=           -520.4728
 XXYZ=            -16.0338 YYXZ=            -26.6821 ZZXY=             -2.2174
 N-N= 2.352272886392D+03 E-N=-7.752269403576D+03  KE= 1.294085271526D+03
 No NMR shielding tensors so no spin-rotation constants.
 Leave Link  601 at Fri Apr 14 17:33:46 2023, MaxMem=   524288000 cpu:              15.3 elap:               3.1
 (Enter /dragofs/sw/campus/0.2/software/gaussian/16.gaussian/gaussian/g16_legacy/l9999.exe)
 1\1\GINC-DRAGO31050144\FOpt\RM062X\6-311G(d,p)\C12H22O11\JRAMOS\14-Apr
 -2023\0\\#p opt=modredundant m062x/6-311g(d,p)\\Conformer number 00004
 . Energy MM = 183.707 kcal/mol\\0,1\C,0.2622793269,1.3238400297,-0.717
 6720827\H,-0.7544988306,1.0443222017,-0.3896920804\O,0.2188501418,2.12
 38307854,-1.8497506602\H,0.0903028504,1.5219776385,-2.5916646198\C,0.9
 528181589,1.4121200465,1.5380624739\H,-0.0646403571,1.1827828507,1.887
 3308064\O,0.8885745795,2.0816465872,0.2837727145\C,1.114129228,0.07779
 97101,-0.9660658728\H,2.1172969647,0.454032604,-1.1665264566\O,0.60023
 23873,-0.6135517327,-2.0881789647\H,1.3474227558,-1.0534701044,-2.5030
 736784\C,1.0881736418,-0.7402915246,0.3200713521\H,0.0408744108,-0.910
 3537188,0.5927598908\O,1.6076923357,-2.0758470916,0.3175924474\C,1.725
 8545225,0.096802879,1.4232243794\H,2.7738422856,0.3008543555,1.1564048
 744\O,1.632462324,-0.5514144172,2.6712956746\H,1.8613056846,-1.4745089
 209,2.5239408662\C,1.5966006745,2.3934157538,2.4967282793\H,1.63767864
 31,1.9505978797,3.4916486285\H,2.6218920523,2.5895572068,2.1539615106\
 O,0.8425143173,3.5792143955,2.577312933\H,0.7071089173,3.8717601799,1.
 6700129324\C,2.7659460751,-2.4767486423,-0.3628315706\H,3.470769827,-2
 .8762330166,0.3839496063\C,4.5974870894,-1.7468958835,-1.6561248502\H,
 5.2934277526,-2.1223105929,-0.8936718404\O,3.3565755786,-1.4069961067,
 -1.0451982771\C,2.4057835352,-3.5822784384,-1.3482098945\H,1.687181864
 2,-3.1776380442,-2.0747322318\O,1.8761827135,-4.7106960577,-0.69375833
 71\H,1.089774569,-4.4246322045,-0.2174676834\C,3.6684618772,-4.0220356
 918,-2.0617843692\H,4.3525791529,-4.4571231204,-1.3178775827\O,3.40552
 35411,-4.9533179661,-3.0887541853\H,2.9178667458,-5.6844854383,-2.6956
 639008\C,4.3581936986,-2.8309013866,-2.7046612446\H,3.6904820267,-2.42
 97071878,-3.4839175545\O,5.5997372447,-3.2009037531,-3.2521769213\H,5.
 4471196955,-3.9968064977,-3.7732091844\C,5.1605104666,-0.4805665494,-2
 .2542049107\H,6.072753935,-0.7421043697,-2.8003556626\H,4.4246946166,-
 0.0749418675,-2.9626617293\O,5.4048224401,0.4141051223,-1.1908892427\H
 ,5.73495854,1.2387000991,-1.5527937811\\Version=EM64L-G16RevA.03\State
 =1-A\HF=-1297.8090763\RMSD=4.681e-09\RMSF=5.508e-04\Dipole=0.7212842,-
 1.6874357,-1.3714864\Quadrupole=4.3496671,-2.9045276,-1.4451395,8.6040
 706,0.4503618,-9.3165954\PG=C01 [X(C12H22O11)]\\@


 If your ship doesn't come in, swim out to it!
                          -- Jonathan Winters
 Job cpu time:       0 days  9 hours 19 minutes 14.5 seconds.
 Elapsed time:       0 days  1 hours 41 minutes  8.2 seconds.
 File lengths (MBytes):  RWF=    189 Int=      0 D2E=      0 Chk=     24 Scr=      1
 Normal termination of Gaussian 16 at Fri Apr 14 17:33:46 2023.
