 Entering Gaussian System, Link 0=g16
 Input=dimer_13b_00009_gaussian.com
 Output=dimer_13b_00009_gaussian.log
 Initial command:
 /dragofs/sw/campus/0.2/software/gaussian/16.gaussian/gaussian/g16_legacy/l1.exe "/lustre/scratch-global/iem/jramos/Gau-1252364.inp" -scrdir="/lustre/scratch-global/iem/jramos/"
 Entering Link 1 = /dragofs/sw/campus/0.2/software/gaussian/16.gaussian/gaussian/g16_legacy/l1.exe PID=   1252365.
  
 Copyright (c) 1988,1990,1992,1993,1995,1998,2003,2009,2016,
            Gaussian, Inc.  All Rights Reserved.
  
 This is part of the Gaussian(R) 16 program.  It is based on
 the Gaussian(R) 09 system (copyright 2009, Gaussian, Inc.),
 the Gaussian(R) 03 system (copyright 2003, Gaussian, Inc.),
 the Gaussian(R) 98 system (copyright 1998, Gaussian, Inc.),
 the Gaussian(R) 94 system (copyright 1995, Gaussian, Inc.),
 the Gaussian 92(TM) system (copyright 1992, Gaussian, Inc.),
 the Gaussian 90(TM) system (copyright 1990, Gaussian, Inc.),
 the Gaussian 88(TM) system (copyright 1988, Gaussian, Inc.),
 the Gaussian 86(TM) system (copyright 1986, Carnegie Mellon
 University), and the Gaussian 82(TM) system (copyright 1983,
 Carnegie Mellon University). Gaussian is a federally registered
 trademark of Gaussian, Inc.
  
 This software contains proprietary and confidential information,
 including trade secrets, belonging to Gaussian, Inc.
  
 This software is provided under written license and may be
 used, copied, transmitted, or stored only in accord with that
 written license.
  
 The following legend is applicable only to US Government
 contracts under FAR:
  
                    RESTRICTED RIGHTS LEGEND
  
 Use, reproduction and disclosure by the US Government is
 subject to restrictions as set forth in subparagraphs (a)
 and (c) of the Commercial Computer Software - Restricted
 Rights clause in FAR 52.227-19.
  
 Gaussian, Inc.
 340 Quinnipiac St., Bldg. 40, Wallingford CT 06492
  
  
 ---------------------------------------------------------------
 Warning -- This program may not be used in any manner that
 competes with the business of Gaussian, Inc. or will provide
 assistance to any competitor of Gaussian, Inc.  The licensee
 of this program is prohibited from giving any competitor of
 Gaussian, Inc. access to this program.  By using this program,
 the user acknowledges that Gaussian, Inc. is engaged in the
 business of creating and licensing software in the field of
 computational chemistry and represents and warrants to the
 licensee that it is not a competitor of Gaussian, Inc. and that
 it will not use this program in any manner prohibited above.
 ---------------------------------------------------------------
  

 Cite this work as:
 Gaussian 16, Revision A.03,
 M. J. Frisch, G. W. Trucks, H. B. Schlegel, G. E. Scuseria, 
 M. A. Robb, J. R. Cheeseman, G. Scalmani, V. Barone, 
 G. A. Petersson, H. Nakatsuji, X. Li, M. Caricato, A. V. Marenich, 
 J. Bloino, B. G. Janesko, R. Gomperts, B. Mennucci, H. P. Hratchian, 
 J. V. Ortiz, A. F. Izmaylov, J. L. Sonnenberg, D. Williams-Young, 
 F. Ding, F. Lipparini, F. Egidi, J. Goings, B. Peng, A. Petrone, 
 T. Henderson, D. Ranasinghe, V. G. Zakrzewski, J. Gao, N. Rega, 
 G. Zheng, W. Liang, M. Hada, M. Ehara, K. Toyota, R. Fukuda, 
 J. Hasegawa, M. Ishida, T. Nakajima, Y. Honda, O. Kitao, H. Nakai, 
 T. Vreven, K. Throssell, J. A. Montgomery, Jr., J. E. Peralta, 
 F. Ogliaro, M. J. Bearpark, J. J. Heyd, E. N. Brothers, K. N. Kudin, 
 V. N. Staroverov, T. A. Keith, R. Kobayashi, J. Normand, 
 K. Raghavachari, A. P. Rendell, J. C. Burant, S. S. Iyengar, 
 J. Tomasi, M. Cossi, J. M. Millam, M. Klene, C. Adamo, R. Cammi, 
 J. W. Ochterski, R. L. Martin, K. Morokuma, O. Farkas, 
 J. B. Foresman, and D. J. Fox, Gaussian, Inc., Wallingford CT, 2016.
 
 ******************************************
 Gaussian 16:  EM64L-G16RevA.03 25-Dec-2016
                14-Apr-2023 
 ******************************************
 %chk=dimer_13b_00009_gaussian.chk
 %nproc=8
 Will use up to    8 processors via shared memory.
 %mem=4000Mb
 -------------------------------------
 #p opt=modredundant m062x/6-311g(d,p)
 -------------------------------------
 1/18=120,19=15,26=3,38=1/1,3;
 2/9=110,12=2,17=6,18=5,40=1/2;
 3/5=4,6=6,7=101,11=2,25=1,30=1,71=1,74=-55/1,2,3;
 4//1;
 5/5=2,38=5/2;
 6/7=2,8=2,9=2,10=2,28=1/1;
 7//1,2,3,16;
 1/18=20,19=15,26=3/3(2);
 2/9=110/2;
 99//99;
 2/9=110/2;
 3/5=4,6=6,7=101,11=2,25=1,30=1,71=1,74=-55/1,2,3;
 4/5=5,16=3,69=1/1;
 5/5=2,38=5/2;
 7//1,2,3,16;
 1/18=20,19=15,26=3/3(-5);
 2/9=110/2;
 6/7=2,8=2,9=2,10=2,19=2,28=1/1;
 99/9=1/99;
 Leave Link    1 at Fri Apr 14 15:53:05 2023, MaxMem=   524288000 cpu:               0.2 elap:               0.0
 (Enter /dragofs/sw/campus/0.2/software/gaussian/16.gaussian/gaussian/g16_legacy/l101.exe)
 ----------------------------------------------------
 Conformer number 00009. Energy MM = 194.799 kcal/mol
 ----------------------------------------------------
 Symbolic Z-matrix:
 Charge =  0 Multiplicity = 1
 C                    -0.0095    1.1309   -0.4282 
 H                    -0.8937    1.1295    0.223 
 O                    -0.3699    1.7696   -1.6454 
 H                    -1.335     1.8613   -1.6323 
 C                     1.4448    1.3681    1.4395 
 H                     0.5781    1.308     2.1104 
 O                     1.0174    1.9083    0.1804 
 C                     0.4468   -0.3045   -0.7365 
 H                     1.1414   -0.2896   -1.5846 
 O                    -0.6744   -1.1028   -1.1516 
 H                    -0.3267   -2.0063   -1.277 
 C                     1.0984   -0.9125    0.4653 
 H                     0.2823   -1.104     1.1791 
 O                     1.4918   -2.2561    0.1373 
 C                     2.0876   -0.0139    1.2379 
 H                     3.0386    0.1269    0.7185 
 O                     2.3856   -0.6332    2.4952 
 H                     3.1495   -0.1795    2.888 
 C                     2.4427    2.366     2.038 
 H                     2.8031    2.0447    3.0185 
 H                     3.3054    2.5134    1.3774 
 O                     1.8081    3.6353    2.2015 
 H                     1.4183    3.8478    1.3288 
 C                     2.8235   -2.4997   -0.4237 
 H                     3.3217   -3.1361    0.3176 
 C                     4.6257   -1.3913   -1.6231 
 H                     5.4797   -0.8493   -1.1949 
 O                     3.6134   -1.3249   -0.5904 
 C                     2.5858   -3.2794   -1.7187 
 H                     2.0486   -2.6502   -2.4369 
 O                     1.731    -4.4156   -1.5115 
 H                     1.0883   -4.1447   -0.8247 
 C                     3.9095   -3.7544   -2.3107 
 H                     4.1393   -4.7654   -1.9501 
 O                     3.7575   -3.8691   -3.7336 
 H                     3.0607   -4.5424   -3.8646 
 C                     5.0798   -2.8169   -1.983 
 H                     5.7848   -2.794    -2.824 
 O                     5.7742   -3.3561   -0.8468 
 H                     6.7126   -3.1108   -0.9324 
 C                     4.1445   -0.6045   -2.8544 
 H                     4.9019   -0.6124   -3.6429 
 H                     3.2136   -1.0013   -3.2664 
 O                     3.9026    0.7556   -2.5039 
 H                     3.506     0.7592   -1.6157 
 
 The following ModRedundant input section has been read:
 D      12      14      24      28 F                                           
 D       8      12      14      24 F                                           
 
 ITRead=  0  0  0  0  0  0  0  0  0  0  0  0  0  0  0  0  0  0  0  0
 ITRead=  0  0  0  0  0  0  0  0  0  0  0  0  0  0  0  0  0  0  0  0
 ITRead=  0  0  0  0  0
 MicOpt= -1 -1 -1 -1 -1 -1 -1 -1 -1 -1 -1 -1 -1 -1 -1 -1 -1 -1 -1 -1
 MicOpt= -1 -1 -1 -1 -1 -1 -1 -1 -1 -1 -1 -1 -1 -1 -1 -1 -1 -1 -1 -1
 MicOpt= -1 -1 -1 -1 -1
 NAtoms=     45 NQM=       45 NQMF=       0 NMMI=      0 NMMIF=      0
                NMic=       0 NMicF=      0.
                    Isotopes and Nuclear Properties:
 (Nuclear quadrupole moments (NQMom) in fm**2, nuclear magnetic moments (NMagM)
  in nuclear magnetons)

  Atom         1           2           3           4           5           6           7           8           9          10
 IAtWgt=          12           1          16           1          12           1          16          12           1          16
 AtmWgt=  12.0000000   1.0078250  15.9949146   1.0078250  12.0000000   1.0078250  15.9949146  12.0000000   1.0078250  15.9949146
 NucSpn=           0           1           0           1           0           1           0           0           1           0
 AtZEff=  -0.0000000  -0.0000000  -0.0000000  -0.0000000  -0.0000000  -0.0000000  -0.0000000  -0.0000000  -0.0000000  -0.0000000
 NQMom=    0.0000000   0.0000000   0.0000000   0.0000000   0.0000000   0.0000000   0.0000000   0.0000000   0.0000000   0.0000000
 NMagM=    0.0000000   2.7928460   0.0000000   2.7928460   0.0000000   2.7928460   0.0000000   0.0000000   2.7928460   0.0000000
 AtZNuc=   6.0000000   1.0000000   8.0000000   1.0000000   6.0000000   1.0000000   8.0000000   6.0000000   1.0000000   8.0000000

  Atom        11          12          13          14          15          16          17          18          19          20
 IAtWgt=           1          12           1          16          12           1          16           1          12           1
 AtmWgt=   1.0078250  12.0000000   1.0078250  15.9949146  12.0000000   1.0078250  15.9949146   1.0078250  12.0000000   1.0078250
 NucSpn=           1           0           1           0           0           1           0           1           0           1
 AtZEff=  -0.0000000  -0.0000000  -0.0000000  -0.0000000  -0.0000000  -0.0000000  -0.0000000  -0.0000000  -0.0000000  -0.0000000
 NQMom=    0.0000000   0.0000000   0.0000000   0.0000000   0.0000000   0.0000000   0.0000000   0.0000000   0.0000000   0.0000000
 NMagM=    2.7928460   0.0000000   2.7928460   0.0000000   0.0000000   2.7928460   0.0000000   2.7928460   0.0000000   2.7928460
 AtZNuc=   1.0000000   6.0000000   1.0000000   8.0000000   6.0000000   1.0000000   8.0000000   1.0000000   6.0000000   1.0000000

  Atom        21          22          23          24          25          26          27          28          29          30
 IAtWgt=           1          16           1          12           1          12           1          16          12           1
 AtmWgt=   1.0078250  15.9949146   1.0078250  12.0000000   1.0078250  12.0000000   1.0078250  15.9949146  12.0000000   1.0078250
 NucSpn=           1           0           1           0           1           0           1           0           0           1
 AtZEff=  -0.0000000  -0.0000000  -0.0000000  -0.0000000  -0.0000000  -0.0000000  -0.0000000  -0.0000000  -0.0000000  -0.0000000
 NQMom=    0.0000000   0.0000000   0.0000000   0.0000000   0.0000000   0.0000000   0.0000000   0.0000000   0.0000000   0.0000000
 NMagM=    2.7928460   0.0000000   2.7928460   0.0000000   2.7928460   0.0000000   2.7928460   0.0000000   0.0000000   2.7928460
 AtZNuc=   1.0000000   8.0000000   1.0000000   6.0000000   1.0000000   6.0000000   1.0000000   8.0000000   6.0000000   1.0000000

  Atom        31          32          33          34          35          36          37          38          39          40
 IAtWgt=          16           1          12           1          16           1          12           1          16           1
 AtmWgt=  15.9949146   1.0078250  12.0000000   1.0078250  15.9949146   1.0078250  12.0000000   1.0078250  15.9949146   1.0078250
 NucSpn=           0           1           0           1           0           1           0           1           0           1
 AtZEff=  -0.0000000  -0.0000000  -0.0000000  -0.0000000  -0.0000000  -0.0000000  -0.0000000  -0.0000000  -0.0000000  -0.0000000
 NQMom=    0.0000000   0.0000000   0.0000000   0.0000000   0.0000000   0.0000000   0.0000000   0.0000000   0.0000000   0.0000000
 NMagM=    0.0000000   2.7928460   0.0000000   2.7928460   0.0000000   2.7928460   0.0000000   2.7928460   0.0000000   2.7928460
 AtZNuc=   8.0000000   1.0000000   6.0000000   1.0000000   8.0000000   1.0000000   6.0000000   1.0000000   8.0000000   1.0000000

  Atom        41          42          43          44          45
 IAtWgt=          12           1           1          16           1
 AtmWgt=  12.0000000   1.0078250   1.0078250  15.9949146   1.0078250
 NucSpn=           0           1           1           0           1
 AtZEff=  -0.0000000  -0.0000000  -0.0000000  -0.0000000  -0.0000000
 NQMom=    0.0000000   0.0000000   0.0000000   0.0000000   0.0000000
 NMagM=    0.0000000   2.7928460   2.7928460   0.0000000   2.7928460
 AtZNuc=   6.0000000   1.0000000   1.0000000   8.0000000   1.0000000
 Leave Link  101 at Fri Apr 14 15:53:05 2023, MaxMem=   524288000 cpu:               1.1 elap:               0.2
 (Enter /dragofs/sw/campus/0.2/software/gaussian/16.gaussian/gaussian/g16_legacy/l103.exe)

 GradGradGradGradGradGradGradGradGradGradGradGradGradGradGradGradGradGrad
 Berny optimization.
 Initialization pass.
                           ----------------------------
                           !    Initial Parameters    !
                           ! (Angstroms and Degrees)  !
 --------------------------                            --------------------------
 ! Name  Definition              Value          Derivative Info.                !
 --------------------------------------------------------------------------------
 ! R1    R(1,2)                  1.0981         estimate D2E/DX2                !
 ! R2    R(1,3)                  1.4211         estimate D2E/DX2                !
 ! R3    R(1,7)                  1.4245         estimate D2E/DX2                !
 ! R4    R(1,8)                  1.5374         estimate D2E/DX2                !
 ! R5    R(3,4)                  0.9695         estimate D2E/DX2                !
 ! R6    R(5,6)                  1.0977         estimate D2E/DX2                !
 ! R7    R(5,7)                  1.4352         estimate D2E/DX2                !
 ! R8    R(5,15)                 1.5375         estimate D2E/DX2                !
 ! R9    R(5,19)                 1.5329         estimate D2E/DX2                !
 ! R10   R(8,9)                  1.0963         estimate D2E/DX2                !
 ! R11   R(8,10)                 1.4376         estimate D2E/DX2                !
 ! R12   R(8,12)                 1.4962         estimate D2E/DX2                !
 ! R13   R(10,11)                0.9762         estimate D2E/DX2                !
 ! R14   R(12,13)                1.101          estimate D2E/DX2                !
 ! R15   R(12,14)                1.4379         estimate D2E/DX2                !
 ! R16   R(12,15)                1.5437         estimate D2E/DX2                !
 ! R17   R(14,24)                1.4654         estimate D2E/DX2                !
 ! R18   R(15,16)                1.0927         estimate D2E/DX2                !
 ! R19   R(15,17)                1.4329         estimate D2E/DX2                !
 ! R20   R(17,18)                0.9714         estimate D2E/DX2                !
 ! R21   R(19,20)                1.0929         estimate D2E/DX2                !
 ! R22   R(19,21)                1.0965         estimate D2E/DX2                !
 ! R23   R(19,22)                1.4285         estimate D2E/DX2                !
 ! R24   R(22,23)                0.9791         estimate D2E/DX2                !
 ! R25   R(24,25)                1.0967         estimate D2E/DX2                !
 ! R26   R(24,28)                1.4254         estimate D2E/DX2                !
 ! R27   R(24,29)                1.5302         estimate D2E/DX2                !
 ! R28   R(26,27)                1.0984         estimate D2E/DX2                !
 ! R29   R(26,28)                1.4476         estimate D2E/DX2                !
 ! R30   R(26,37)                1.5389         estimate D2E/DX2                !
 ! R31   R(26,41)                1.5384         estimate D2E/DX2                !
 ! R32   R(29,30)                1.0956         estimate D2E/DX2                !
 ! R33   R(29,31)                1.4369         estimate D2E/DX2                !
 ! R34   R(29,33)                1.5259         estimate D2E/DX2                !
 ! R35   R(31,32)                0.9788         estimate D2E/DX2                !
 ! R36   R(33,34)                1.0977         estimate D2E/DX2                !
 ! R37   R(33,35)                1.4356         estimate D2E/DX2                !
 ! R38   R(33,37)                1.5349         estimate D2E/DX2                !
 ! R39   R(35,36)                0.9778         estimate D2E/DX2                !
 ! R40   R(37,38)                1.0976         estimate D2E/DX2                !
 ! R41   R(37,39)                1.4366         estimate D2E/DX2                !
 ! R42   R(39,40)                0.9737         estimate D2E/DX2                !
 ! R43   R(41,42)                1.0934         estimate D2E/DX2                !
 ! R44   R(41,43)                1.0926         estimate D2E/DX2                !
 ! R45   R(41,44)                1.4252         estimate D2E/DX2                !
 ! R46   R(44,45)                0.9727         estimate D2E/DX2                !
 ! A1    A(2,1,3)              107.7165         estimate D2E/DX2                !
 ! A2    A(2,1,7)              109.1343         estimate D2E/DX2                !
 ! A3    A(2,1,8)              110.8981         estimate D2E/DX2                !
 ! A4    A(3,1,7)              107.6672         estimate D2E/DX2                !
 ! A5    A(3,1,8)              108.8529         estimate D2E/DX2                !
 ! A6    A(7,1,8)              112.4103         estimate D2E/DX2                !
 ! A7    A(1,3,4)              106.4627         estimate D2E/DX2                !
 ! A8    A(6,5,7)              108.7645         estimate D2E/DX2                !
 ! A9    A(6,5,15)             111.1645         estimate D2E/DX2                !
 ! A10   A(6,5,19)             108.1202         estimate D2E/DX2                !
 ! A11   A(7,5,15)             110.3532         estimate D2E/DX2                !
 ! A12   A(7,5,19)             106.9395         estimate D2E/DX2                !
 ! A13   A(15,5,19)            111.3575         estimate D2E/DX2                !
 ! A14   A(1,7,5)              112.5863         estimate D2E/DX2                !
 ! A15   A(1,8,9)              109.2977         estimate D2E/DX2                !
 ! A16   A(1,8,10)             110.1747         estimate D2E/DX2                !
 ! A17   A(1,8,12)             110.3397         estimate D2E/DX2                !
 ! A18   A(9,8,10)             106.159          estimate D2E/DX2                !
 ! A19   A(9,8,12)             110.5466         estimate D2E/DX2                !
 ! A20   A(10,8,12)            110.2389         estimate D2E/DX2                !
 ! A21   A(8,10,11)            105.8582         estimate D2E/DX2                !
 ! A22   A(8,12,13)            105.5825         estimate D2E/DX2                !
 ! A23   A(8,12,14)            108.3992         estimate D2E/DX2                !
 ! A24   A(8,12,15)            116.3942         estimate D2E/DX2                !
 ! A25   A(13,12,14)           100.8453         estimate D2E/DX2                !
 ! A26   A(13,12,15)           104.5817         estimate D2E/DX2                !
 ! A27   A(14,12,15)           118.8674         estimate D2E/DX2                !
 ! A28   A(12,14,24)           119.4244         estimate D2E/DX2                !
 ! A29   A(5,15,12)            108.7216         estimate D2E/DX2                !
 ! A30   A(5,15,16)            108.082          estimate D2E/DX2                !
 ! A31   A(5,15,17)            111.1248         estimate D2E/DX2                !
 ! A32   A(12,15,16)           113.2545         estimate D2E/DX2                !
 ! A33   A(12,15,17)           108.7139         estimate D2E/DX2                !
 ! A34   A(16,15,17)           106.9645         estimate D2E/DX2                !
 ! A35   A(15,17,18)           108.4507         estimate D2E/DX2                !
 ! A36   A(5,19,20)            111.9352         estimate D2E/DX2                !
 ! A37   A(5,19,21)            111.3743         estimate D2E/DX2                !
 ! A38   A(5,19,22)            109.5075         estimate D2E/DX2                !
 ! A39   A(20,19,21)           108.6964         estimate D2E/DX2                !
 ! A40   A(20,19,22)           107.7599         estimate D2E/DX2                !
 ! A41   A(21,19,22)           107.399          estimate D2E/DX2                !
 ! A42   A(19,22,23)           105.5266         estimate D2E/DX2                !
 ! A43   A(14,24,25)           104.508          estimate D2E/DX2                !
 ! A44   A(14,24,28)           114.2892         estimate D2E/DX2                !
 ! A45   A(14,24,29)           105.5169         estimate D2E/DX2                !
 ! A46   A(25,24,28)           107.7925         estimate D2E/DX2                !
 ! A47   A(25,24,29)           110.2999         estimate D2E/DX2                !
 ! A48   A(28,24,29)           114.0203         estimate D2E/DX2                !
 ! A49   A(27,26,28)           104.0612         estimate D2E/DX2                !
 ! A50   A(27,26,37)           108.5951         estimate D2E/DX2                !
 ! A51   A(27,26,41)           107.6288         estimate D2E/DX2                !
 ! A52   A(28,26,37)           114.5624         estimate D2E/DX2                !
 ! A53   A(28,26,41)           109.1945         estimate D2E/DX2                !
 ! A54   A(37,26,41)           112.2663         estimate D2E/DX2                !
 ! A55   A(24,28,26)           115.6661         estimate D2E/DX2                !
 ! A56   A(24,29,30)           109.7747         estimate D2E/DX2                !
 ! A57   A(24,29,31)           111.9192         estimate D2E/DX2                !
 ! A58   A(24,29,33)           110.6224         estimate D2E/DX2                !
 ! A59   A(30,29,31)           104.89           estimate D2E/DX2                !
 ! A60   A(30,29,33)           110.476          estimate D2E/DX2                !
 ! A61   A(31,29,33)           109.0186         estimate D2E/DX2                !
 ! A62   A(29,31,32)           105.8396         estimate D2E/DX2                !
 ! A63   A(29,33,34)           109.9297         estimate D2E/DX2                !
 ! A64   A(29,33,35)           108.5159         estimate D2E/DX2                !
 ! A65   A(29,33,37)           112.8594         estimate D2E/DX2                !
 ! A66   A(34,33,35)           105.9131         estimate D2E/DX2                !
 ! A67   A(34,33,37)           109.4383         estimate D2E/DX2                !
 ! A68   A(35,33,37)           109.9466         estimate D2E/DX2                !
 ! A69   A(33,35,36)           105.2641         estimate D2E/DX2                !
 ! A70   A(26,37,33)           113.0029         estimate D2E/DX2                !
 ! A71   A(26,37,38)           110.4503         estimate D2E/DX2                !
 ! A72   A(26,37,39)           107.7803         estimate D2E/DX2                !
 ! A73   A(33,37,38)           109.8086         estimate D2E/DX2                !
 ! A74   A(33,37,39)           107.9478         estimate D2E/DX2                !
 ! A75   A(38,37,39)           107.6584         estimate D2E/DX2                !
 ! A76   A(37,39,40)           107.5628         estimate D2E/DX2                !
 ! A77   A(26,41,42)           110.9056         estimate D2E/DX2                !
 ! A78   A(26,41,43)           112.4928         estimate D2E/DX2                !
 ! A79   A(26,41,44)           110.1407         estimate D2E/DX2                !
 ! A80   A(42,41,43)           108.3995         estimate D2E/DX2                !
 ! A81   A(42,41,44)           107.5673         estimate D2E/DX2                !
 ! A82   A(43,41,44)           107.1398         estimate D2E/DX2                !
 ! A83   A(41,44,45)           107.2949         estimate D2E/DX2                !
 ! D1    D(2,1,3,4)            -11.3559         estimate D2E/DX2                !
 ! D2    D(7,1,3,4)           -128.9294         estimate D2E/DX2                !
 ! D3    D(8,1,3,4)            108.9606         estimate D2E/DX2                !
 ! D4    D(2,1,7,5)             62.1992         estimate D2E/DX2                !
 ! D5    D(3,1,7,5)            178.8501         estimate D2E/DX2                !
 ! D6    D(8,1,7,5)            -61.2698         estimate D2E/DX2                !
 ! D7    D(2,1,8,9)            164.8324         estimate D2E/DX2                !
 ! D8    D(2,1,8,10)            48.5497         estimate D2E/DX2                !
 ! D9    D(2,1,8,12)           -73.4057         estimate D2E/DX2                !
 ! D10   D(3,1,8,9)             46.5005         estimate D2E/DX2                !
 ! D11   D(3,1,8,10)           -69.7822         estimate D2E/DX2                !
 ! D12   D(3,1,8,12)           168.2624         estimate D2E/DX2                !
 ! D13   D(7,1,8,9)            -72.689          estimate D2E/DX2                !
 ! D14   D(7,1,8,10)           171.0283         estimate D2E/DX2                !
 ! D15   D(7,1,8,12)            49.0729         estimate D2E/DX2                !
 ! D16   D(6,5,7,1)            -58.1375         estimate D2E/DX2                !
 ! D17   D(15,5,7,1)            64.053          estimate D2E/DX2                !
 ! D18   D(19,5,7,1)          -174.6789         estimate D2E/DX2                !
 ! D19   D(6,5,15,12)           66.8076         estimate D2E/DX2                !
 ! D20   D(6,5,15,16)         -169.8815         estimate D2E/DX2                !
 ! D21   D(6,5,15,17)          -52.8037         estimate D2E/DX2                !
 ! D22   D(7,5,15,12)          -53.9589         estimate D2E/DX2                !
 ! D23   D(7,5,15,16)           69.352          estimate D2E/DX2                !
 ! D24   D(7,5,15,17)         -173.5702         estimate D2E/DX2                !
 ! D25   D(19,5,15,12)        -172.5621         estimate D2E/DX2                !
 ! D26   D(19,5,15,16)         -49.2512         estimate D2E/DX2                !
 ! D27   D(19,5,15,17)          67.8265         estimate D2E/DX2                !
 ! D28   D(6,5,19,20)           61.5317         estimate D2E/DX2                !
 ! D29   D(6,5,19,21)         -176.5501         estimate D2E/DX2                !
 ! D30   D(6,5,19,22)          -57.9093         estimate D2E/DX2                !
 ! D31   D(7,5,19,20)          178.4992         estimate D2E/DX2                !
 ! D32   D(7,5,19,21)          -59.5826         estimate D2E/DX2                !
 ! D33   D(7,5,19,22)           59.0582         estimate D2E/DX2                !
 ! D34   D(15,5,19,20)         -60.8708         estimate D2E/DX2                !
 ! D35   D(15,5,19,21)          61.0473         estimate D2E/DX2                !
 ! D36   D(15,5,19,22)         179.6882         estimate D2E/DX2                !
 ! D37   D(1,8,10,11)         -176.6349         estimate D2E/DX2                !
 ! D38   D(9,8,10,11)           65.1345         estimate D2E/DX2                !
 ! D39   D(12,8,10,11)         -54.6198         estimate D2E/DX2                !
 ! D40   D(1,8,12,13)           71.8743         estimate D2E/DX2                !
 ! D41   D(1,8,12,14)          179.2493         estimate D2E/DX2                !
 ! D42   D(1,8,12,15)          -43.6049         estimate D2E/DX2                !
 ! D43   D(9,8,12,13)         -167.1056         estimate D2E/DX2                !
 ! D44   D(9,8,12,14)          -59.7306         estimate D2E/DX2                !
 ! D45   D(9,8,12,15)           77.4152         estimate D2E/DX2                !
 ! D46   D(10,8,12,13)         -50.0432         estimate D2E/DX2                !
 ! D47   D(10,8,12,14)          57.3319         estimate D2E/DX2                !
 ! D48   D(10,8,12,15)        -165.5224         estimate D2E/DX2                !
 ! D49   D(8,12,14,24)          90.0521         Frozen                          !
 ! D50   D(13,12,14,24)       -159.3399         estimate D2E/DX2                !
 ! D51   D(15,12,14,24)        -45.8663         estimate D2E/DX2                !
 ! D52   D(8,12,15,5)           46.4303         estimate D2E/DX2                !
 ! D53   D(8,12,15,16)         -73.724          estimate D2E/DX2                !
 ! D54   D(8,12,15,17)         167.5334         estimate D2E/DX2                !
 ! D55   D(13,12,15,5)         -69.6078         estimate D2E/DX2                !
 ! D56   D(13,12,15,16)        170.2379         estimate D2E/DX2                !
 ! D57   D(13,12,15,17)         51.4953         estimate D2E/DX2                !
 ! D58   D(14,12,15,5)         178.9589         estimate D2E/DX2                !
 ! D59   D(14,12,15,16)         58.8047         estimate D2E/DX2                !
 ! D60   D(14,12,15,17)        -59.938          estimate D2E/DX2                !
 ! D61   D(12,14,24,25)        117.4917         estimate D2E/DX2                !
 ! D62   D(12,14,24,28)         -0.0935         Frozen                          !
 ! D63   D(12,14,24,29)       -126.1641         estimate D2E/DX2                !
 ! D64   D(5,15,17,18)         -73.039          estimate D2E/DX2                !
 ! D65   D(12,15,17,18)        167.3451         estimate D2E/DX2                !
 ! D66   D(16,15,17,18)         44.719          estimate D2E/DX2                !
 ! D67   D(5,19,22,23)         -52.3102         estimate D2E/DX2                !
 ! D68   D(20,19,22,23)       -174.2892         estimate D2E/DX2                !
 ! D69   D(21,19,22,23)         68.7679         estimate D2E/DX2                !
 ! D70   D(14,24,28,26)       -153.9399         estimate D2E/DX2                !
 ! D71   D(25,24,28,26)         90.3716         estimate D2E/DX2                !
 ! D72   D(29,24,28,26)        -32.4433         estimate D2E/DX2                !
 ! D73   D(14,24,29,30)         65.1807         estimate D2E/DX2                !
 ! D74   D(14,24,29,31)        -50.8602         estimate D2E/DX2                !
 ! D75   D(14,24,29,33)       -172.6459         estimate D2E/DX2                !
 ! D76   D(25,24,29,30)        177.5089         estimate D2E/DX2                !
 ! D77   D(25,24,29,31)         61.4681         estimate D2E/DX2                !
 ! D78   D(25,24,29,33)        -60.3177         estimate D2E/DX2                !
 ! D79   D(28,24,29,30)        -61.055          estimate D2E/DX2                !
 ! D80   D(28,24,29,31)       -177.0958         estimate D2E/DX2                !
 ! D81   D(28,24,29,33)         61.1184         estimate D2E/DX2                !
 ! D82   D(27,26,28,24)       -141.76           estimate D2E/DX2                !
 ! D83   D(37,26,28,24)        -23.3416         estimate D2E/DX2                !
 ! D84   D(41,26,28,24)        103.5458         estimate D2E/DX2                !
 ! D85   D(27,26,37,33)        167.8356         estimate D2E/DX2                !
 ! D86   D(27,26,37,38)        -68.7134         estimate D2E/DX2                !
 ! D87   D(27,26,37,39)         48.6458         estimate D2E/DX2                !
 ! D88   D(28,26,37,33)         52.0113         estimate D2E/DX2                !
 ! D89   D(28,26,37,38)        175.4623         estimate D2E/DX2                !
 ! D90   D(28,26,37,39)        -67.1784         estimate D2E/DX2                !
 ! D91   D(41,26,37,33)        -73.2809         estimate D2E/DX2                !
 ! D92   D(41,26,37,38)         50.1701         estimate D2E/DX2                !
 ! D93   D(41,26,37,39)        167.5293         estimate D2E/DX2                !
 ! D94   D(27,26,41,42)         66.0115         estimate D2E/DX2                !
 ! D95   D(27,26,41,43)       -172.3965         estimate D2E/DX2                !
 ! D96   D(27,26,41,44)        -52.9505         estimate D2E/DX2                !
 ! D97   D(28,26,41,42)        178.38           estimate D2E/DX2                !
 ! D98   D(28,26,41,43)        -60.0281         estimate D2E/DX2                !
 ! D99   D(28,26,41,44)         59.418          estimate D2E/DX2                !
 ! D100  D(37,26,41,42)        -53.4383         estimate D2E/DX2                !
 ! D101  D(37,26,41,43)         68.1536         estimate D2E/DX2                !
 ! D102  D(37,26,41,44)       -172.4003         estimate D2E/DX2                !
 ! D103  D(24,29,31,32)         34.5911         estimate D2E/DX2                !
 ! D104  D(30,29,31,32)        -84.3786         estimate D2E/DX2                !
 ! D105  D(33,29,31,32)        157.2933         estimate D2E/DX2                !
 ! D106  D(24,29,33,34)         92.5215         estimate D2E/DX2                !
 ! D107  D(24,29,33,35)       -152.0746         estimate D2E/DX2                !
 ! D108  D(24,29,33,37)        -29.9596         estimate D2E/DX2                !
 ! D109  D(30,29,33,34)       -145.7169         estimate D2E/DX2                !
 ! D110  D(30,29,33,35)        -30.313          estimate D2E/DX2                !
 ! D111  D(30,29,33,37)         91.802          estimate D2E/DX2                !
 ! D112  D(31,29,33,34)        -30.9554         estimate D2E/DX2                !
 ! D113  D(31,29,33,35)         84.4484         estimate D2E/DX2                !
 ! D114  D(31,29,33,37)       -153.4365         estimate D2E/DX2                !
 ! D115  D(29,33,35,36)        -61.572          estimate D2E/DX2                !
 ! D116  D(34,33,35,36)         56.4157         estimate D2E/DX2                !
 ! D117  D(37,33,35,36)        174.5543         estimate D2E/DX2                !
 ! D118  D(29,33,37,26)        -21.9106         estimate D2E/DX2                !
 ! D119  D(29,33,37,38)       -145.7153         estimate D2E/DX2                !
 ! D120  D(29,33,37,39)         97.1824         estimate D2E/DX2                !
 ! D121  D(34,33,37,26)       -144.6663         estimate D2E/DX2                !
 ! D122  D(34,33,37,38)         91.529          estimate D2E/DX2                !
 ! D123  D(34,33,37,39)        -25.5734         estimate D2E/DX2                !
 ! D124  D(35,33,37,26)         99.3967         estimate D2E/DX2                !
 ! D125  D(35,33,37,38)        -24.408          estimate D2E/DX2                !
 ! D126  D(35,33,37,39)       -141.5104         estimate D2E/DX2                !
 ! D127  D(26,37,39,40)        -88.7012         estimate D2E/DX2                !
 ! D128  D(33,37,39,40)        148.9383         estimate D2E/DX2                !
 ! D129  D(38,37,39,40)         30.4524         estimate D2E/DX2                !
 ! D130  D(26,41,44,45)        -38.2705         estimate D2E/DX2                !
 ! D131  D(42,41,44,45)       -159.2528         estimate D2E/DX2                !
 ! D132  D(43,41,44,45)         84.3811         estimate D2E/DX2                !
 --------------------------------------------------------------------------------
 Trust Radius=3.00D-01 FncErr=1.00D-07 GrdErr=1.00D-06 EigMax=2.50D+02 EigMin=1.00D-04
 Number of steps in this run=    270 maximum allowed number of steps=    270.
 GradGradGradGradGradGradGradGradGradGradGradGradGradGradGradGradGradGrad

 Leave Link  103 at Fri Apr 14 15:53:05 2023, MaxMem=   524288000 cpu:               0.1 elap:               0.0
 (Enter /dragofs/sw/campus/0.2/software/gaussian/16.gaussian/gaussian/g16_legacy/l202.exe)
                          Input orientation:                          
 ---------------------------------------------------------------------
 Center     Atomic      Atomic             Coordinates (Angstroms)
 Number     Number       Type             X           Y           Z
 ---------------------------------------------------------------------
      1          6           0       -0.009500    1.130900   -0.428200
      2          1           0       -0.893700    1.129500    0.223000
      3          8           0       -0.369900    1.769600   -1.645400
      4          1           0       -1.335000    1.861300   -1.632300
      5          6           0        1.444800    1.368100    1.439500
      6          1           0        0.578100    1.308000    2.110400
      7          8           0        1.017400    1.908300    0.180400
      8          6           0        0.446800   -0.304500   -0.736500
      9          1           0        1.141400   -0.289600   -1.584600
     10          8           0       -0.674400   -1.102800   -1.151600
     11          1           0       -0.326700   -2.006300   -1.277000
     12          6           0        1.098400   -0.912500    0.465300
     13          1           0        0.282300   -1.104000    1.179100
     14          8           0        1.491800   -2.256100    0.137300
     15          6           0        2.087600   -0.013900    1.237900
     16          1           0        3.038600    0.126900    0.718500
     17          8           0        2.385600   -0.633200    2.495200
     18          1           0        3.149500   -0.179500    2.888000
     19          6           0        2.442700    2.366000    2.038000
     20          1           0        2.803100    2.044700    3.018500
     21          1           0        3.305400    2.513400    1.377400
     22          8           0        1.808100    3.635300    2.201500
     23          1           0        1.418300    3.847800    1.328800
     24          6           0        2.823500   -2.499700   -0.423700
     25          1           0        3.321700   -3.136100    0.317600
     26          6           0        4.625700   -1.391300   -1.623100
     27          1           0        5.479700   -0.849300   -1.194900
     28          8           0        3.613400   -1.324900   -0.590400
     29          6           0        2.585800   -3.279400   -1.718700
     30          1           0        2.048600   -2.650200   -2.436900
     31          8           0        1.731000   -4.415600   -1.511500
     32          1           0        1.088300   -4.144700   -0.824700
     33          6           0        3.909500   -3.754400   -2.310700
     34          1           0        4.139300   -4.765400   -1.950100
     35          8           0        3.757500   -3.869100   -3.733600
     36          1           0        3.060700   -4.542400   -3.864600
     37          6           0        5.079800   -2.816900   -1.983000
     38          1           0        5.784800   -2.794000   -2.824000
     39          8           0        5.774200   -3.356100   -0.846800
     40          1           0        6.712600   -3.110800   -0.932400
     41          6           0        4.144500   -0.604500   -2.854400
     42          1           0        4.901900   -0.612400   -3.642900
     43          1           0        3.213600   -1.001300   -3.266400
     44          8           0        3.902600    0.755600   -2.503900
     45          1           0        3.506000    0.759200   -1.615700
 ---------------------------------------------------------------------
                    Distance matrix (angstroms):
                    1          2          3          4          5
     1  C    0.000000
     2  H    1.098123   0.000000
     3  O    1.421057   2.043285   0.000000
     4  H    1.933983   2.042649   0.969535   0.000000
     5  C    2.378982   2.646769   3.601520   4.172109   0.000000
     6  H    2.611729   2.400070   3.901001   4.239563   1.097674
     7  O    1.424524   2.064134   2.297256   2.970164   1.435207
     8  C    1.537411   2.184934   2.407278   2.944140   2.920372
     9  H    2.163250   3.069673   2.555001   3.280427   3.461965
    10  O    2.440249   2.630738   2.930399   3.074631   4.160547
    11  H    3.265440   3.522035   3.794075   4.012635   4.680188
    12  C    2.490235   2.863029   3.715457   4.244447   2.504036
    13  H    2.768274   2.699190   4.081757   4.394614   2.744174
    14  O    3.747727   4.142492   4.780189   5.298610   3.851332
    15  C    2.912780   3.350453   4.187314   4.844442   1.537452
    16  H    3.407910   4.088240   4.461430   5.259542   2.144905
    17  O    4.170710   4.361630   5.523658   6.091112   2.450471
    18  H    4.763781   5.016291   6.061096   6.686458   2.720151
    19  C    3.690650   3.994336   4.672670   5.291204   1.532909
    20  H    4.541529   4.724272   5.647617   6.227957   2.189979
    21  H    4.019958   4.569492   4.816471   5.569276   2.185727
    22  O    4.060913   4.182490   4.798246   5.265375   2.419262
    23  H    3.536553   3.735946   4.045051   4.504992   2.482311
    24  C    4.605124   5.235159   5.469669   6.145906   4.509125
    25  H    5.464467   5.997824   6.445710   7.103589   5.006918
    26  C    5.410578   6.342420   5.911667   6.790393   5.206912
    27  H    5.885604   6.822486   6.424905   7.347027   5.304465
    28  O    4.379802   5.196119   5.153216   5.976963   4.009435
    29  C    5.277473   5.942686   5.850977   6.465828   5.733704
    30  H    4.750512   5.478899   5.100024   5.696469   5.615851
    31  O    5.913251   6.375396   6.533637   6.986732   6.499346
    32  H    5.403178   5.730897   6.146449   6.526610   5.970315
    33  C    6.539765   7.303619   7.019292   7.713695   6.810195
    34  H    7.368519   8.050050   7.945562   8.601285   7.507965
    35  O    7.079263   7.891410   7.293212   7.948994   7.716075
    36  H    7.308988   8.032198   7.518990   8.081628   8.104235
    37  C    6.625972   7.491543   7.130862   7.947214   6.514672
    38  H    7.397203   8.323486   7.752153   8.589733   7.371303
    39  O    7.332093   8.107155   8.041177   8.853191   6.803597
    40  H    7.964475   8.784697   8.630671   9.485542   7.310005
    41  C    5.114076   6.153097   5.241931   6.131771   5.442160
    42  H    6.123336   7.181113   6.120115   7.004329   6.457918
    43  H    4.794792   5.795355   4.811133   5.617341   5.557716
    44  O    4.444537   5.529944   4.474313   5.423533   4.686826
    45  H    3.729217   4.782813   4.005545   4.964895   3.735445
                    6          7          8          9         10
     6  H    0.000000
     7  O    2.068392   0.000000
     8  C    3.274482   2.462270   0.000000
     9  H    4.064807   2.821589   1.096342   0.000000
    10  O    4.245157   3.701775   1.437595   2.036151   0.000000
    11  H    4.824700   4.388019   1.945910   2.279692   0.976183
    12  C    2.812061   2.836308   1.496185   2.142882   2.406948
    13  H    2.602415   3.257564   2.082255   3.006549   2.519412
    14  O    4.175019   4.191556   2.379978   2.637203   2.771964
    15  C    2.187982   2.441001   2.583588   2.989617   3.811044
    16  H    3.063730   2.747396   3.003424   3.012824   4.335413
    17  O    2.680184   3.699931   3.782972   4.279119   4.783647
    18  H    3.070735   4.029374   4.522965   4.903951   5.638534
    19  C    2.145073   2.385717   4.337400   4.676411   5.649994
    20  H    2.513563   3.355911   5.017062   5.422060   6.276105
    21  H    3.070577   2.652150   4.536599   4.616617   5.942352
    22  O    2.633918   2.773550   5.099706   5.493986   6.313135
    23  H    2.787009   2.289368   4.738235   5.067805   5.919478
    24  C    5.095298   4.801812   3.250454   3.010264   3.836205
    25  H    5.521911   5.547485   4.170628   4.058896   4.718228
    26  C    6.132561   5.211507   4.407993   3.654528   5.328846
    27  H    6.293221   5.422908   5.083013   4.391580   6.159471
    28  O    4.841439   4.217455   3.330153   2.858507   4.330070
    29  C    6.303737   5.742708   3.793424   3.323128   3.960820
    30  H    6.205454   5.356637   3.310503   2.668681   3.385435
    31  O    6.870730   6.585094   4.376178   4.168555   4.109759
    32  H    6.213457   6.136291   3.894411   3.929639   3.530882
    33  C    7.501483   6.829055   5.135193   4.493822   5.420944
    34  H    8.127484   7.669652   5.916672   5.399424   6.101143
    35  O    8.429904   7.497059   5.713993   4.926967   5.827596
    36  H    8.723022   7.883440   5.880245   5.193113   5.756925
    37  C    7.350920   6.596280   5.415774   4.696484   6.061368
    38  H    8.263439   7.339356   6.248961   5.419345   6.883193
    39  O    7.582764   7.169114   6.140490   5.604517   6.837741
    40  H    8.149633   7.672352   6.868329   6.278758   7.658190
    41  C    6.405162   5.030202   4.271825   3.275693   5.135137
    42  H    7.448734   6.005072   5.328215   4.299088   6.127168
    43  H    6.417843   5.016921   3.813280   2.762061   4.427101
    44  O    5.713949   4.105918   4.023688   3.092213   5.121650
    45  H    4.770493   3.277123   3.356062   2.586944   4.599802
                   11         12         13         14         15
    11  H    0.000000
    12  C    2.502582   0.000000
    13  H    2.686532   1.101000   0.000000
    14  O    2.317237   1.437918   1.968647   0.000000
    15  C    4.015373   1.543668   2.109712   2.567832   0.000000
    16  H    4.456210   2.215590   3.053597   2.899840   1.092704
    17  O    4.844736   2.419791   2.525400   2.998729   1.432878
    18  H    5.724368   3.257879   3.463506   3.824472   1.969235
    19  C    6.146203   3.876737   4.176833   5.087306   2.535780
    20  H    6.682632   4.262612   4.433073   5.340197   2.814305
    21  H    6.376965   4.176071   4.718478   5.251202   2.808869
    22  O    6.963116   4.919405   5.082748   6.250565   3.784614
    23  H    6.641213   4.848549   5.082640   6.219539   3.920326
    24  C    3.300807   2.507089   3.312800   1.465431   3.079231
    25  H    4.138843   3.147900   3.756270   2.038490   3.481104
    26  C    5.002427   4.127046   5.176871   3.697055   4.065034
    27  H    5.921121   4.685728   5.719590   4.433643   4.257082
    28  O    4.057107   2.758587   3.778380   2.428553   2.718358
    29  C    3.209134   3.547454   4.293684   2.385103   4.433190
    30  H    2.720666   3.513580   4.311149   2.663052   4.522804
    31  O    3.177081   4.071809   4.506080   2.727489   5.202050
    32  H    2.603758   3.480132   3.729706   2.157560   4.724027
    33  C    4.697848   4.866709   5.688577   3.752716   5.468384
    34  H    5.292528   5.470472   6.170429   4.202747   6.078616
    35  O    5.117186   5.782997   6.622493   4.766449   6.508990
    36  H    4.960036   5.981206   6.706788   4.868657   6.891280
    37  C    5.512327   5.047025   5.995741   4.205224   5.213853
    38  H    6.353276   6.026764   7.011306   5.242946   6.156076
    39  O    6.263227   5.436533   6.271937   4.529614   5.395118
    40  H    7.133752   6.189130   7.059351   5.397363   5.974246
    41  C    4.944175   4.515971   5.606711   4.326069   4.618069
    42  H    5.905819   5.606601   6.695824   5.349808   5.665748
    43  H    4.183475   4.290401   5.325931   4.015506   4.746741
    44  O    5.198111   4.411603   5.489005   4.675279   4.229352
    45  H    4.738386   3.594674   4.655606   4.027660   3.279112
                   16         17         18         19         20
    16  H    0.000000
    17  O    2.039810   0.000000
    18  H    2.193835   0.971431   0.000000
    19  C    2.666411   3.034385   2.775182   0.000000
    20  H    3.003900   2.760308   2.254792   1.092933   0.000000
    21  H    2.490123   3.463611   3.091590   1.096527   1.779099
    22  O    4.002785   4.317390   4.101626   1.428486   2.046344
    23  H    4.104014   4.730277   4.652666   1.935999   2.832654
    24  C    2.872267   3.492214   4.056718   5.466261   5.700941
    25  H    3.299702   3.447134   3.921491   5.831425   5.865535
    26  C    3.210437   4.749017   4.898740   5.682116   6.055776
    27  H    3.251620   4.820476   4.748530   5.478427   5.769936
    28  O    2.037483   3.392178   3.691397   4.679932   5.003494
    29  C    4.212820   4.979900   5.581113   6.782611   7.129819
    30  H    4.318441   5.339239   5.972512   6.733670   7.236902
    31  O    5.226569   5.548756   6.269951   7.687364   7.962774
    32  H    4.942844   5.003534   5.809948   7.240074   7.484611
    33  C    4.999901   5.929657   6.354840   7.649967   7.953242
    34  H    5.680455   6.317534   6.739243   8.345074   8.535214
    35  O    6.025448   7.152000   7.604499   8.597473   9.026337
    36  H    6.542756   7.495643   8.039925   9.107612   9.530651
    37  C    4.486709   5.664056   5.865883   7.070020   7.337133
    38  H    5.350007   6.672144   6.812295   7.838002   8.150973
    39  O    4.697335   5.483225   5.561346   7.222423   7.275756
    40  H    5.167828   6.050609   5.990297   7.553189   7.581094
    41  C    3.810981   5.631410   5.843441   5.971229   6.580925
    42  H    4.800027   6.633888   6.775763   6.869582   7.472576
    43  H    4.145225   5.832419   6.209356   6.330060   6.996184
    44  O    3.394941   5.405650   5.523962   5.035231   5.776468
    45  H    2.463078   4.482585   4.614278   4.130610   4.860287
                   21         22         23         24         25
    21  H    0.000000
    22  O    2.044433   0.000000
    23  H    2.311738   0.979135   0.000000
    24  C    5.348585   6.749884   6.733246   0.000000
    25  H    5.748069   7.189709   7.308920   1.096692   0.000000
    26  C    5.098321   6.916151   6.815372   2.432085   2.917372
    27  H    4.759418   6.717724   6.702744   3.220864   3.489137
    28  O    4.324309   5.971382   5.937897   1.425442   2.046949
    29  C    6.607586   7.986605   7.838832   1.530182   2.169931
    30  H    6.541498   7.815376   7.536695   2.162428   3.073134
    31  O    7.670432   8.866189   8.743504   2.459174   2.740995
    32  H    7.354935   8.378807   8.284112   2.424406   2.703738
    33  C    7.297420   8.909742   8.788941   2.512854   2.763289
    34  H    8.046650   9.656192   9.609487   3.032264   2.909562
    35  O    8.189202   9.764302   9.521045   3.701763   4.139980
    36  H    8.793336  10.258721  10.003216   4.008576   4.420022
    37  C    6.546211   8.357329   8.294144   2.760964   2.912999
    38  H    7.208861   9.077758   8.968031   3.823264   4.006687
    39  O    6.744855   8.596613   8.695014   3.101462   2.723781
    40  H    6.969635   8.909844   9.031321   3.969549   3.614048
    41  C    5.322924   6.999771   6.689866   3.353375   4.140964
    42  H    6.125590   7.859489   7.533037   4.271405   4.954963
    43  H    5.824639   7.305575   6.917567   3.237024   4.173022
    44  O    4.302441   5.900881   5.515708   4.011068   4.841863
    45  H    3.475069   5.072064   4.750581   3.536538   4.352583
                   26         27         28         29         30
    26  C    0.000000
    27  H    1.098378   0.000000
    28  O    1.447629   2.018586   0.000000
    29  C    2.781232   3.815024   2.479736   0.000000
    30  H    2.981366   4.069183   2.759453   1.095576   0.000000
    31  O    4.187855   5.183771   3.734204   1.436860   2.018384
    32  H    4.553224   5.502827   3.792400   1.946917   2.398936
    33  C    2.563197   3.485706   2.991584   1.525867   2.167518
    34  H    3.424626   4.207474   3.736629   2.162199   3.013648
    35  O    3.368601   4.304668   4.046409   2.404256   2.467283
    36  H    4.171688   5.159249   4.623653   2.534874   2.577420
    37  C    1.538854   2.156959   2.513111   2.550254   3.069526
    38  H    2.180193   2.555173   3.444155   3.419196   3.758951
    39  O    2.404607   2.547931   2.976671   3.306356   4.111789
    40  H    2.790860   2.589079   3.593250   4.204423   4.922252
    41  C    1.538411   2.143974   2.434490   3.297643   2.958377
    42  H    2.182330   2.526396   3.389048   4.022406   3.707882
    43  H    2.201491   3.073992   2.724983   2.824756   2.182697
    44  O    2.430609   2.603158   2.841408   4.316448   3.878309
    45  H    2.424548   2.580666   2.325134   4.143388   3.797683
                   31         32         33         34         35
    31  O    0.000000
    32  H    0.978848   0.000000
    33  C    2.412834   3.212429   0.000000
    34  H    2.472780   3.310649   1.097707   0.000000
    35  O    3.056647   3.957560   1.435585   2.032239   0.000000
    36  H    2.705783   3.645479   1.938043   2.208714   0.977765
    37  C    3.740670   4.363116   1.534893   2.163856   2.433147
    38  H    4.559116   5.280029   2.168547   2.712525   2.468432
    39  O    4.232237   4.751846   2.403904   2.424107   3.558632
    40  H    5.182104   5.719554   3.189248   3.224172   4.141782
    41  C    4.706681   5.098339   3.205106   4.258036   3.402995
    42  H    5.390900   5.912947   3.554121   4.549125   3.453111
    43  H    4.115243   4.512179   2.996197   4.093655   2.956075
    44  O    5.695789   5.895162   4.514142   5.553752   4.787595
    45  H    5.471749   5.524418   4.584585   5.570826   5.096068
                   36         37         38         39         40
    36  H    0.000000
    37  C    3.254925   0.000000
    38  H    3.400069   1.097648   0.000000
    39  O    4.228180   1.436620   2.055575   0.000000
    40  H    4.897310   1.963714   2.130569   0.973701   0.000000
    41  C    4.207396   2.555159   2.735949   3.775935   4.070720
    42  H    4.345580   2.765273   2.491884   4.013349   4.107000
    43  H    3.594525   2.902795   3.165527   4.237478   4.705374
    44  O    5.534357   3.797353   4.030484   4.811958   5.031378
    45  H    5.776055   3.924315   4.390689   4.761474   5.072089
                   41         42         43         44         45
    41  C    0.000000
    42  H    1.093366   0.000000
    43  H    1.092597   1.772950   0.000000
    44  O    1.425215   2.041408   2.035393   0.000000
    45  H    1.949805   2.817688   2.430981   0.972730   0.000000
 Stoichiometry    C12H22O11
 Framework group  C1[X(C12H22O11)]
 Deg. of freedom   129
 Full point group                 C1      NOp   1
 Largest Abelian subgroup         C1      NOp   1
 Largest concise Abelian subgroup C1      NOp   1
                         Standard orientation:                         
 ---------------------------------------------------------------------
 Center     Atomic      Atomic             Coordinates (Angstroms)
 Number     Number       Type             X           Y           Z
 ---------------------------------------------------------------------
      1          6           0       -2.649804    1.502735    0.651436
      2          1           0       -3.338301    2.061565    0.003705
      3          8           0       -2.729636    2.064667    1.954226
      4          1           0       -3.226935    2.892308    1.866466
      5          6           0       -3.070903   -0.516046   -0.534631
      6          1           0       -3.715817    0.037386   -1.229388
      7          8           0       -3.084588    0.148896    0.737173
      8          6           0       -1.202656    1.622725    0.146462
      9          1           0       -0.515203    1.297803    0.936271
     10          8           0       -0.883286    2.998674   -0.120831
     11          1           0        0.021899    2.996276   -0.486299
     12          6           0       -1.012330    0.798092   -1.087364
     13          1           0       -1.554144    1.329692   -1.884885
     14          8           0        0.345984    0.954248   -1.532569
     15          6           0       -1.633394   -0.615030   -1.070848
     16          1           0       -1.084592   -1.320148   -0.441859
     17          8           0       -1.614415   -1.141146   -2.403508
     18          1           0       -1.813995   -2.090945   -2.361950
     19          6           0       -3.683238   -1.904728   -0.319185
     20          1           0       -3.737010   -2.476008   -1.249373
     21          1           0       -3.112039   -2.483631    0.416324
     22          8           0       -5.012675   -1.766860    0.184960
     23          1           0       -4.938374   -1.175566    0.961849
     24          6           0        1.375864    0.036823   -1.037428
     25          1           0        1.736297   -0.481421   -1.934225
     26          6           0        1.868936   -1.468952    0.807717
     27          1           0        1.624159   -2.537070    0.882831
     28          8           0        0.894236   -0.949726   -0.128229
     29          6           0        2.477029    0.929812   -0.461696
     30          1           0        2.094346    1.476755    0.407035
     31          8           0        2.881756    1.948671   -1.390506
     32          1           0        2.072406    2.200795   -1.879923
     33          6           0        3.695919    0.097756   -0.074064
     34          1           0        4.405390    0.061042   -0.910883
     35          8           0        4.382598    0.765742    0.995128
     36          1           0        4.658065    1.627890    0.625204
     37          6           0        3.331690   -1.331750    0.349899
     38          1           0        4.014205   -1.670749    1.139889
     39          8           0        3.518387   -2.191486   -0.785828
     40          1           0        3.778662   -3.068039   -0.451157
     41          6           0        1.629107   -0.837679    2.189992
     42          1           0        2.333630   -1.232769    2.926878
     43          1           0        1.721097    0.250921    2.174005
     44          8           0        0.313619   -1.141369    2.646614
     45          1           0       -0.276917   -1.101124    1.874700
 ---------------------------------------------------------------------
 Rotational constants (GHZ):           0.3959718           0.1688428           0.1580492
 Leave Link  202 at Fri Apr 14 15:53:05 2023, MaxMem=   524288000 cpu:               0.0 elap:               0.0
 (Enter /dragofs/sw/campus/0.2/software/gaussian/16.gaussian/gaussian/g16_legacy/l301.exe)
 Standard basis: 6-311G(d,p) (5D, 7F)
 Ernie: Thresh=  0.10000D-02 Tol=  0.10000D-05 Strict=F.
 There are   569 symmetry adapted cartesian basis functions of A   symmetry.
 There are   546 symmetry adapted basis functions of A   symmetry.
   546 basis functions,   912 primitive gaussians,   569 cartesian basis functions
    91 alpha electrons       91 beta electrons
       nuclear repulsion energy      2371.2515328404 Hartrees.
 IExCor= 4336 DFT=T Ex+Corr=M062X ExCW=0 ScaHFX=  0.540000
 ScaDFX=  1.000000  1.000000  1.000000  1.000000 ScalE2=  1.000000  1.000000
 IRadAn=      5 IRanWt=     -1 IRanGd=            0 ICorTp=0 IEmpDi=  4
 NAtoms=   45 NActive=   45 NUniq=   45 SFac= 1.00D+00 NAtFMM=   60 NAOKFM=F Big=F
 Integral buffers will be    131072 words long.
 Raffenetti 2 integral format.
 Two-electron integral symmetry is turned on.
 Leave Link  301 at Fri Apr 14 15:53:05 2023, MaxMem=   524288000 cpu:               0.4 elap:               0.1
 (Enter /dragofs/sw/campus/0.2/software/gaussian/16.gaussian/gaussian/g16_legacy/l302.exe)
 NPDir=0 NMtPBC=     1 NCelOv=     1 NCel=       1 NClECP=     1 NCelD=      1
         NCelK=      1 NCelE2=     1 NClLst=     1 CellRange=     0.0.
 One-electron integrals computed using PRISM.
 One-electron integral symmetry used in STVInt
 NBasis=   546 RedAO= T EigKep=  4.71D-04  NBF=   546
 NBsUse=   546 1.00D-06 EigRej= -1.00D+00 NBFU=   546
 Precomputing XC quadrature grid using
 IXCGrd= 4 IRadAn=           5 IRanWt=          -1 IRanGd=           0 AccXCQ= 0.00D+00.
 Generated NRdTot=       0 NPtTot=           0 NUsed=           0 NTot=          32
 NSgBfM=   563   563   563   563   563 MxSgAt=    45 MxSgA2=    45.
 Leave Link  302 at Fri Apr 14 15:53:06 2023, MaxMem=   524288000 cpu:               6.3 elap:               0.8
 (Enter /dragofs/sw/campus/0.2/software/gaussian/16.gaussian/gaussian/g16_legacy/l303.exe)
 DipDrv:  MaxL=1.
 Leave Link  303 at Fri Apr 14 15:53:06 2023, MaxMem=   524288000 cpu:               0.5 elap:               0.1
 (Enter /dragofs/sw/campus/0.2/software/gaussian/16.gaussian/gaussian/g16_legacy/l401.exe)
 ExpMin= 1.03D-01 ExpMax= 8.59D+03 ExpMxC= 1.30D+03 IAcc=3 IRadAn=         5 AccDes= 0.00D+00
 Harris functional with IExCor= 1009 and IRadAn=       5 diagonalized for initial guess.
 HarFok:  IExCor= 1009 AccDes= 0.00D+00 IRadAn=         5 IDoV= 1 UseB2=F ITyADJ=14
 ICtDFT=  3500011 ScaDFX=  1.000000  1.000000  1.000000  1.000000
 FoFCou: FMM=F IPFlag=           0 FMFlag=      100000 FMFlg1=           0
         NFxFlg=           0 DoJE=T BraDBF=F KetDBF=T FulRan=T
         wScrn=  0.000000 ICntrl=       500 IOpCl=  0 I1Cent=   200000004 NGrid=           0
         NMat0=    1 NMatS0=      1 NMatT0=    0 NMatD0=    1 NMtDS0=    0 NMtDT0=    0
 Petite list used in FoFCou.
 Harris En= -1297.07576222332    
 JPrj=0 DoOrth=F DoCkMO=F.
 Leave Link  401 at Fri Apr 14 15:53:11 2023, MaxMem=   524288000 cpu:              39.8 elap:               5.0
 (Enter /dragofs/sw/campus/0.2/software/gaussian/16.gaussian/gaussian/g16_legacy/l502.exe)
 Integral symmetry usage will be decided dynamically.
 Closed shell SCF:
 Using DIIS extrapolation, IDIIS=  1040.
 NGot=   524288000 LenX=   523630196 LenY=   523305866
 Requested convergence on RMS density matrix=1.00D-08 within 128 cycles.
 Requested convergence on MAX density matrix=1.00D-06.
 Requested convergence on             energy=1.00D-06.
 No special actions if energy rises.
 Fock matrices will be formed incrementally for  20 cycles.
 Integral accuracy reduced to 1.0D-05 until final iterations.

 Cycle   1  Pass 0  IDiag  1:
 FoFJK:  IHMeth= 1 ICntrl=       0 DoSepK=F KAlg= 0 I1Cent=           0 FoldK=F
 IRaf= 770000000 NMat=       1 IRICut=       1 DoRegI=T DoRafI=F ISym2E= 0 IDoP0=0 IntGTp=1.
 FoFCou: FMM=F IPFlag=           0 FMFlag=      100000 FMFlg1=           0
         NFxFlg=           0 DoJE=F BraDBF=F KetDBF=F FulRan=T
         wScrn=  0.000000 ICntrl=         0 IOpCl=  0 I1Cent=           0 NGrid=           0
         NMat0=    1 NMatS0=      1 NMatT0=    0 NMatD0=    1 NMtDS0=    0 NMtDT0=    0
 Symmetry not used in FoFCou.
 E= -1297.27584475206    
 DIIS: error= 1.79D-02 at cycle   1 NSaved=   1.
 NSaved= 1 IEnMin= 1 EnMin= -1297.27584475206     IErMin= 1 ErrMin= 1.79D-02
 ErrMax= 1.79D-02  0.00D+00 EMaxC= 1.00D-01 BMatC= 8.51D-01 BMatP= 8.51D-01
 IDIUse=3 WtCom= 8.21D-01 WtEn= 1.79D-01
 Coeff-Com:  0.100D+01
 Coeff-En:   0.100D+01
 Coeff:      0.100D+01
 Gap=     0.397 Goal=   None    Shift=    0.000
 GapD=    0.397 DampG=1.000 DampE=0.500 DampFc=0.5000 IDamp=-1.
 Damping current iteration by 5.00D-01
 RMSDP=2.55D-03 MaxDP=2.04D-01              OVMax= 1.04D-01

 Cycle   2  Pass 0  IDiag  1:
 RMSU=  1.27D-03    CP:  1.01D+00
 E= -1297.51431077008     Delta-E=       -0.238466018017 Rises=F Damp=T
 DIIS: error= 6.20D-03 at cycle   2 NSaved=   2.
 NSaved= 2 IEnMin= 2 EnMin= -1297.51431077008     IErMin= 2 ErrMin= 6.20D-03
 ErrMax= 6.20D-03  0.00D+00 EMaxC= 1.00D-01 BMatC= 7.03D-02 BMatP= 8.51D-01
 IDIUse=3 WtCom= 9.38D-01 WtEn= 6.20D-02
 Coeff-Com: -0.746D-01 0.107D+01
 Coeff-En:   0.000D+00 0.100D+01
 Coeff:     -0.700D-01 0.107D+01
 Gap=     0.395 Goal=   None    Shift=    0.000
 RMSDP=4.68D-04 MaxDP=1.58D-02 DE=-2.38D-01 OVMax= 5.63D-02

 Cycle   3  Pass 0  IDiag  1:
 RMSU=  4.61D-04    CP:  1.01D+00  9.34D-01
 E= -1297.75092388459     Delta-E=       -0.236613114509 Rises=F Damp=F
 DIIS: error= 3.68D-03 at cycle   3 NSaved=   3.
 NSaved= 3 IEnMin= 3 EnMin= -1297.75092388459     IErMin= 3 ErrMin= 3.68D-03
 ErrMax= 3.68D-03  0.00D+00 EMaxC= 1.00D-01 BMatC= 2.10D-02 BMatP= 7.03D-02
 IDIUse=3 WtCom= 9.63D-01 WtEn= 3.68D-02
 Coeff-Com: -0.108D+00 0.361D+00 0.747D+00
 Coeff-En:   0.000D+00 0.000D+00 0.100D+01
 Coeff:     -0.104D+00 0.348D+00 0.756D+00
 Gap=     0.378 Goal=   None    Shift=    0.000
 RMSDP=2.56D-04 MaxDP=1.32D-02 DE=-2.37D-01 OVMax= 1.34D-02

 Cycle   4  Pass 0  IDiag  1:
 RMSU=  1.89D-04    CP:  1.01D+00  1.03D+00  7.38D-01
 E= -1297.76315651937     Delta-E=       -0.012232634786 Rises=F Damp=F
 DIIS: error= 1.30D-03 at cycle   4 NSaved=   4.
 NSaved= 4 IEnMin= 4 EnMin= -1297.76315651937     IErMin= 4 ErrMin= 1.30D-03
 ErrMax= 1.30D-03  0.00D+00 EMaxC= 1.00D-01 BMatC= 3.01D-03 BMatP= 2.10D-02
 IDIUse=3 WtCom= 9.87D-01 WtEn= 1.30D-02
 Coeff-Com: -0.402D-01 0.967D-01 0.359D+00 0.585D+00
 Coeff-En:   0.000D+00 0.000D+00 0.864D-01 0.914D+00
 Coeff:     -0.397D-01 0.955D-01 0.355D+00 0.589D+00
 Gap=     0.371 Goal=   None    Shift=    0.000
 RMSDP=1.01D-04 MaxDP=4.57D-03 DE=-1.22D-02 OVMax= 5.05D-03

 Cycle   5  Pass 0  IDiag  1:
 RMSU=  4.00D-05    CP:  1.01D+00  1.02D+00  8.20D-01  5.68D-01
 E= -1297.76576823267     Delta-E=       -0.002611713296 Rises=F Damp=F
 DIIS: error= 1.65D-04 at cycle   5 NSaved=   5.
 NSaved= 5 IEnMin= 5 EnMin= -1297.76576823267     IErMin= 5 ErrMin= 1.65D-04
 ErrMax= 1.65D-04  0.00D+00 EMaxC= 1.00D-01 BMatC= 5.21D-05 BMatP= 3.01D-03
 IDIUse=3 WtCom= 9.98D-01 WtEn= 1.65D-03
 Coeff-Com: -0.793D-02 0.151D-01 0.811D-01 0.186D+00 0.725D+00
 Coeff-En:   0.000D+00 0.000D+00 0.000D+00 0.000D+00 0.100D+01
 Coeff:     -0.792D-02 0.151D-01 0.809D-01 0.186D+00 0.726D+00
 Gap=     0.370 Goal=   None    Shift=    0.000
 RMSDP=1.79D-05 MaxDP=8.48D-04 DE=-2.61D-03 OVMax= 8.73D-04

 Cycle   6  Pass 0  IDiag  1:
 RMSU=  1.21D-05    CP:  1.01D+00  1.02D+00  8.26D-01  6.17D-01  7.78D-01
 E= -1297.76580136274     Delta-E=       -0.000033130072 Rises=F Damp=F
 DIIS: error= 9.31D-05 at cycle   6 NSaved=   6.
 NSaved= 6 IEnMin= 6 EnMin= -1297.76580136274     IErMin= 6 ErrMin= 9.31D-05
 ErrMax= 9.31D-05  0.00D+00 EMaxC= 1.00D-01 BMatC= 1.05D-05 BMatP= 5.21D-05
 IDIUse=1 WtCom= 1.00D+00 WtEn= 0.00D+00
 Coeff-Com: -0.130D-02 0.120D-02 0.175D-01 0.562D-01 0.360D+00 0.567D+00
 Coeff:     -0.130D-02 0.120D-02 0.175D-01 0.562D-01 0.360D+00 0.567D+00
 Gap=     0.371 Goal=   None    Shift=    0.000
 RMSDP=5.56D-06 MaxDP=4.21D-04 DE=-3.31D-05 OVMax= 3.67D-04

 Initial convergence to 1.0D-05 achieved.  Increase integral accuracy.
 Cycle   7  Pass 1  IDiag  1:
 E= -1297.76572068630     Delta-E=        0.000080676437 Rises=F Damp=F
 DIIS: error= 3.63D-05 at cycle   1 NSaved=   1.
 NSaved= 1 IEnMin= 1 EnMin= -1297.76572068630     IErMin= 1 ErrMin= 3.63D-05
 ErrMax= 3.63D-05  0.00D+00 EMaxC= 1.00D-01 BMatC= 1.26D-06 BMatP= 1.26D-06
 IDIUse=1 WtCom= 1.00D+00 WtEn= 0.00D+00
 Coeff-Com:  0.100D+01
 Coeff:      0.100D+01
 Gap=     0.371 Goal=   None    Shift=    0.000
 RMSDP=5.56D-06 MaxDP=4.21D-04 DE= 8.07D-05 OVMax= 1.74D-04

 Cycle   8  Pass 1  IDiag  1:
 RMSU=  1.45D-05    CP:  1.00D+00
 E= -1297.76572138045     Delta-E=       -0.000000694147 Rises=F Damp=F
 DIIS: error= 2.32D-05 at cycle   2 NSaved=   2.
 NSaved= 2 IEnMin= 2 EnMin= -1297.76572138045     IErMin= 2 ErrMin= 2.32D-05
 ErrMax= 2.32D-05  0.00D+00 EMaxC= 1.00D-01 BMatC= 7.19D-07 BMatP= 1.26D-06
 IDIUse=1 WtCom= 1.00D+00 WtEn= 0.00D+00
 Coeff-Com:  0.408D+00 0.592D+00
 Coeff:      0.408D+00 0.592D+00
 Gap=     0.371 Goal=   None    Shift=    0.000
 RMSDP=1.65D-06 MaxDP=1.25D-04 DE=-6.94D-07 OVMax= 1.10D-04

 Cycle   9  Pass 1  IDiag  1:
 RMSU=  1.64D-06    CP:  1.00D+00  1.01D+00
 E= -1297.76572178962     Delta-E=       -0.000000409166 Rises=F Damp=F
 DIIS: error= 9.97D-06 at cycle   3 NSaved=   3.
 NSaved= 3 IEnMin= 3 EnMin= -1297.76572178962     IErMin= 3 ErrMin= 9.97D-06
 ErrMax= 9.97D-06  0.00D+00 EMaxC= 1.00D-01 BMatC= 1.15D-07 BMatP= 7.19D-07
 IDIUse=1 WtCom= 1.00D+00 WtEn= 0.00D+00
 Coeff-Com: -0.206D-01 0.277D+00 0.744D+00
 Coeff:     -0.206D-01 0.277D+00 0.744D+00
 Gap=     0.371 Goal=   None    Shift=    0.000
 RMSDP=6.25D-07 MaxDP=4.07D-05 DE=-4.09D-07 OVMax= 3.55D-05

 Cycle  10  Pass 1  IDiag  1:
 RMSU=  3.37D-07    CP:  1.00D+00  1.03D+00  7.42D-01
 E= -1297.76572186874     Delta-E=       -0.000000079126 Rises=F Damp=F
 DIIS: error= 1.16D-06 at cycle   4 NSaved=   4.
 NSaved= 4 IEnMin= 4 EnMin= -1297.76572186874     IErMin= 4 ErrMin= 1.16D-06
 ErrMax= 1.16D-06  0.00D+00 EMaxC= 1.00D-01 BMatC= 2.33D-09 BMatP= 1.15D-07
 IDIUse=1 WtCom= 1.00D+00 WtEn= 0.00D+00
 Coeff-Com: -0.163D-01 0.905D-01 0.281D+00 0.644D+00
 Coeff:     -0.163D-01 0.905D-01 0.281D+00 0.644D+00
 Gap=     0.371 Goal=   None    Shift=    0.000
 RMSDP=1.19D-07 MaxDP=5.14D-06 DE=-7.91D-08 OVMax= 5.25D-06

 Cycle  11  Pass 1  IDiag  1:
 RMSU=  1.09D-07    CP:  1.00D+00  1.03D+00  7.59D-01  8.99D-01
 E= -1297.76572187066     Delta-E=       -0.000000001918 Rises=F Damp=F
 DIIS: error= 4.92D-07 at cycle   5 NSaved=   5.
 NSaved= 5 IEnMin= 5 EnMin= -1297.76572187066     IErMin= 5 ErrMin= 4.92D-07
 ErrMax= 4.92D-07  0.00D+00 EMaxC= 1.00D-01 BMatC= 2.36D-10 BMatP= 2.33D-09
 IDIUse=1 WtCom= 1.00D+00 WtEn= 0.00D+00
 Coeff-Com: -0.280D-02-0.462D-02 0.502D-03 0.213D+00 0.794D+00
 Coeff:     -0.280D-02-0.462D-02 0.502D-03 0.213D+00 0.794D+00
 Gap=     0.371 Goal=   None    Shift=    0.000
 RMSDP=3.52D-08 MaxDP=1.75D-06 DE=-1.92D-09 OVMax= 2.51D-06

 Cycle  12  Pass 1  IDiag  1:
 RMSU=  2.63D-08    CP:  1.00D+00  1.03D+00  7.62D-01  9.67D-01  1.00D+00
 E= -1297.76572187080     Delta-E=       -0.000000000141 Rises=F Damp=F
 DIIS: error= 1.79D-07 at cycle   6 NSaved=   6.
 NSaved= 6 IEnMin= 6 EnMin= -1297.76572187080     IErMin= 6 ErrMin= 1.79D-07
 ErrMax= 1.79D-07  0.00D+00 EMaxC= 1.00D-01 BMatC= 4.25D-11 BMatP= 2.36D-10
 IDIUse=1 WtCom= 1.00D+00 WtEn= 0.00D+00
 Coeff-Com:  0.833D-03-0.135D-01-0.361D-01 0.757D-02 0.347D+00 0.694D+00
 Coeff:      0.833D-03-0.135D-01-0.361D-01 0.757D-02 0.347D+00 0.694D+00
 Gap=     0.371 Goal=   None    Shift=    0.000
 RMSDP=1.62D-08 MaxDP=9.11D-07 DE=-1.41D-10 OVMax= 1.08D-06

 Cycle  13  Pass 1  IDiag  1:
 RMSU=  9.68D-09    CP:  1.00D+00  1.03D+00  7.62D-01  9.93D-01  1.08D+00
                    CP:  8.37D-01
 E= -1297.76572187099     Delta-E=       -0.000000000187 Rises=F Damp=F
 DIIS: error= 3.23D-08 at cycle   7 NSaved=   7.
 NSaved= 7 IEnMin= 7 EnMin= -1297.76572187099     IErMin= 7 ErrMin= 3.23D-08
 ErrMax= 3.23D-08  0.00D+00 EMaxC= 1.00D-01 BMatC= 2.52D-12 BMatP= 4.25D-11
 IDIUse=1 WtCom= 1.00D+00 WtEn= 0.00D+00
 Coeff-Com:  0.526D-03-0.486D-02-0.140D-01-0.127D-01 0.806D-01 0.264D+00
 Coeff-Com:  0.686D+00
 Coeff:      0.526D-03-0.486D-02-0.140D-01-0.127D-01 0.806D-01 0.264D+00
 Coeff:      0.686D+00
 Gap=     0.371 Goal=   None    Shift=    0.000
 RMSDP=3.27D-09 MaxDP=1.39D-07 DE=-1.87D-10 OVMax= 2.73D-07

 SCF Done:  E(RM062X) =  -1297.76572187     A.U. after   13 cycles
            NFock= 13  Conv=0.33D-08     -V/T= 2.0035
 KE= 1.293236524156D+03 PE=-7.789881015705D+03 EE= 2.827627236837D+03
 Leave Link  502 at Fri Apr 14 15:56:45 2023, MaxMem=   524288000 cpu:            1700.1 elap:             213.6
 (Enter /dragofs/sw/campus/0.2/software/gaussian/16.gaussian/gaussian/g16_legacy/l601.exe)
 Copying SCF densities to generalized density rwf, IOpCl= 0 IROHF=0.

 **********************************************************************

            Population analysis using the SCF density.

 **********************************************************************

 Orbital symmetries:
       Occupied  (A) (A) (A) (A) (A) (A) (A) (A) (A) (A) (A) (A)
                 (A) (A) (A) (A) (A) (A) (A) (A) (A) (A) (A) (A)
                 (A) (A) (A) (A) (A) (A) (A) (A) (A) (A) (A) (A)
                 (A) (A) (A) (A) (A) (A) (A) (A) (A) (A) (A) (A)
                 (A) (A) (A) (A) (A) (A) (A) (A) (A) (A) (A) (A)
                 (A) (A) (A) (A) (A) (A) (A) (A) (A) (A) (A) (A)
                 (A) (A) (A) (A) (A) (A) (A) (A) (A) (A) (A) (A)
                 (A) (A) (A) (A) (A) (A) (A)
       Virtual   (A) (A) (A) (A) (A) (A) (A) (A) (A) (A) (A) (A)
                 (A) (A) (A) (A) (A) (A) (A) (A) (A) (A) (A) (A)
                 (A) (A) (A) (A) (A) (A) (A) (A) (A) (A) (A) (A)
                 (A) (A) (A) (A) (A) (A) (A) (A) (A) (A) (A) (A)
                 (A) (A) (A) (A) (A) (A) (A) (A) (A) (A) (A) (A)
                 (A) (A) (A) (A) (A) (A) (A) (A) (A) (A) (A) (A)
                 (A) (A) (A) (A) (A) (A) (A) (A) (A) (A) (A) (A)
                 (A) (A) (A) (A) (A) (A) (A) (A) (A) (A) (A) (A)
                 (A) (A) (A) (A) (A) (A) (A) (A) (A) (A) (A) (A)
                 (A) (A) (A) (A) (A) (A) (A) (A) (A) (A) (A) (A)
                 (A) (A) (A) (A) (A) (A) (A) (A) (A) (A) (A) (A)
                 (A) (A) (A) (A) (A) (A) (A) (A) (A) (A) (A) (A)
                 (A) (A) (A) (A) (A) (A) (A) (A) (A) (A) (A) (A)
                 (A) (A) (A) (A) (A) (A) (A) (A) (A) (A) (A) (A)
                 (A) (A) (A) (A) (A) (A) (A) (A) (A) (A) (A) (A)
                 (A) (A) (A) (A) (A) (A) (A) (A) (A) (A) (A) (A)
                 (A) (A) (A) (A) (A) (A) (A) (A) (A) (A) (A) (A)
                 (A) (A) (A) (A) (A) (A) (A) (A) (A) (A) (A) (A)
                 (A) (A) (A) (A) (A) (A) (A) (A) (A) (A) (A) (A)
                 (A) (A) (A) (A) (A) (A) (A) (A) (A) (A) (A) (A)
                 (A) (A) (A) (A) (A) (A) (A) (A) (A) (A) (A) (A)
                 (A) (A) (A) (A) (A) (A) (A) (A) (A) (A) (A) (A)
                 (A) (A) (A) (A) (A) (A) (A) (A) (A) (A) (A) (A)
                 (A) (A) (A) (A) (A) (A) (A) (A) (A) (A) (A) (A)
                 (A) (A) (A) (A) (A) (A) (A) (A) (A) (A) (A) (A)
                 (A) (A) (A) (A) (A) (A) (A) (A) (A) (A) (A) (A)
                 (A) (A) (A) (A) (A) (A) (A) (A) (A) (A) (A) (A)
                 (A) (A) (A) (A) (A) (A) (A) (A) (A) (A) (A) (A)
                 (A) (A) (A) (A) (A) (A) (A) (A) (A) (A) (A) (A)
                 (A) (A) (A) (A) (A) (A) (A) (A) (A) (A) (A) (A)
                 (A) (A) (A) (A) (A) (A) (A) (A) (A) (A) (A) (A)
                 (A) (A) (A) (A) (A) (A) (A) (A) (A) (A) (A) (A)
                 (A) (A) (A) (A) (A) (A) (A) (A) (A) (A) (A) (A)
                 (A) (A) (A) (A) (A) (A) (A) (A) (A) (A) (A) (A)
                 (A) (A) (A) (A) (A) (A) (A) (A) (A) (A) (A) (A)
                 (A) (A) (A) (A) (A) (A) (A) (A) (A) (A) (A) (A)
                 (A) (A) (A) (A) (A) (A) (A) (A) (A) (A) (A) (A)
                 (A) (A) (A) (A) (A) (A) (A) (A) (A) (A) (A)
 The electronic state is 1-A.
 Alpha  occ. eigenvalues --  -19.66433 -19.65545 -19.65130 -19.63992 -19.63465
 Alpha  occ. eigenvalues --  -19.63417 -19.63197 -19.63014 -19.62806 -19.61547
 Alpha  occ. eigenvalues --  -19.61326 -10.66723 -10.66043 -10.62304 -10.62018
 Alpha  occ. eigenvalues --  -10.61214 -10.61169 -10.61026 -10.60800 -10.60763
 Alpha  occ. eigenvalues --  -10.60251 -10.59757 -10.59402  -1.21779  -1.20625
 Alpha  occ. eigenvalues --   -1.17351  -1.16812  -1.15934  -1.15775  -1.14829
 Alpha  occ. eigenvalues --   -1.14371  -1.14071  -1.13437  -1.12900  -0.91177
 Alpha  occ. eigenvalues --   -0.90492  -0.88194  -0.87293  -0.80311  -0.78735
 Alpha  occ. eigenvalues --   -0.76705  -0.73565  -0.73118  -0.71083  -0.68804
 Alpha  occ. eigenvalues --   -0.66398  -0.64253  -0.63692  -0.62635  -0.62367
 Alpha  occ. eigenvalues --   -0.61306  -0.59835  -0.59084  -0.58597  -0.58098
 Alpha  occ. eigenvalues --   -0.56870  -0.56776  -0.56356  -0.54072  -0.54064
 Alpha  occ. eigenvalues --   -0.53469  -0.52347  -0.51602  -0.51554  -0.50668
 Alpha  occ. eigenvalues --   -0.50278  -0.49338  -0.48970  -0.48434  -0.47202
 Alpha  occ. eigenvalues --   -0.46245  -0.44893  -0.44738  -0.43943  -0.43517
 Alpha  occ. eigenvalues --   -0.43068  -0.42510  -0.42121  -0.41460  -0.40015
 Alpha  occ. eigenvalues --   -0.39048  -0.38807  -0.38455  -0.37325  -0.36795
 Alpha  occ. eigenvalues --   -0.36349  -0.35926  -0.35290  -0.34557  -0.33853
 Alpha  occ. eigenvalues --   -0.33316
 Alpha virt. eigenvalues --    0.03752   0.04751   0.04955   0.05953   0.06138
 Alpha virt. eigenvalues --    0.06824   0.07985   0.08588   0.09472   0.10170
 Alpha virt. eigenvalues --    0.11136   0.11198   0.12703   0.13186   0.13606
 Alpha virt. eigenvalues --    0.13861   0.14946   0.15501   0.16165   0.16598
 Alpha virt. eigenvalues --    0.17044   0.17486   0.17501   0.18710   0.19291
 Alpha virt. eigenvalues --    0.19942   0.20626   0.20899   0.22202   0.22624
 Alpha virt. eigenvalues --    0.23628   0.24080   0.25326   0.26291   0.27093
 Alpha virt. eigenvalues --    0.27994   0.28593   0.28924   0.30051   0.31545
 Alpha virt. eigenvalues --    0.32140   0.32667   0.32716   0.34218   0.34842
 Alpha virt. eigenvalues --    0.36774   0.38714   0.39417   0.40411   0.40910
 Alpha virt. eigenvalues --    0.41413   0.42336   0.42598   0.42945   0.43669
 Alpha virt. eigenvalues --    0.44227   0.44356   0.45203   0.45717   0.46169
 Alpha virt. eigenvalues --    0.46767   0.48478   0.49225   0.49352   0.51011
 Alpha virt. eigenvalues --    0.51049   0.51828   0.52274   0.53058   0.53183
 Alpha virt. eigenvalues --    0.53838   0.54143   0.54445   0.55075   0.55313
 Alpha virt. eigenvalues --    0.55593   0.56720   0.57569   0.58110   0.58952
 Alpha virt. eigenvalues --    0.59737   0.60158   0.60711   0.60814   0.62079
 Alpha virt. eigenvalues --    0.62527   0.63448   0.63773   0.64152   0.64766
 Alpha virt. eigenvalues --    0.65316   0.65829   0.66898   0.67206   0.67707
 Alpha virt. eigenvalues --    0.68082   0.69044   0.69300   0.71622   0.71732
 Alpha virt. eigenvalues --    0.73134   0.74902   0.76841   0.77069   0.79297
 Alpha virt. eigenvalues --    0.82248   0.83278   0.85119   0.85643   0.86013
 Alpha virt. eigenvalues --    0.86667   0.87953   0.88965   0.90009   0.90340
 Alpha virt. eigenvalues --    0.90851   0.91393   0.91560   0.92963   0.93956
 Alpha virt. eigenvalues --    0.94826   0.96957   0.97555   0.98379   0.99050
 Alpha virt. eigenvalues --    0.99363   1.00190   1.00451   1.01821   1.03012
 Alpha virt. eigenvalues --    1.03336   1.04102   1.05049   1.06130   1.06999
 Alpha virt. eigenvalues --    1.08451   1.10154   1.10804   1.11248   1.11991
 Alpha virt. eigenvalues --    1.12393   1.13914   1.15869   1.16372   1.17035
 Alpha virt. eigenvalues --    1.18047   1.19700   1.20778   1.21939   1.23408
 Alpha virt. eigenvalues --    1.23908   1.25676   1.26143   1.26960   1.29526
 Alpha virt. eigenvalues --    1.31196   1.32397   1.33356   1.33580   1.35898
 Alpha virt. eigenvalues --    1.36595   1.37962   1.39305   1.40044   1.41188
 Alpha virt. eigenvalues --    1.41916   1.42702   1.43625   1.44704   1.45706
 Alpha virt. eigenvalues --    1.46301   1.46758   1.47712   1.48214   1.48688
 Alpha virt. eigenvalues --    1.49391   1.49819   1.50053   1.51437   1.51699
 Alpha virt. eigenvalues --    1.52399   1.52786   1.53421   1.53773   1.54345
 Alpha virt. eigenvalues --    1.55503   1.55911   1.57005   1.58137   1.58278
 Alpha virt. eigenvalues --    1.58759   1.60176   1.60975   1.61507   1.61793
 Alpha virt. eigenvalues --    1.63217   1.64348   1.64722   1.64834   1.66171
 Alpha virt. eigenvalues --    1.66764   1.67213   1.67924   1.69012   1.69114
 Alpha virt. eigenvalues --    1.70253   1.70443   1.72050   1.73233   1.73501
 Alpha virt. eigenvalues --    1.74795   1.75409   1.75908   1.76521   1.77440
 Alpha virt. eigenvalues --    1.78645   1.79493   1.80147   1.81134   1.81928
 Alpha virt. eigenvalues --    1.82811   1.84048   1.85122   1.86334   1.87155
 Alpha virt. eigenvalues --    1.88964   1.89646   1.91424   1.92510   1.93094
 Alpha virt. eigenvalues --    1.94112   1.95082   1.95509   1.96758   1.97982
 Alpha virt. eigenvalues --    1.98862   1.99040   2.00101   2.00841   2.01678
 Alpha virt. eigenvalues --    2.02361   2.03232   2.03984   2.05808   2.07090
 Alpha virt. eigenvalues --    2.07902   2.09030   2.09261   2.09664   2.10084
 Alpha virt. eigenvalues --    2.11042   2.12028   2.13234   2.13831   2.14445
 Alpha virt. eigenvalues --    2.15743   2.16152   2.16685   2.17963   2.18404
 Alpha virt. eigenvalues --    2.19383   2.20427   2.21919   2.23078   2.23593
 Alpha virt. eigenvalues --    2.24915   2.29452   2.30874   2.32571   2.33800
 Alpha virt. eigenvalues --    2.34889   2.35789   2.40311   2.42188   2.44141
 Alpha virt. eigenvalues --    2.45095   2.46094   2.47135   2.47505   2.48363
 Alpha virt. eigenvalues --    2.49802   2.50272   2.52461   2.55686   2.56773
 Alpha virt. eigenvalues --    2.57223   2.58192   2.58333   2.59169   2.60228
 Alpha virt. eigenvalues --    2.61191   2.62302   2.62999   2.65044   2.65773
 Alpha virt. eigenvalues --    2.66692   2.71276   2.75537   2.76342   2.76778
 Alpha virt. eigenvalues --    2.78115   2.79098   2.80725   2.80888   2.82495
[...]
    32  H    0.000000   0.000000  -0.000000  -0.000000  -0.000000  -0.013910
    33  C    0.000000   0.000000   0.000000  -0.000000  -0.000000  -0.059191
    34  H    0.000000   0.000000  -0.000000   0.000000   0.000000   0.001823
    35  O    0.000000   0.000000  -0.000000   0.000000   0.000000   0.007405
    36  H    0.000000  -0.000000   0.000000  -0.000000  -0.000000   0.000431
    37  C   -0.000000  -0.000000  -0.000002   0.000000   0.000000  -0.030221
    38  H   -0.000000  -0.000000   0.000000  -0.000000   0.000000   0.001007
    39  O    0.000000   0.000000   0.000000  -0.000000  -0.000000   0.009596
    40  H    0.000000   0.000000   0.000000  -0.000000  -0.000000   0.000402
    41  C    0.000005  -0.000000  -0.000011  -0.000000  -0.000000   0.003899
    42  H    0.000000  -0.000000  -0.000002   0.000000   0.000000  -0.000119
    43  H    0.000000  -0.000000  -0.000001   0.000000  -0.000000  -0.000567
    44  O   -0.000008  -0.000001  -0.000023   0.000000   0.000000   0.000047
    45  H   -0.000058   0.000012   0.000221   0.000000  -0.000002   0.000404
              25         26         27         28         29         30
     1  C    0.000072   0.000034   0.000000   0.000034   0.000029   0.000653
     2  H   -0.000000   0.000001  -0.000000  -0.000025  -0.000018  -0.000069
     3  O   -0.000000   0.000001   0.000000   0.000000   0.000001  -0.000030
     4  H    0.000000  -0.000000   0.000000   0.000000  -0.000000   0.000006
     5  C   -0.000067   0.000009  -0.000012   0.000645   0.000056  -0.000018
     6  H   -0.000007   0.000003  -0.000002  -0.000083   0.000001   0.000002
     7  O   -0.000002   0.000003  -0.000001  -0.000015  -0.000000  -0.000010
     8  C   -0.000295  -0.000143  -0.000009  -0.000514   0.001362   0.004994
     9  H    0.000263  -0.002691  -0.000284   0.001733  -0.001456  -0.007518
    10  O   -0.000079   0.000005  -0.000000   0.000037   0.000966   0.004515
    11  H    0.000029  -0.000107  -0.000003   0.000238   0.003140  -0.002992
    12  C   -0.000986  -0.000211   0.000091   0.009925   0.001400  -0.003472
    13  H    0.000527  -0.000005  -0.000003  -0.000094  -0.000965  -0.000278
    14  O   -0.043945   0.003948  -0.000300  -0.048503  -0.044054  -0.005645
    15  C    0.000777   0.000888  -0.000349  -0.028125   0.000353  -0.000262
    16  H    0.000798  -0.003803  -0.000508   0.006593  -0.000171   0.000272
    17  O    0.000736  -0.000036   0.000117  -0.002706   0.000148   0.000010
    18  H   -0.002240  -0.000075  -0.000272   0.008564   0.000533  -0.000050
    19  C   -0.000001  -0.000006  -0.000002  -0.000020  -0.000001  -0.000001
    20  H   -0.000003   0.000000  -0.000001  -0.000001  -0.000000  -0.000000
    21  H   -0.000002   0.000008   0.000016  -0.000132   0.000000   0.000000
    22  O    0.000000   0.000000   0.000000   0.000000  -0.000000   0.000000
    23  H    0.000000  -0.000000   0.000000   0.000000   0.000000   0.000000
    24  C    0.414195  -0.071305  -0.000052   0.224051   0.218926  -0.029719
    25  H    0.546491  -0.000440   0.000376  -0.041683  -0.074836   0.009733
    26  C   -0.000440   5.309100   0.387706   0.213459  -0.037955   0.003950
    27  H    0.000376   0.387706   0.551470  -0.034133   0.000915   0.000563
    28  O   -0.041683   0.213459  -0.034133   8.227677  -0.019790   0.001372
    29  C   -0.074836  -0.037955   0.000915  -0.019790   5.378299   0.342738
    30  H    0.009733   0.003950   0.000563   0.001372   0.342738   0.590516
    31  O    0.008157  -0.000120   0.000021   0.001729   0.238493  -0.034714
    32  H    0.000406  -0.000147   0.000004   0.000593  -0.042601  -0.003031
    33  C    0.000314  -0.042875   0.006562  -0.013493   0.217166  -0.039087
    34  H    0.002569   0.007739  -0.000433  -0.000419  -0.049225   0.009473
    35  O   -0.000084  -0.002909  -0.000449   0.000047  -0.054126   0.004415
    36  H   -0.000047  -0.000403   0.000047  -0.000045   0.000157  -0.000450
    37  C   -0.003537   0.218396  -0.022143  -0.023819  -0.009851  -0.002228
    38  H    0.000171  -0.047481  -0.005107   0.003708   0.009358  -0.001530
    39  O    0.013540  -0.031752  -0.006758  -0.002083  -0.001563  -0.000094
    40  H   -0.000858  -0.000405   0.005470   0.000673  -0.001396   0.000038
    41  C   -0.000134   0.240045  -0.048604  -0.043938  -0.004480  -0.001498
    42  H    0.000152  -0.051282  -0.004955   0.004958   0.000537   0.000267
    43  H    0.000175  -0.046890   0.007887  -0.003569  -0.005089   0.011763
    44  O   -0.000021  -0.038180   0.005515  -0.003558   0.000077  -0.000527
    45  H   -0.000053   0.000880  -0.000811   0.000861  -0.000124  -0.000591
              31         32         33         34         35         36
     1  C   -0.000003   0.000025   0.000007   0.000000  -0.000000  -0.000000
     2  H    0.000000   0.000001   0.000000   0.000000   0.000000   0.000000
     3  O    0.000000   0.000000  -0.000000  -0.000000   0.000000   0.000000
     4  H   -0.000000  -0.000000   0.000000   0.000000  -0.000000  -0.000000
     5  C    0.000000  -0.000006  -0.000001  -0.000000   0.000000   0.000000
     6  H    0.000000  -0.000002   0.000000  -0.000000  -0.000000  -0.000000
     7  O    0.000000   0.000000  -0.000000   0.000000   0.000000   0.000000
     8  C   -0.000419   0.000065  -0.000094   0.000006  -0.000005  -0.000006
     9  H    0.000008   0.000010   0.000042  -0.000025  -0.000146   0.000024
    10  O   -0.000066   0.000029   0.000028  -0.000000   0.000000  -0.000006
    11  H    0.002733   0.003318   0.000471  -0.000048  -0.000033   0.000004
    12  C    0.000599  -0.000257  -0.000207  -0.000022   0.000001   0.000002
    13  H    0.000065  -0.000171   0.000024  -0.000001  -0.000000   0.000000
    14  O   -0.007930   0.017843   0.006203  -0.000260  -0.000025   0.000002
    15  C   -0.000029   0.000231   0.000014   0.000006   0.000000   0.000000
    16  H   -0.000002  -0.000015  -0.000156   0.000010  -0.000002  -0.000001
    17  O   -0.000000  -0.000015  -0.000005  -0.000000   0.000000   0.000000
    18  H   -0.000020  -0.000015  -0.000010  -0.000000   0.000000   0.000000
    19  C   -0.000000   0.000000   0.000000   0.000000   0.000000   0.000000
    20  H    0.000000   0.000000   0.000000   0.000000   0.000000  -0.000000
    21  H    0.000000  -0.000000   0.000000  -0.000000  -0.000000   0.000000
    22  O    0.000000  -0.000000  -0.000000   0.000000   0.000000  -0.000000
    23  H   -0.000000  -0.000000  -0.000000   0.000000   0.000000  -0.000000
    24  C   -0.025877  -0.013910  -0.059191   0.001823   0.007405   0.000431
    25  H    0.008157   0.000406   0.000314   0.002569  -0.000084  -0.000047
    26  C   -0.000120  -0.000147  -0.042875   0.007739  -0.002909  -0.000403
    27  H    0.000021   0.000004   0.006562  -0.000433  -0.000449   0.000047
    28  O    0.001729   0.000593  -0.013493  -0.000419   0.000047  -0.000045
    29  C    0.238493  -0.042601   0.217166  -0.049225  -0.054126   0.000157
    30  H   -0.034714  -0.003031  -0.039087   0.009473   0.004415  -0.000450
    31  O    7.949334   0.324764  -0.052972   0.006887   0.000103   0.003232
    32  H    0.324764   0.442171   0.009542  -0.000542  -0.000395  -0.000145
    33  C   -0.052972   0.009542   5.192615   0.392685   0.238235  -0.041479
    34  H    0.006887  -0.000542   0.392685   0.513083  -0.023493  -0.007291
    35  O    0.000103  -0.000395   0.238235  -0.023493   7.953530   0.319661
    36  H    0.003232  -0.000145  -0.041479  -0.007291   0.319661   0.442894
    37  C    0.003297  -0.000712   0.221128  -0.046239  -0.054225   0.010943
    38  H   -0.000188   0.000042  -0.042047  -0.005942   0.009090  -0.000286
    39  O   -0.000035  -0.000014  -0.054917   0.008601   0.001174  -0.000281
    40  H    0.000022  -0.000009   0.011289  -0.000265  -0.000278   0.000053
    41  C    0.000049   0.000002  -0.004785   0.000108   0.005448  -0.000316
    42  H   -0.000002   0.000002  -0.002392  -0.000022   0.000617  -0.000016
    43  H   -0.000075   0.000004   0.002144   0.000955   0.010974  -0.000569
    44  O   -0.000000  -0.000000  -0.000327   0.000010   0.000040  -0.000003
    45  H    0.000002  -0.000001   0.000068  -0.000003   0.000058   0.000003
              37         38         39         40         41         42
     1  C   -0.000001   0.000000   0.000000   0.000000  -0.000037   0.000000
     2  H   -0.000000  -0.000000   0.000000   0.000000  -0.000007  -0.000000
     3  O    0.000000  -0.000000  -0.000000  -0.000000  -0.000015  -0.000000
     4  H    0.000000   0.000000  -0.000000  -0.000000   0.000001   0.000000
     5  C    0.000002   0.000000  -0.000000  -0.000000  -0.000037  -0.000001
     6  H   -0.000000   0.000000   0.000000   0.000000  -0.000005  -0.000000
     7  O   -0.000000  -0.000000   0.000000   0.000000  -0.000046  -0.000000
     8  C    0.000025   0.000001   0.000000  -0.000000   0.000295  -0.000016
     9  H    0.000016   0.000003  -0.000006   0.000002   0.003659   0.000515
    10  O    0.000001   0.000000  -0.000000  -0.000000  -0.000026  -0.000001
    11  H    0.000005   0.000003  -0.000001  -0.000000   0.000070   0.000001
    12  C   -0.000046   0.000002   0.000008  -0.000001   0.000151   0.000004
    13  H   -0.000008   0.000000   0.000000   0.000000   0.000004   0.000000
    14  O   -0.000913   0.000046   0.000127  -0.000007  -0.000055   0.000001
    15  C   -0.000273   0.000001  -0.000003   0.000008  -0.000140  -0.000049
    16  H    0.001762   0.000012  -0.000100  -0.000027  -0.001277   0.000326
    17  O    0.000012   0.000000   0.000000  -0.000002   0.000002   0.000001
    18  H   -0.000104  -0.000009   0.000040   0.000039   0.000104  -0.000011
    19  C   -0.000000  -0.000000   0.000000   0.000000   0.000005   0.000000
    20  H   -0.000000  -0.000000   0.000000   0.000000  -0.000000  -0.000000
    21  H   -0.000002   0.000000   0.000000   0.000000  -0.000011  -0.000002
    22  O    0.000000  -0.000000  -0.000000  -0.000000  -0.000000   0.000000
    23  H    0.000000   0.000000  -0.000000  -0.000000  -0.000000   0.000000
    24  C   -0.030221   0.001007   0.009596   0.000402   0.003899  -0.000119
    25  H   -0.003537   0.000171   0.013540  -0.000858  -0.000134   0.000152
    26  C    0.218396  -0.047481  -0.031752  -0.000405   0.240045  -0.051282
    27  H   -0.022143  -0.005107  -0.006758   0.005470  -0.048604  -0.004955
    28  O   -0.023819   0.003708  -0.002083   0.000673  -0.043938   0.004958
    29  C   -0.009851   0.009358  -0.001563  -0.001396  -0.004480   0.000537
    30  H   -0.002228  -0.001530  -0.000094   0.000038  -0.001498   0.000267
    31  O    0.003297  -0.000188  -0.000035   0.000022   0.000049  -0.000002
    32  H   -0.000712   0.000042  -0.000014  -0.000009   0.000002   0.000002
    33  C    0.221128  -0.042047  -0.054917   0.011289  -0.004785  -0.002392
    34  H   -0.046239  -0.005942   0.008601  -0.000265   0.000108  -0.000022
    35  O   -0.054225   0.009090   0.001174  -0.000278   0.005448   0.000617
    36  H    0.010943  -0.000286  -0.000281   0.000053  -0.000316  -0.000016
    37  C    5.377720   0.403727   0.172284  -0.042401  -0.069694   0.006641
    38  H    0.403727   0.505915  -0.018078  -0.005900   0.004674   0.003718
    39  O    0.172284  -0.018078   7.988182   0.316550   0.006008  -0.000138
    40  H   -0.042401  -0.005900   0.316550   0.452097   0.000044  -0.000042
    41  C   -0.069694   0.004674   0.006008   0.000044   4.939813   0.401554
    42  H    0.006641   0.003718  -0.000138  -0.000042   0.401554   0.551896
    43  H   -0.004519  -0.000692  -0.000133  -0.000007   0.402864  -0.031697
    44  O    0.005901   0.000081  -0.000024  -0.000029   0.250732  -0.032756
    45  H   -0.001393  -0.000012   0.000035   0.000005  -0.046190   0.005317
              43         44         45
     1  C   -0.000011   0.000009   0.000360
     2  H   -0.000002  -0.000005   0.000233
     3  O   -0.000023  -0.000001   0.000497
     4  H   -0.000000  -0.000000  -0.000019
     5  C   -0.000023   0.000016   0.000032
     6  H   -0.000003  -0.000003   0.000149
     7  O   -0.000019  -0.000066   0.003615
     8  C    0.001140  -0.001408  -0.000450
     9  H   -0.004398   0.002923   0.011588
    10  O   -0.000384   0.000005  -0.000069
    11  H   -0.000074  -0.000001  -0.000018
    12  C    0.000278  -0.000050  -0.002918
    13  H    0.000015  -0.000013   0.000129
    14  O   -0.000230   0.000005   0.000086
    15  C    0.000002  -0.002017   0.001512
    16  H    0.000370   0.010407   0.005669
    17  O   -0.000000   0.000005  -0.000082
    18  H   -0.000007  -0.000052  -0.000045
    19  C    0.000000  -0.000008  -0.000058
    20  H   -0.000000  -0.000001   0.000012
    21  H   -0.000001  -0.000023   0.000221
    22  O    0.000000   0.000000   0.000000
    23  H   -0.000000   0.000000  -0.000002
    24  C   -0.000567   0.000047   0.000404
    25  H    0.000175  -0.000021  -0.000053
    26  C   -0.046890  -0.038180   0.000880
    27  H    0.007887   0.005515  -0.000811
    28  O   -0.003569  -0.003558   0.000861
    29  C   -0.005089   0.000077  -0.000124
    30  H    0.011763  -0.000527  -0.000591
    31  O   -0.000075  -0.000000   0.000002
    32  H    0.000004  -0.000000  -0.000001
    33  C    0.002144  -0.000327   0.000068
    34  H    0.000955   0.000010  -0.000003
    35  O    0.010974   0.000040   0.000058
    36  H   -0.000569  -0.000003   0.000003
    37  C   -0.004519   0.005901  -0.001393
    38  H   -0.000692   0.000081  -0.000012
    39  O   -0.000133  -0.000024   0.000035
    40  H   -0.000007  -0.000029   0.000005
    41  C    0.402864   0.250732  -0.046190
    42  H   -0.031697  -0.032756   0.005317
    43  H    0.549300  -0.030913  -0.006212
    44  O   -0.030913   7.893293   0.332114
    45  H   -0.006212   0.332114   0.434352
 Mulliken charges:
               1
     1  C    0.238743
     2  H    0.136402
     3  O   -0.387315
     4  H    0.261723
     5  C   -0.092309
     6  H    0.159889
     7  O   -0.414921
     8  C    0.018312
     9  H    0.128991
    10  O   -0.397298
    11  H    0.250132
    12  C   -0.007201
    13  H    0.177163
    14  O   -0.447929
    15  C    0.009155
    16  H    0.149736
    17  O   -0.415673
    18  H    0.270476
    19  C    0.004763
    20  H    0.155132
    21  H    0.127599
    22  O   -0.414561
    23  H    0.252337
    24  C    0.255382
    25  H    0.169839
    26  C   -0.006955
    27  H    0.158432
    28  O   -0.440153
    29  C   -0.066956
    30  H    0.148537
    31  O   -0.417044
    32  H    0.262936
    33  C    0.055502
    34  H    0.190278
    35  O   -0.414629
    36  H    0.273889
    37  C   -0.109531
    38  H    0.185709
    39  O   -0.400167
    40  H    0.264935
    41  C   -0.038236
    42  H    0.146992
    43  H    0.148237
    44  O   -0.391192
    45  H    0.260851
 Sum of Mulliken charges =  -0.00000
 Mulliken charges with hydrogens summed into heavy atoms:
               1
     1  C    0.375145
     3  O   -0.125592
     5  C    0.067580
     7  O   -0.414921
     8  C    0.147302
    10  O   -0.147166
    12  C    0.169962
    14  O   -0.447929
    15  C    0.158891
    17  O   -0.145197
    19  C    0.287493
    22  O   -0.162224
    24  C    0.425221
    26  C    0.151477
    28  O   -0.440153
    29  C    0.081581
    31  O   -0.154108
    33  C    0.245780
    35  O   -0.140740
    37  C    0.076179
    39  O   -0.135231
    41  C    0.256992
    44  O   -0.130341
 Electronic spatial extent (au):  <R**2>=           7419.4641
 Charge=             -0.0000 electrons
 Dipole moment (field-independent basis, Debye):
    X=              2.6183    Y=             -0.3945    Z=             -0.5351  Tot=              2.7013
 Quadrupole moment (field-independent basis, Debye-Ang):
   XX=           -140.3397   YY=           -133.3108   ZZ=           -145.3999
   XY=            -13.6573   XZ=             -0.1058   YZ=             -1.6557
 Traceless Quadrupole moment (field-independent basis, Debye-Ang):
   XX=             -0.6562   YY=              6.3727   ZZ=             -5.7164
   XY=            -13.6573   XZ=             -0.1058   YZ=             -1.6557
 Octapole moment (field-independent basis, Debye-Ang**2):
  XXX=             30.5220  YYY=            -37.9431  ZZZ=            -16.6896  XYY=             47.5379
  XXY=             69.9140  XXZ=             49.2456  XZZ=            -11.5422  YZZ=             13.4423
  YYZ=             -6.6929  XYZ=             -3.0192
 Hexadecapole moment (field-independent basis, Debye-Ang**3):
 XXXX=          -6413.1079 YYYY=          -1737.3240 ZZZZ=          -1364.9750 XXXY=           -374.5740
 XXXZ=           -145.5537 YYYX=            -64.0526 YYYZ=             14.0637 ZZZX=            -50.2493
 ZZZY=             12.6189 XXYY=          -1209.9561 XXZZ=          -1204.0561 YYZZ=           -502.6680
 XXYZ=             30.0768 YYXZ=              0.5514 ZZXY=            -32.4228
 N-N= 2.398852049473D+03 E-N=-7.845162619127D+03  KE= 1.294055024055D+03
 No NMR shielding tensors so no spin-rotation constants.
 Leave Link  601 at Fri Apr 14 18:01:58 2023, MaxMem=   524288000 cpu:               1.8 elap:               0.3
 (Enter /dragofs/sw/campus/0.2/software/gaussian/16.gaussian/gaussian/g16_legacy/l9999.exe)
 1\1\GINC-DRAGO31010028\FOpt\RM062X\6-311G(d,p)\C12H22O11\JRAMOS\14-Apr
 -2023\0\\#p opt=modredundant m062x/6-311g(d,p)\\Conformer number 00009
 . Energy MM = 194.799 kcal/mol\\0,1\C,-0.096891042,1.0630449084,-0.406
 6762152\H,-0.9310080669,0.8962017307,0.2946919047\O,-0.5117367665,1.66
 59055026,-1.5755445191\H,-0.9821109682,2.4728700596,-1.3494727717\C,1.
 3998143972,1.3766451828,1.4234949505\H,0.5810258212,1.1397592065,2.118
 4116091\O,0.8667480124,1.9016202005,0.2094672145\C,0.522067463,-0.2827
 610291,-0.7602404161\H,1.2679869671,-0.1020339354,-1.5507047863\O,-0.4
 977836368,-1.1311338842,-1.2212618558\H,-0.1588249707,-2.0289567099,-1
 .1539617413\C,1.2040800137,-0.8680948265,0.4739689303\H,0.4304288391,-
 1.0274662749,1.2338662702\O,1.626984527,-2.2066878838,0.1998687415\C,2
 .1979391774,0.1260531881,1.0731320767\H,2.9419187749,0.4323769698,0.33
 74376035\O,2.8156602387,-0.3836584087,2.2305855363\H,3.5108715213,-0.9
 801011364,1.9377626921\C,2.2589108243,2.4735284833,2.0217651052\H,2.65
 1200758,2.1412964529,2.9819515172\H,3.1030541651,2.6659894123,1.345310
 8138\O,1.4976844746,3.6373371044,2.2423075441\H,1.0831216383,3.8473883
 368,1.3999212829\C,2.887841073,-2.5713360464,-0.3296493417\H,3.3677551
 831,-3.23340249,0.3984607269\C,4.6674779651,-1.4824251513,-1.600153834
 1\H,5.5366842335,-0.9625634168,-1.1816454674\O,3.6792429788,-1.4348182
 483,-0.5559972306\C,2.593395348,-3.3174574631,-1.6272545027\H,2.061682
 2866,-2.6027174387,-2.2743071092\O,1.7958955543,-4.4527902516,-1.38271
 25066\H,1.1024856985,-4.1936556198,-0.7667030466\C,3.8622930861,-3.762
 1195437,-2.354106678\H,4.0738611231,-4.7968495178,-2.0667507801\O,3.72
 93362795,-3.628396104,-3.7561128424\H,2.9974488574,-4.1842905172,-4.03
 86879825\C,5.0608611235,-2.9174432332,-1.92799639\H,5.7828517059,-2.91
 84691677,-2.7518995818\O,5.5850374228,-3.5528384238,-0.7732999638\H,6.
 3193662925,-3.0300772858,-0.4405849866\C,4.1911200157,-0.6557986394,-2
 .7885060925\H,4.9698087527,-0.650900886,-3.5541701226\H,3.2933742048,-
 1.0927553317,-3.235792293\O,3.9885862401,0.6865914137,-2.4046053517\H,
 3.2078524131,0.7290907127,-1.8452061099\\Version=EM64L-G16RevA.03\Stat
 e=1-A\HF=-1297.7960763\RMSD=7.959e-09\RMSF=7.829e-04\Dipole=0.5525744,
 -0.8784287,-0.2292403\Quadrupole=11.649399,-5.0697635,-6.5796355,-4.22
 85313,-0.2985452,-2.1625137\PG=C01 [X(C12H22O11)]\\@


 THE ... SCIENTISTS WERE WRONG ... THE MOST PERSISTENT PRINCIPLES 
 OF THE UNIVERSE WERE ACCIDENT AND ERROR.

                          -- FRANK HERBERT IN DUNE
 Job cpu time:       0 days 17 hours  5 minutes  2.6 seconds.
 Elapsed time:       0 days  2 hours  8 minutes 51.0 seconds.
 File lengths (MBytes):  RWF=    189 Int=      0 D2E=      0 Chk=     24 Scr=      1
 Normal termination of Gaussian 16 at Fri Apr 14 18:01:58 2023.
