 Entering Gaussian System, Link 0=g16
 Input=dimer_13b_00008_gaussian.com
 Output=dimer_13b_00008_gaussian.log
 Initial command:
 /dragofs/sw/campus/0.2/software/gaussian/16.gaussian/gaussian/g16_legacy/l1.exe "/lustre/scratch-global/iem/jramos/Gau-1252253.inp" -scrdir="/lustre/scratch-global/iem/jramos/"
 Entering Link 1 = /dragofs/sw/campus/0.2/software/gaussian/16.gaussian/gaussian/g16_legacy/l1.exe PID=   1252254.
  
 Copyright (c) 1988,1990,1992,1993,1995,1998,2003,2009,2016,
            Gaussian, Inc.  All Rights Reserved.
  
 This is part of the Gaussian(R) 16 program.  It is based on
 the Gaussian(R) 09 system (copyright 2009, Gaussian, Inc.),
 the Gaussian(R) 03 system (copyright 2003, Gaussian, Inc.),
 the Gaussian(R) 98 system (copyright 1998, Gaussian, Inc.),
 the Gaussian(R) 94 system (copyright 1995, Gaussian, Inc.),
 the Gaussian 92(TM) system (copyright 1992, Gaussian, Inc.),
 the Gaussian 90(TM) system (copyright 1990, Gaussian, Inc.),
 the Gaussian 88(TM) system (copyright 1988, Gaussian, Inc.),
 the Gaussian 86(TM) system (copyright 1986, Carnegie Mellon
 University), and the Gaussian 82(TM) system (copyright 1983,
 Carnegie Mellon University). Gaussian is a federally registered
 trademark of Gaussian, Inc.
  
 This software contains proprietary and confidential information,
 including trade secrets, belonging to Gaussian, Inc.
  
 This software is provided under written license and may be
 used, copied, transmitted, or stored only in accord with that
 written license.
  
 The following legend is applicable only to US Government
 contracts under FAR:
  
                    RESTRICTED RIGHTS LEGEND
  
 Use, reproduction and disclosure by the US Government is
 subject to restrictions as set forth in subparagraphs (a)
 and (c) of the Commercial Computer Software - Restricted
 Rights clause in FAR 52.227-19.
  
 Gaussian, Inc.
 340 Quinnipiac St., Bldg. 40, Wallingford CT 06492
  
  
 ---------------------------------------------------------------
 Warning -- This program may not be used in any manner that
 competes with the business of Gaussian, Inc. or will provide
 assistance to any competitor of Gaussian, Inc.  The licensee
 of this program is prohibited from giving any competitor of
 Gaussian, Inc. access to this program.  By using this program,
 the user acknowledges that Gaussian, Inc. is engaged in the
 business of creating and licensing software in the field of
 computational chemistry and represents and warrants to the
 licensee that it is not a competitor of Gaussian, Inc. and that
 it will not use this program in any manner prohibited above.
 ---------------------------------------------------------------
  

 Cite this work as:
 Gaussian 16, Revision A.03,
 M. J. Frisch, G. W. Trucks, H. B. Schlegel, G. E. Scuseria, 
 M. A. Robb, J. R. Cheeseman, G. Scalmani, V. Barone, 
 G. A. Petersson, H. Nakatsuji, X. Li, M. Caricato, A. V. Marenich, 
 J. Bloino, B. G. Janesko, R. Gomperts, B. Mennucci, H. P. Hratchian, 
 J. V. Ortiz, A. F. Izmaylov, J. L. Sonnenberg, D. Williams-Young, 
 F. Ding, F. Lipparini, F. Egidi, J. Goings, B. Peng, A. Petrone, 
 T. Henderson, D. Ranasinghe, V. G. Zakrzewski, J. Gao, N. Rega, 
 G. Zheng, W. Liang, M. Hada, M. Ehara, K. Toyota, R. Fukuda, 
 J. Hasegawa, M. Ishida, T. Nakajima, Y. Honda, O. Kitao, H. Nakai, 
 T. Vreven, K. Throssell, J. A. Montgomery, Jr., J. E. Peralta, 
 F. Ogliaro, M. J. Bearpark, J. J. Heyd, E. N. Brothers, K. N. Kudin, 
 V. N. Staroverov, T. A. Keith, R. Kobayashi, J. Normand, 
 K. Raghavachari, A. P. Rendell, J. C. Burant, S. S. Iyengar, 
 J. Tomasi, M. Cossi, J. M. Millam, M. Klene, C. Adamo, R. Cammi, 
 J. W. Ochterski, R. L. Martin, K. Morokuma, O. Farkas, 
 J. B. Foresman, and D. J. Fox, Gaussian, Inc., Wallingford CT, 2016.
 
 ******************************************
 Gaussian 16:  EM64L-G16RevA.03 25-Dec-2016
                14-Apr-2023 
 ******************************************
 %chk=dimer_13b_00008_gaussian.chk
 %nproc=8
 Will use up to    8 processors via shared memory.
 %mem=4000Mb
 -------------------------------------
 #p opt=modredundant m062x/6-311g(d,p)
 -------------------------------------
 1/18=120,19=15,26=3,38=1/1,3;
 2/9=110,12=2,17=6,18=5,40=1/2;
 3/5=4,6=6,7=101,11=2,25=1,30=1,71=1,74=-55/1,2,3;
 4//1;
 5/5=2,38=5/2;
 6/7=2,8=2,9=2,10=2,28=1/1;
 7//1,2,3,16;
 1/18=20,19=15,26=3/3(2);
 2/9=110/2;
 99//99;
 2/9=110/2;
 3/5=4,6=6,7=101,11=2,25=1,30=1,71=1,74=-55/1,2,3;
 4/5=5,16=3,69=1/1;
 5/5=2,38=5/2;
 7//1,2,3,16;
 1/18=20,19=15,26=3/3(-5);
 2/9=110/2;
 6/7=2,8=2,9=2,10=2,19=2,28=1/1;
 99/9=1/99;
 Leave Link    1 at Fri Apr 14 15:52:35 2023, MaxMem=   524288000 cpu:               0.2 elap:               0.0
 (Enter /dragofs/sw/campus/0.2/software/gaussian/16.gaussian/gaussian/g16_legacy/l101.exe)
 ----------------------------------------------------
 Conformer number 00008. Energy MM = 201.987 kcal/mol
 ----------------------------------------------------
 Symbolic Z-matrix:
 Charge =  0 Multiplicity = 1
 C                    -0.0072    1.1154   -0.6289 
 H                    -0.923     1.1471   -0.0264 
 O                    -0.3234    1.6568   -1.9047 
 H                    -0.6254    2.5624   -1.7215 
 C                     1.3271    1.4742    1.2928 
 H                     0.4059    1.4793    1.8913 
 O                     1.006     1.9178   -0.0421 
 C                     0.4671   -0.3331   -0.8386 
 H                     1.2392   -0.3597   -1.6146 
 O                    -0.6102   -1.1487   -1.32 
 H                    -0.9641   -0.6747   -2.0999 
 C                     1.0373   -0.8803    0.4851 
 H                     0.1542   -0.9834    1.1341 
 O                     1.402    -2.2801    0.3462 
 C                     1.9578    0.0708    1.26 
 H                     2.9433    0.1551    0.8117 
 O                     2.1522   -0.418     2.5892 
 H                     2.311    -1.3792    2.5226 
 C                     2.2873    2.5009    1.9044 
 H                     2.5202    2.2647    2.9463 
 H                     3.2213    2.5567    1.3361 
 O                     1.6898    3.7975    1.8651 
 H                     1.4269    3.9356    0.9349 
 C                     2.6979   -2.528    -0.3069 
 H                     3.2856   -3.0842    0.4329 
 C                     4.6221   -1.6499   -1.3649 
 H                     5.2678   -2.2028   -0.6687 
 O                     3.3731   -1.364    -0.6884 
 C                     2.3636   -3.4282   -1.5137 
 H                     1.6425   -2.9306   -2.1732 
 O                     1.7477   -4.6568   -1.0981 
 H                     0.9733   -4.3829   -0.564 
 C                     3.6307   -3.7511   -2.2921 
 H                     4.2772   -4.4295   -1.7212 
 O                     3.3052   -4.4509   -3.503 
 H                     2.7055   -5.1739   -3.227 
 C                     4.3765   -2.4652   -2.6441 
 H                     3.783    -1.8828   -3.3605 
 O                     5.6034   -2.8065   -3.2893 
 H                     5.359    -3.4607   -3.9755 
 C                     5.3102   -0.3171   -1.69 
 H                     6.2132   -0.4647   -2.2885 
 H                     4.6333    0.3559   -2.2277 
 O                     5.701     0.3433   -0.4846 
 H                     4.9156    0.3784    0.0836 
 
 The following ModRedundant input section has been read:
 D      12      14      24      28 F                                           
 D       8      12      14      24 F                                           
 
 ITRead=  0  0  0  0  0  0  0  0  0  0  0  0  0  0  0  0  0  0  0  0
 ITRead=  0  0  0  0  0  0  0  0  0  0  0  0  0  0  0  0  0  0  0  0
 ITRead=  0  0  0  0  0
 MicOpt= -1 -1 -1 -1 -1 -1 -1 -1 -1 -1 -1 -1 -1 -1 -1 -1 -1 -1 -1 -1
 MicOpt= -1 -1 -1 -1 -1 -1 -1 -1 -1 -1 -1 -1 -1 -1 -1 -1 -1 -1 -1 -1
 MicOpt= -1 -1 -1 -1 -1
 NAtoms=     45 NQM=       45 NQMF=       0 NMMI=      0 NMMIF=      0
                NMic=       0 NMicF=      0.
                    Isotopes and Nuclear Properties:
 (Nuclear quadrupole moments (NQMom) in fm**2, nuclear magnetic moments (NMagM)
  in nuclear magnetons)

  Atom         1           2           3           4           5           6           7           8           9          10
 IAtWgt=          12           1          16           1          12           1          16          12           1          16
 AtmWgt=  12.0000000   1.0078250  15.9949146   1.0078250  12.0000000   1.0078250  15.9949146  12.0000000   1.0078250  15.9949146
 NucSpn=           0           1           0           1           0           1           0           0           1           0
 AtZEff=  -0.0000000  -0.0000000  -0.0000000  -0.0000000  -0.0000000  -0.0000000  -0.0000000  -0.0000000  -0.0000000  -0.0000000
 NQMom=    0.0000000   0.0000000   0.0000000   0.0000000   0.0000000   0.0000000   0.0000000   0.0000000   0.0000000   0.0000000
 NMagM=    0.0000000   2.7928460   0.0000000   2.7928460   0.0000000   2.7928460   0.0000000   0.0000000   2.7928460   0.0000000
 AtZNuc=   6.0000000   1.0000000   8.0000000   1.0000000   6.0000000   1.0000000   8.0000000   6.0000000   1.0000000   8.0000000

  Atom        11          12          13          14          15          16          17          18          19          20
 IAtWgt=           1          12           1          16          12           1          16           1          12           1
 AtmWgt=   1.0078250  12.0000000   1.0078250  15.9949146  12.0000000   1.0078250  15.9949146   1.0078250  12.0000000   1.0078250
 NucSpn=           1           0           1           0           0           1           0           1           0           1
 AtZEff=  -0.0000000  -0.0000000  -0.0000000  -0.0000000  -0.0000000  -0.0000000  -0.0000000  -0.0000000  -0.0000000  -0.0000000
 NQMom=    0.0000000   0.0000000   0.0000000   0.0000000   0.0000000   0.0000000   0.0000000   0.0000000   0.0000000   0.0000000
 NMagM=    2.7928460   0.0000000   2.7928460   0.0000000   0.0000000   2.7928460   0.0000000   2.7928460   0.0000000   2.7928460
 AtZNuc=   1.0000000   6.0000000   1.0000000   8.0000000   6.0000000   1.0000000   8.0000000   1.0000000   6.0000000   1.0000000

  Atom        21          22          23          24          25          26          27          28          29          30
 IAtWgt=           1          16           1          12           1          12           1          16          12           1
 AtmWgt=   1.0078250  15.9949146   1.0078250  12.0000000   1.0078250  12.0000000   1.0078250  15.9949146  12.0000000   1.0078250
 NucSpn=           1           0           1           0           1           0           1           0           0           1
 AtZEff=  -0.0000000  -0.0000000  -0.0000000  -0.0000000  -0.0000000  -0.0000000  -0.0000000  -0.0000000  -0.0000000  -0.0000000
 NQMom=    0.0000000   0.0000000   0.0000000   0.0000000   0.0000000   0.0000000   0.0000000   0.0000000   0.0000000   0.0000000
 NMagM=    2.7928460   0.0000000   2.7928460   0.0000000   2.7928460   0.0000000   2.7928460   0.0000000   0.0000000   2.7928460
 AtZNuc=   1.0000000   8.0000000   1.0000000   6.0000000   1.0000000   6.0000000   1.0000000   8.0000000   6.0000000   1.0000000

  Atom        31          32          33          34          35          36          37          38          39          40
 IAtWgt=          16           1          12           1          16           1          12           1          16           1
 AtmWgt=  15.9949146   1.0078250  12.0000000   1.0078250  15.9949146   1.0078250  12.0000000   1.0078250  15.9949146   1.0078250
 NucSpn=           0           1           0           1           0           1           0           1           0           1
 AtZEff=  -0.0000000  -0.0000000  -0.0000000  -0.0000000  -0.0000000  -0.0000000  -0.0000000  -0.0000000  -0.0000000  -0.0000000
 NQMom=    0.0000000   0.0000000   0.0000000   0.0000000   0.0000000   0.0000000   0.0000000   0.0000000   0.0000000   0.0000000
 NMagM=    0.0000000   2.7928460   0.0000000   2.7928460   0.0000000   2.7928460   0.0000000   2.7928460   0.0000000   2.7928460
 AtZNuc=   8.0000000   1.0000000   6.0000000   1.0000000   8.0000000   1.0000000   6.0000000   1.0000000   8.0000000   1.0000000

  Atom        41          42          43          44          45
 IAtWgt=          12           1           1          16           1
 AtmWgt=  12.0000000   1.0078250   1.0078250  15.9949146   1.0078250
 NucSpn=           0           1           1           0           1
 AtZEff=  -0.0000000  -0.0000000  -0.0000000  -0.0000000  -0.0000000
 NQMom=    0.0000000   0.0000000   0.0000000   0.0000000   0.0000000
 NMagM=    0.0000000   2.7928460   2.7928460   0.0000000   2.7928460
 AtZNuc=   6.0000000   1.0000000   1.0000000   8.0000000   1.0000000
 Leave Link  101 at Fri Apr 14 15:52:35 2023, MaxMem=   524288000 cpu:               1.1 elap:               0.2
 (Enter /dragofs/sw/campus/0.2/software/gaussian/16.gaussian/gaussian/g16_legacy/l103.exe)

 GradGradGradGradGradGradGradGradGradGradGradGradGradGradGradGradGradGrad
 Berny optimization.
 Initialization pass.
                           ----------------------------
                           !    Initial Parameters    !
                           ! (Angstroms and Degrees)  !
 --------------------------                            --------------------------
 ! Name  Definition              Value          Derivative Info.                !
 --------------------------------------------------------------------------------
 ! R1    R(1,2)                  1.0967         estimate D2E/DX2                !
 ! R2    R(1,3)                  1.4215         estimate D2E/DX2                !
 ! R3    R(1,7)                  1.4194         estimate D2E/DX2                !
 ! R4    R(1,8)                  1.5385         estimate D2E/DX2                !
 ! R5    R(3,4)                  0.972          estimate D2E/DX2                !
 ! R6    R(5,6)                  1.0986         estimate D2E/DX2                !
 ! R7    R(5,7)                  1.4429         estimate D2E/DX2                !
 ! R8    R(5,15)                 1.539          estimate D2E/DX2                !
 ! R9    R(5,19)                 1.533          estimate D2E/DX2                !
 ! R10   R(8,9)                  1.095          estimate D2E/DX2                !
 ! R11   R(8,10)                 1.4344         estimate D2E/DX2                !
 ! R12   R(8,12)                 1.5417         estimate D2E/DX2                !
 ! R13   R(10,11)                0.9789         estimate D2E/DX2                !
 ! R14   R(12,13)                1.1008         estimate D2E/DX2                !
 ! R15   R(12,14)                1.4532         estimate D2E/DX2                !
 ! R16   R(12,15)                1.5337         estimate D2E/DX2                !
 ! R17   R(14,24)                1.4722         estimate D2E/DX2                !
 ! R18   R(15,16)                1.086          estimate D2E/DX2                !
 ! R19   R(15,17)                1.4295         estimate D2E/DX2                !
 ! R20   R(17,18)                0.9765         estimate D2E/DX2                !
 ! R21   R(19,20)                1.0934         estimate D2E/DX2                !
 ! R22   R(19,21)                1.0947         estimate D2E/DX2                !
 ! R23   R(19,22)                1.4282         estimate D2E/DX2                !
 ! R24   R(22,23)                0.9765         estimate D2E/DX2                !
 ! R25   R(24,25)                1.0964         estimate D2E/DX2                !
 ! R26   R(24,28)                1.3987         estimate D2E/DX2                !
 ! R27   R(24,29)                1.5422         estimate D2E/DX2                !
 ! R28   R(26,27)                1.0988         estimate D2E/DX2                !
 ! R29   R(26,28)                1.4489         estimate D2E/DX2                !
 ! R30   R(26,37)                1.5367         estimate D2E/DX2                !
 ! R31   R(26,41)                1.5348         estimate D2E/DX2                !
 ! R32   R(29,30)                1.0966         estimate D2E/DX2                !
 ! R33   R(29,31)                1.4358         estimate D2E/DX2                !
 ! R34   R(29,33)                1.5217         estimate D2E/DX2                !
 ! R35   R(31,32)                0.9798         estimate D2E/DX2                !
 ! R36   R(33,34)                1.0973         estimate D2E/DX2                !
 ! R37   R(33,35)                1.4359         estimate D2E/DX2                !
 ! R38   R(33,37)                1.5276         estimate D2E/DX2                !
 ! R39   R(35,36)                0.9791         estimate D2E/DX2                !
 ! R40   R(37,38)                1.0976         estimate D2E/DX2                !
 ! R41   R(37,39)                1.4276         estimate D2E/DX2                !
 ! R42   R(39,40)                0.9791         estimate D2E/DX2                !
 ! R43   R(41,42)                1.0933         estimate D2E/DX2                !
 ! R44   R(41,43)                1.0956         estimate D2E/DX2                !
 ! R45   R(41,44)                1.4289         estimate D2E/DX2                !
 ! R46   R(44,45)                0.97           estimate D2E/DX2                !
 ! A1    A(2,1,3)              107.2359         estimate D2E/DX2                !
 ! A2    A(2,1,7)              110.6477         estimate D2E/DX2                !
 ! A3    A(2,1,8)              111.0713         estimate D2E/DX2                !
 ! A4    A(3,1,7)              108.3309         estimate D2E/DX2                !
 ! A5    A(3,1,8)              107.7471         estimate D2E/DX2                !
 ! A6    A(7,1,8)              111.6239         estimate D2E/DX2                !
 ! A7    A(1,3,4)              104.7607         estimate D2E/DX2                !
 ! A8    A(6,5,7)              108.421          estimate D2E/DX2                !
 ! A9    A(6,5,15)             111.0696         estimate D2E/DX2                !
 ! A10   A(6,5,19)             107.7439         estimate D2E/DX2                !
 ! A11   A(7,5,15)             110.6005         estimate D2E/DX2                !
 ! A12   A(7,5,19)             107.613          estimate D2E/DX2                !
 ! A13   A(15,5,19)            111.2565         estimate D2E/DX2                !
 ! A14   A(1,7,5)              111.5634         estimate D2E/DX2                !
 ! A15   A(1,8,9)              109.6842         estimate D2E/DX2                !
 ! A16   A(1,8,10)             110.4589         estimate D2E/DX2                !
 ! A17   A(1,8,12)             109.3393         estimate D2E/DX2                !
 ! A18   A(9,8,10)             106.1361         estimate D2E/DX2                !
 ! A19   A(9,8,12)             109.8199         estimate D2E/DX2                !
 ! A20   A(10,8,12)            111.3535         estimate D2E/DX2                !
 ! A21   A(8,10,11)            105.2833         estimate D2E/DX2                !
 ! A22   A(8,12,13)            104.049          estimate D2E/DX2                !
 ! A23   A(8,12,14)            110.6498         estimate D2E/DX2                !
 ! A24   A(8,12,15)            115.8282         estimate D2E/DX2                !
 ! A25   A(13,12,14)            99.6409         estimate D2E/DX2                !
 ! A26   A(13,12,15)           103.9862         estimate D2E/DX2                !
 ! A27   A(14,12,15)           119.6702         estimate D2E/DX2                !
 ! A28   A(12,14,24)           115.1835         estimate D2E/DX2                !
 ! A29   A(5,15,12)            109.287          estimate D2E/DX2                !
 ! A30   A(5,15,16)            108.0546         estimate D2E/DX2                !
 ! A31   A(5,15,17)            110.3486         estimate D2E/DX2                !
 ! A32   A(12,15,16)           112.5952         estimate D2E/DX2                !
 ! A33   A(12,15,17)           109.8378         estimate D2E/DX2                !
 ! A34   A(16,15,17)           106.6774         estimate D2E/DX2                !
 ! A35   A(15,17,18)           107.1741         estimate D2E/DX2                !
 ! A36   A(5,19,20)            111.6471         estimate D2E/DX2                !
 ! A37   A(5,19,21)            111.1872         estimate D2E/DX2                !
 ! A38   A(5,19,22)            109.5726         estimate D2E/DX2                !
 ! A39   A(20,19,21)           108.9015         estimate D2E/DX2                !
 ! A40   A(20,19,22)           108.1464         estimate D2E/DX2                !
 ! A41   A(21,19,22)           107.2402         estimate D2E/DX2                !
 ! A42   A(19,22,23)           105.5009         estimate D2E/DX2                !
 ! A43   A(14,24,25)           104.9472         estimate D2E/DX2                !
 ! A44   A(14,24,28)           113.9411         estimate D2E/DX2                !
 ! A45   A(14,24,29)           104.751          estimate D2E/DX2                !
 ! A46   A(25,24,28)           110.3323         estimate D2E/DX2                !
 ! A47   A(25,24,29)           110.3702         estimate D2E/DX2                !
 ! A48   A(28,24,29)           112.1459         estimate D2E/DX2                !
 ! A49   A(27,26,28)           108.0606         estimate D2E/DX2                !
 ! A50   A(27,26,37)           110.7562         estimate D2E/DX2                !
 ! A51   A(27,26,41)           107.9219         estimate D2E/DX2                !
 ! A52   A(28,26,37)           110.8292         estimate D2E/DX2                !
 ! A53   A(28,26,41)           108.3019         estimate D2E/DX2                !
 ! A54   A(37,26,41)           110.8587         estimate D2E/DX2                !
 ! A55   A(24,28,26)           112.2883         estimate D2E/DX2                !
 ! A56   A(24,29,30)           110.3819         estimate D2E/DX2                !
 ! A57   A(24,29,31)           111.466          estimate D2E/DX2                !
 ! A58   A(24,29,33)           110.0981         estimate D2E/DX2                !
 ! A59   A(30,29,31)           106.2775         estimate D2E/DX2                !
 ! A60   A(30,29,33)           109.6453         estimate D2E/DX2                !
 ! A61   A(31,29,33)           108.8851         estimate D2E/DX2                !
 ! A62   A(29,31,32)           104.9288         estimate D2E/DX2                !
 ! A63   A(29,33,34)           110.832          estimate D2E/DX2                !
 ! A64   A(29,33,35)           110.2436         estimate D2E/DX2                !
 ! A65   A(29,33,37)           110.2283         estimate D2E/DX2                !
 ! A66   A(34,33,35)           105.723          estimate D2E/DX2                !
 ! A67   A(34,33,37)           110.6496         estimate D2E/DX2                !
 ! A68   A(35,33,37)           109.0615         estimate D2E/DX2                !
 ! A69   A(33,35,36)           105.1301         estimate D2E/DX2                !
 ! A70   A(26,37,33)           109.4399         estimate D2E/DX2                !
 ! A71   A(26,37,38)           110.3799         estimate D2E/DX2                !
 ! A72   A(26,37,39)           111.451          estimate D2E/DX2                !
 ! A73   A(33,37,38)           109.4551         estimate D2E/DX2                !
 ! A74   A(33,37,39)           108.8122         estimate D2E/DX2                !
 ! A75   A(38,37,39)           107.2526         estimate D2E/DX2                !
 ! A76   A(37,39,40)           105.1869         estimate D2E/DX2                !
 ! A77   A(26,41,42)           111.6544         estimate D2E/DX2                !
 ! A78   A(26,41,43)           111.1254         estimate D2E/DX2                !
 ! A79   A(26,41,44)           110.1985         estimate D2E/DX2                !
 ! A80   A(42,41,43)           108.9388         estimate D2E/DX2                !
 ! A81   A(42,41,44)           107.3547         estimate D2E/DX2                !
 ! A82   A(43,41,44)           107.4033         estimate D2E/DX2                !
 ! A83   A(41,44,45)           106.8229         estimate D2E/DX2                !
 ! D1    D(2,1,3,4)             59.7403         estimate D2E/DX2                !
 ! D2    D(7,1,3,4)            -59.7136         estimate D2E/DX2                !
 ! D3    D(8,1,3,4)            179.3793         estimate D2E/DX2                !
 ! D4    D(2,1,7,5)             59.3887         estimate D2E/DX2                !
 ! D5    D(3,1,7,5)            176.674          estimate D2E/DX2                !
 ! D6    D(8,1,7,5)            -64.8522         estimate D2E/DX2                !
 ! D7    D(2,1,8,9)            167.4935         estimate D2E/DX2                !
 ! D8    D(2,1,8,10)            50.8459         estimate D2E/DX2                !
 ! D9    D(2,1,8,12)           -72.0291         estimate D2E/DX2                !
 ! D10   D(3,1,8,9)             50.318          estimate D2E/DX2                !
 ! D11   D(3,1,8,10)           -66.3296         estimate D2E/DX2                !
 ! D12   D(3,1,8,12)           170.7954         estimate D2E/DX2                !
 ! D13   D(7,1,8,9)            -68.5039         estimate D2E/DX2                !
 ! D14   D(7,1,8,10)           174.8485         estimate D2E/DX2                !
 ! D15   D(7,1,8,12)            51.9735         estimate D2E/DX2                !
 ! D16   D(6,5,7,1)            -56.5116         estimate D2E/DX2                !
 ! D17   D(15,5,7,1)            65.4936         estimate D2E/DX2                !
 ! D18   D(19,5,7,1)          -172.7917         estimate D2E/DX2                !
 ! D19   D(6,5,15,12)           67.0187         estimate D2E/DX2                !
 ! D20   D(6,5,15,16)         -170.1467         estimate D2E/DX2                !
 ! D21   D(6,5,15,17)          -53.862          estimate D2E/DX2                !
 ! D22   D(7,5,15,12)          -53.4178         estimate D2E/DX2                !
 ! D23   D(7,5,15,16)           69.4168         estimate D2E/DX2                !
 ! D24   D(7,5,15,17)         -174.2985         estimate D2E/DX2                !
 ! D25   D(19,5,15,12)        -172.9608         estimate D2E/DX2                !
 ! D26   D(19,5,15,16)         -50.1262         estimate D2E/DX2                !
 ! D27   D(19,5,15,17)          66.1585         estimate D2E/DX2                !
 ! D28   D(6,5,19,20)           59.3017         estimate D2E/DX2                !
 ! D29   D(6,5,19,21)         -178.853          estimate D2E/DX2                !
 ! D30   D(6,5,19,22)          -60.4825         estimate D2E/DX2                !
 ! D31   D(7,5,19,20)          176.0252         estimate D2E/DX2                !
 ! D32   D(7,5,19,21)          -62.1296         estimate D2E/DX2                !
 ! D33   D(7,5,19,22)           56.2409         estimate D2E/DX2                !
 ! D34   D(15,5,19,20)         -62.6693         estimate D2E/DX2                !
 ! D35   D(15,5,19,21)          59.1759         estimate D2E/DX2                !
 ! D36   D(15,5,19,22)         177.5464         estimate D2E/DX2                !
 ! D37   D(1,8,10,11)           52.4436         estimate D2E/DX2                !
 ! D38   D(9,8,10,11)          -66.385          estimate D2E/DX2                !
 ! D39   D(12,8,10,11)         174.1363         estimate D2E/DX2                !
 ! D40   D(1,8,12,13)           69.545          estimate D2E/DX2                !
 ! D41   D(1,8,12,14)          175.7333         estimate D2E/DX2                !
 ! D42   D(1,8,12,15)          -43.9026         estimate D2E/DX2                !
 ! D43   D(9,8,12,13)         -170.0606         estimate D2E/DX2                !
 ! D44   D(9,8,12,14)          -63.8723         estimate D2E/DX2                !
 ! D45   D(9,8,12,15)           76.4918         estimate D2E/DX2                !
 ! D46   D(10,8,12,13)         -52.7958         estimate D2E/DX2                !
 ! D47   D(10,8,12,14)          53.3925         estimate D2E/DX2                !
 ! D48   D(10,8,12,15)        -166.2434         estimate D2E/DX2                !
 ! D49   D(8,12,14,24)          80.0975         Frozen                          !
 ! D50   D(13,12,14,24)       -170.8064         estimate D2E/DX2                !
 ! D51   D(15,12,14,24)        -58.5397         estimate D2E/DX2                !
 ! D52   D(8,12,15,5)           44.9898         estimate D2E/DX2                !
 ! D53   D(8,12,15,16)         -75.095          estimate D2E/DX2                !
 ! D54   D(8,12,15,17)         166.1811         estimate D2E/DX2                !
 ! D55   D(13,12,15,5)         -68.4939         estimate D2E/DX2                !
 ! D56   D(13,12,15,16)        171.4213         estimate D2E/DX2                !
 ! D57   D(13,12,15,17)         52.6974         estimate D2E/DX2                !
 ! D58   D(14,12,15,5)        -178.403          estimate D2E/DX2                !
 ! D59   D(14,12,15,16)         61.5122         estimate D2E/DX2                !
 ! D60   D(14,12,15,17)        -57.2117         estimate D2E/DX2                !
 ! D61   D(12,14,24,25)        120.8956         estimate D2E/DX2                !
 ! D62   D(12,14,24,28)          0.0973         Frozen                          !
 ! D63   D(12,14,24,29)       -122.819          estimate D2E/DX2                !
 ! D64   D(5,15,17,18)         164.4614         estimate D2E/DX2                !
 ! D65   D(12,15,17,18)         43.9101         estimate D2E/DX2                !
 ! D66   D(16,15,17,18)        -78.3981         estimate D2E/DX2                !
 ! D67   D(5,19,22,23)         -53.2299         estimate D2E/DX2                !
 ! D68   D(20,19,22,23)       -175.1362         estimate D2E/DX2                !
 ! D69   D(21,19,22,23)         67.5643         estimate D2E/DX2                !
 ! D70   D(14,24,28,26)       -178.1527         estimate D2E/DX2                !
 ! D71   D(25,24,28,26)         64.1056         estimate D2E/DX2                !
 ! D72   D(29,24,28,26)        -59.3707         estimate D2E/DX2                !
 ! D73   D(14,24,29,30)         58.2417         estimate D2E/DX2                !
 ! D74   D(14,24,29,31)        -59.6236         estimate D2E/DX2                !
 ! D75   D(14,24,29,33)        179.4302         estimate D2E/DX2                !
 ! D76   D(25,24,29,30)        170.7164         estimate D2E/DX2                !
 ! D77   D(25,24,29,31)         52.851          estimate D2E/DX2                !
 ! D78   D(25,24,29,33)        -68.0952         estimate D2E/DX2                !
 ! D79   D(28,24,29,30)        -65.8286         estimate D2E/DX2                !
 ! D80   D(28,24,29,31)        176.3061         estimate D2E/DX2                !
 ! D81   D(28,24,29,33)         55.3599         estimate D2E/DX2                !
 ! D82   D(27,26,28,24)        -61.0747         estimate D2E/DX2                !
 ! D83   D(37,26,28,24)         60.4512         estimate D2E/DX2                !
 ! D84   D(41,26,28,24)       -177.7394         estimate D2E/DX2                !
 ! D85   D(27,26,37,33)         62.9784         estimate D2E/DX2                !
 ! D86   D(27,26,37,38)       -176.4973         estimate D2E/DX2                !
 ! D87   D(27,26,37,39)        -57.4254         estimate D2E/DX2                !
 ! D88   D(28,26,37,33)        -56.9495         estimate D2E/DX2                !
 ! D89   D(28,26,37,38)         63.5748         estimate D2E/DX2                !
 ! D90   D(28,26,37,39)       -177.3533         estimate D2E/DX2                !
 ! D91   D(41,26,37,33)       -177.2484         estimate D2E/DX2                !
 ! D92   D(41,26,37,38)        -56.7241         estimate D2E/DX2                !
 ! D93   D(41,26,37,39)         62.3478         estimate D2E/DX2                !
 ! D94   D(27,26,41,42)         68.7867         estimate D2E/DX2                !
 ! D95   D(27,26,41,43)       -169.3587         estimate D2E/DX2                !
 ! D96   D(27,26,41,44)        -50.4245         estimate D2E/DX2                !
 ! D97   D(28,26,41,42)       -174.459          estimate D2E/DX2                !
 ! D98   D(28,26,41,43)        -52.6045         estimate D2E/DX2                !
 ! D99   D(28,26,41,44)         66.3297         estimate D2E/DX2                !
 ! D100  D(37,26,41,42)        -52.6678         estimate D2E/DX2                !
 ! D101  D(37,26,41,43)         69.1868         estimate D2E/DX2                !
 ! D102  D(37,26,41,44)       -171.879          estimate D2E/DX2                !
 ! D103  D(24,29,31,32)         55.2401         estimate D2E/DX2                !
 ! D104  D(30,29,31,32)        -65.0701         estimate D2E/DX2                !
 ! D105  D(33,29,31,32)        176.8925         estimate D2E/DX2                !
 ! D106  D(24,29,33,34)         70.28           estimate D2E/DX2                !
 ! D107  D(24,29,33,35)       -173.0175         estimate D2E/DX2                !
 ! D108  D(24,29,33,37)        -52.5625         estimate D2E/DX2                !
 ! D109  D(30,29,33,34)       -168.092          estimate D2E/DX2                !
 ! D110  D(30,29,33,35)        -51.3896         estimate D2E/DX2                !
 ! D111  D(30,29,33,37)         69.0654         estimate D2E/DX2                !
 ! D112  D(31,29,33,34)        -52.201          estimate D2E/DX2                !
 ! D113  D(31,29,33,35)         64.5014         estimate D2E/DX2                !
 ! D114  D(31,29,33,37)       -175.0436         estimate D2E/DX2                !
 ! D115  D(29,33,35,36)        -49.5301         estimate D2E/DX2                !
 ! D116  D(34,33,35,36)         70.3112         estimate D2E/DX2                !
 ! D117  D(37,33,35,36)       -170.6837         estimate D2E/DX2                !
 ! D118  D(29,33,37,26)         53.9764         estimate D2E/DX2                !
 ! D119  D(29,33,37,38)        -67.11           estimate D2E/DX2                !
 ! D120  D(29,33,37,39)        175.9774         estimate D2E/DX2                !
 ! D121  D(34,33,37,26)        -68.973          estimate D2E/DX2                !
 ! D122  D(34,33,37,38)        169.9407         estimate D2E/DX2                !
 ! D123  D(34,33,37,39)         53.0281         estimate D2E/DX2                !
 ! D124  D(35,33,37,26)        175.1393         estimate D2E/DX2                !
 ! D125  D(35,33,37,38)         54.0529         estimate D2E/DX2                !
 ! D126  D(35,33,37,39)        -62.8597         estimate D2E/DX2                !
 ! D127  D(26,37,39,40)        169.1058         estimate D2E/DX2                !
 ! D128  D(33,37,39,40)         48.3338         estimate D2E/DX2                !
 ! D129  D(38,37,39,40)        -69.9759         estimate D2E/DX2                !
 ! D130  D(26,41,44,45)        -51.7958         estimate D2E/DX2                !
 ! D131  D(42,41,44,45)       -173.5929         estimate D2E/DX2                !
 ! D132  D(43,41,44,45)         69.3868         estimate D2E/DX2                !
 --------------------------------------------------------------------------------
 Trust Radius=3.00D-01 FncErr=1.00D-07 GrdErr=1.00D-06 EigMax=2.50D+02 EigMin=1.00D-04
 Number of steps in this run=    270 maximum allowed number of steps=    270.
 GradGradGradGradGradGradGradGradGradGradGradGradGradGradGradGradGradGrad

 Leave Link  103 at Fri Apr 14 15:52:35 2023, MaxMem=   524288000 cpu:               0.1 elap:               0.0
 (Enter /dragofs/sw/campus/0.2/software/gaussian/16.gaussian/gaussian/g16_legacy/l202.exe)
                          Input orientation:                          
 ---------------------------------------------------------------------
 Center     Atomic      Atomic             Coordinates (Angstroms)
 Number     Number       Type             X           Y           Z
 ---------------------------------------------------------------------
      1          6           0       -0.007200    1.115400   -0.628900
      2          1           0       -0.923000    1.147100   -0.026400
      3          8           0       -0.323400    1.656800   -1.904700
      4          1           0       -0.625400    2.562400   -1.721500
      5          6           0        1.327100    1.474200    1.292800
      6          1           0        0.405900    1.479300    1.891300
      7          8           0        1.006000    1.917800   -0.042100
      8          6           0        0.467100   -0.333100   -0.838600
      9          1           0        1.239200   -0.359700   -1.614600
     10          8           0       -0.610200   -1.148700   -1.320000
     11          1           0       -0.964100   -0.674700   -2.099900
     12          6           0        1.037300   -0.880300    0.485100
     13          1           0        0.154200   -0.983400    1.134100
     14          8           0        1.402000   -2.280100    0.346200
     15          6           0        1.957800    0.070800    1.260000
     16          1           0        2.943300    0.155100    0.811700
     17          8           0        2.152200   -0.418000    2.589200
     18          1           0        2.311000   -1.379200    2.522600
     19          6           0        2.287300    2.500900    1.904400
     20          1           0        2.520200    2.264700    2.946300
     21          1           0        3.221300    2.556700    1.336100
     22          8           0        1.689800    3.797500    1.865100
     23          1           0        1.426900    3.935600    0.934900
     24          6           0        2.697900   -2.528000   -0.306900
     25          1           0        3.285600   -3.084200    0.432900
     26          6           0        4.622100   -1.649900   -1.364900
     27          1           0        5.267800   -2.202800   -0.668700
     28          8           0        3.373100   -1.364000   -0.688400
     29          6           0        2.363600   -3.428200   -1.513700
     30          1           0        1.642500   -2.930600   -2.173200
     31          8           0        1.747700   -4.656800   -1.098100
     32          1           0        0.973300   -4.382900   -0.564000
     33          6           0        3.630700   -3.751100   -2.292100
     34          1           0        4.277200   -4.429500   -1.721200
     35          8           0        3.305200   -4.450900   -3.503000
     36          1           0        2.705500   -5.173900   -3.227000
     37          6           0        4.376500   -2.465200   -2.644100
     38          1           0        3.783000   -1.882800   -3.360500
     39          8           0        5.603400   -2.806500   -3.289300
     40          1           0        5.359000   -3.460700   -3.975500
     41          6           0        5.310200   -0.317100   -1.690000
     42          1           0        6.213200   -0.464700   -2.288500
     43          1           0        4.633300    0.355900   -2.227700
     44          8           0        5.701000    0.343300   -0.484600
     45          1           0        4.915600    0.378400    0.083600
 ---------------------------------------------------------------------
                    Distance matrix (angstroms):
                    1          2          3          4          5
     1  C    0.000000
     2  H    1.096677   0.000000
     3  O    1.421535   2.036498   0.000000
     4  H    1.915660   2.228229   0.972048   0.000000
     5  C    2.366860   2.628732   3.602985   3.752658   0.000000
     6  H    2.579628   2.356673   3.869496   3.910116   1.098562
     7  O    1.419420   2.077322   2.303194   2.428448   1.442860
     8  C    1.538534   2.187016   2.391895   3.218228   2.923833
     9  H    2.168188   3.077001   2.567518   3.467972   3.438588
    10  O    2.442822   2.653666   2.880097   3.732787   4.178452
    11  H    2.506782   2.760443   2.425797   3.276694   4.623611
    12  C    2.512926   2.866140   3.741594   4.414277   2.506000
    13  H    2.745757   2.654459   4.053771   4.618974   2.727761
    14  O    3.803431   4.158143   4.852086   5.642299   3.872522
    15  C    2.918965   3.333505   4.211246   4.665869   1.538957
    16  H    3.420958   4.078572   4.506136   4.994779   2.140931
    17  O    4.167792   4.329868   5.534305   5.931271   2.437594
    18  H    4.639939   4.830978   5.979828   6.493923   3.259196
    19  C    3.688082   3.983314   4.694412   4.651317   1.533020
    20  H    4.526665   4.684186   5.655776   5.636646   2.186879
    21  H    4.044970   4.584605   4.886461   4.913863   2.182126
    22  O    4.036521   4.174819   4.779850   4.444021   2.420083
    23  H    3.529255   3.771188   4.039778   3.626855   2.489286
    24  C    4.549243   5.166813   5.403126   6.241601   4.522802
    25  H    5.441194   5.985580   6.400495   7.198712   5.035292
    26  C    5.442334   6.353182   5.973577   6.738464   5.261216
    27  H    6.231987   7.068266   6.905485   7.651492   5.735584
    28  O    4.192540   5.019994   4.926330   5.698413   4.020777
    29  C    5.200756   5.826420   5.764553   6.698103   5.743196
    30  H    4.634273   5.274294   4.998109   5.959904   5.613813
    31  O    6.051290   6.478151   6.693400   7.624768   6.594124
    32  H    5.585418   5.870764   6.321146   7.220307   6.154551
    33  C    6.299474   7.061299   6.710467   7.635460   6.742540
    34  H    7.091905   7.811075   7.631660   8.539447   7.255409
    35  O    7.086335   7.829561   7.281847   8.234667   7.875239
    36  H    7.325583   7.960207   7.588226   8.556387   8.156336
    37  C    6.008207   6.927176   6.294971   7.151710   6.349559
    38  H    5.551257   6.514826   5.613434   6.471485   6.241322
    39  O    7.344240   8.298877   7.547524   8.371442   7.589913
    40  H    7.806185   8.734457   7.922543   8.784719   8.268279
    41  C    5.608274   6.615454   5.973259   6.597262   5.288756
    42  H    6.629055   7.657698   6.882965   7.500085   6.360740
    43  H    4.966613   6.028614   5.134739   5.725278   4.957366
    44  O    5.761988   6.688305   6.327350   6.817453   4.854800
    45  H    5.028398   5.890013   5.747588   6.223417   3.942115
                    6          7          8          9         10
     6  H    0.000000
     7  O    2.071337   0.000000
     8  C    3.277330   2.447729   0.000000
     9  H    4.045695   2.777435   1.094999   0.000000
    10  O    4.272153   3.694395   1.434407   2.032139   0.000000
    11  H    4.737752   3.851869   1.938015   2.277997   0.978859
    12  C    2.818471   2.847505   1.541667   2.172678   2.458593
    13  H    2.588744   3.244375   2.100557   3.020195   2.575702
    14  O    4.184810   4.234378   2.463452   2.749396   2.846970
    15  C    2.188791   2.452100   2.605656   2.994168   3.839037
    16  H    3.058993   2.754853   3.015526   3.009303   4.344123
    17  O    2.671400   3.700470   3.820547   4.302197   4.842171
    18  H    3.492702   4.376176   3.973910   4.393695   4.832403
    19  C    2.140912   2.402207   4.343815   4.654558   5.666731
    20  H    2.490009   3.368037   5.028842   5.415741   6.296985
    21  H    3.065210   2.686109   4.545974   4.597906   5.955271
    22  O    2.650120   2.763741   5.085946   5.440006   6.316625
    23  H    2.826756   2.281053   4.721051   4.998478   5.923213
    24  C    5.113101   4.764219   3.174391   2.922227   3.724562
    25  H    5.589735   5.517446   4.138744   3.975287   4.689997
    26  C    6.178274   5.249234   4.390328   3.629184   5.256442
    27  H    6.614343   5.961117   5.154742   4.530051   6.007179
    28  O    4.852163   4.097692   3.087094   2.533771   4.038806
    29  C    6.285712   5.708625   3.692170   3.269579   3.751950
    30  H    6.123443   5.334201   3.147972   2.661618   2.996294
    31  O    6.956196   6.700046   4.516819   4.357799   4.232694
    32  H    6.380896   6.322363   4.090541   4.166606   3.679546
    33  C    7.433522   6.639878   4.878909   4.204744   5.069783
    34  H    7.934169   7.335417   5.663598   5.079772   5.900109
    35  O    8.524769   7.604242   5.666579   4.957048   5.567798
    36  H    8.703461   7.957644   5.843649   5.284543   5.552725
    37  C    7.203791   6.110758   4.805111   3.916076   5.324809
    38  H    7.091539   5.759173   4.444856   3.440773   4.899260
    39  O    8.498277   7.348429   6.205257   5.276144   6.725717
    40  H    9.129958   7.959178   6.599448   5.671226   6.930251
    41  C    6.332845   5.122157   4.917393   4.071921   5.989958
    42  H    7.414486   6.151224   5.927663   5.020542   6.925651
    43  H    6.008253   4.513722   4.445396   3.522483   5.530102
    44  O    5.913838   4.971708   5.289286   4.656046   6.538746
    45  H    4.981682   4.203632   4.598460   4.116381   5.902253
                   11         12         13         14         15
    11  H    0.000000
    12  C    3.275683   0.000000
    13  H    3.435789   1.100771   0.000000
    14  O    3.762864   1.453182   1.964490   0.000000
    15  C    4.514665   1.533748   2.092884   2.582765   0.000000
    16  H    4.943051   2.193526   3.029720   2.919331   1.085951
    17  O    5.636034   2.425688   2.535547   3.010194   1.429507
    18  H    5.708775   2.454103   2.595453   2.524801   1.954842
    19  C    6.057265   3.874200   4.157382   5.105850   2.535588
    20  H    6.800335   4.259991   4.408194   5.354073   2.823668
    21  H    6.305998   4.160171   4.688306   5.261596   2.789610
    22  O    6.539494   4.920566   5.074390   6.271133   3.785005
    23  H    6.015127   4.852525   5.084880   6.243566   3.914617
    24  C    4.478818   2.469772   3.306460   1.472193   3.123569
    25  H    5.502792   3.148770   3.835454   2.049888   3.521530
    26  C    5.718118   4.106772   5.162495   3.700549   4.116965
    27  H    6.574192   4.580108   5.557511   3.997550   4.454800
    28  O    4.612892   2.658389   3.718559   2.407254   2.803210
    29  C    4.358782   3.499438   4.227214   2.387894   4.483424
    30  H    3.448017   3.411240   4.116413   2.613114   4.571070
    31  O    4.920832   4.156097   4.584302   2.802537   5.287247
    32  H    4.456821   3.656899   3.887296   2.331098   4.912399
    33  C    5.532935   4.762358   5.611155   3.753874   5.479318
    34  H    6.458573   5.287867   6.085020   4.142564   5.875361
    35  O    5.869864   5.813561   6.592045   4.811537   6.704284
    36  H    5.914315   5.915875   6.564192   4.779221   6.942557
    37  C    5.658980   4.842939   5.856479   4.221825   5.246275
    38  H    5.058021   4.830374   5.846241   4.423419   5.338251
    39  O    7.006518   6.229415   7.251479   5.580835   6.501183
    40  H    7.159697   6.725512   7.702920   5.977354   7.172873
    41  C    6.297836   4.827621   5.916404   4.824262   4.482360
    42  H    7.182848   5.886894   6.978160   5.777973   5.566601
    43  H    5.692922   4.671048   5.758278   4.900485   4.404956
    44  O    6.933187   4.918090   5.928517   5.104298   4.138772
    45  H    6.359840   4.097162   5.062507   4.413838   3.197986
                   16         17         18         19         20
    16  H    0.000000
    17  O    2.028248   0.000000
    18  H    2.383497   0.976503   0.000000
    19  C    2.669664   3.001196   3.929110   0.000000
    20  H    3.030832   2.731268   3.674411   1.093430   0.000000
    21  H    2.473856   3.400305   4.210432   1.094730   1.780323
    22  O    3.993494   4.302159   5.255133   1.428188   2.051349
    23  H    4.075148   4.713449   5.616896   1.933541   2.834244
    24  C    2.917278   3.624539   3.078231   5.508927   5.795245
    25  H    3.279287   3.611488   2.867702   5.861336   5.959341
    26  C    3.288462   4.822125   4.530686   5.776569   6.191003
    27  H    3.626924   4.848339   4.427796   6.134250   6.369936
    28  O    2.177772   3.623282   3.382131   4.779019   5.206337
    29  C    4.310867   5.093111   4.526907   6.844228   7.233618
    30  H    4.485895   5.408642   4.990418   6.822300   7.346481
    31  O    5.313302   5.632693   4.916242   7.780671   8.053638
    32  H    5.134870   5.201241   4.509851   7.430094   7.675004
    33  C    5.036317   6.092832   5.527102   7.648715   8.053812
    34  H    5.404945   6.259976   5.583915   8.070633   8.347749
    35  O    6.321617   7.396526   6.836054   8.865868   9.343927
    36  H    6.690731   7.533453   6.900238   9.241683   9.668337
    37  C    4.567558   6.043672   5.669257   7.050940   7.554494
    38  H    4.718621   6.340669   6.085332   7.012355   7.653244
    39  O    5.715366   7.223052   6.830466   8.132622   8.608478
    40  H    6.467372   7.914346   7.473169   8.919038   9.420738
    41  C    3.476160   5.319276   5.279134   5.477112   5.995421
    42  H    4.548367   6.347114   6.261802   6.464355   6.963548
    43  H    3.483443   5.473327   5.564980   5.213347   5.905843
    44  O    3.052986   4.756239   4.847923   4.692111   5.057701
    45  H    2.114228   3.814271   3.977665   3.837744   4.182239
                   21         22         23         24         25
    21  H    0.000000
    22  O    2.040813   0.000000
    23  H    2.298303   0.976453   0.000000
    24  C    5.369131   6.763564   6.703405   0.000000
    25  H    5.713113   7.208021   7.279036   1.096382   0.000000
    26  C    5.191640   6.978929   6.833461   2.364946   2.659988
    27  H    5.555198   7.431408   7.416468   2.615538   2.433003
    28  O    4.415148   5.999579   5.874398   1.398690   2.055251
    29  C    6.684014   8.005063   7.816559   1.542233   2.181209
    30  H    6.702108   7.847129   7.539991   2.181520   3.084660
    31  O    7.754444   8.958744   8.835459   2.461842   2.679957
    32  H    7.538032   8.563460   8.464626   2.545781   2.833225
    33  C    7.288332   8.833503   8.622971   2.511396   2.826566
    34  H    7.698636   9.340220   9.227891   2.847830   2.726399
    35  O    8.516477   9.973070   9.672453   3.779076   4.166481
    36  H    8.991669  10.365672  10.096495   3.940537   4.254201
    37  C    6.511218   8.171454   7.904405   2.878219   3.322823
    38  H    6.487119   7.997136   7.606277   3.304270   4.010069
    39  O    7.472124   9.246454   8.985707   4.173033   4.393642
    40  H    8.306140  10.012847   9.709722   4.627095   4.886177
    41  C    4.666852   6.532684   6.328947   3.691227   4.032685
    42  H    5.587311   7.475285   7.256832   4.532249   4.778979
    43  H    4.420174   6.104082   5.753025   3.968895   4.552952
    44  O    3.789855   5.791573   5.760862   4.158672   4.292286
    45  H    3.030577   5.026905   5.054643   3.676662   3.842982
                   26         27         28         29         30
    26  C    0.000000
    27  H    1.098782   0.000000
    28  O    1.448928   2.072164   0.000000
    29  C    2.878422   3.263435   2.441543   0.000000
    30  H    3.342388   3.991994   2.766558   1.096600   0.000000
    31  O    4.168310   4.312494   3.694903   1.435797   2.036338
    32  H    4.628658   4.817315   3.858532   1.935540   2.268596
    33  C    2.501523   2.777185   2.887292   1.521747   2.154135
    34  H    2.823488   2.654663   3.358774   2.169683   3.064743
    35  O    3.761821   4.115703   4.177982   2.426899   2.616152
    36  H    4.422595   4.683771   4.626610   2.469769   2.696824
    37  C    1.536680   2.182997   2.458499   2.501388   2.813023
    38  H    2.177326   3.090763   2.752688   2.795287   2.662575
    39  O    2.450304   2.710097   3.717489   3.746408   4.117015
    40  H    3.261480   3.539146   4.375497   3.877362   4.164332
    41  C    1.534773   2.144928   2.418999   4.288645   4.529447
    42  H    2.188455   2.557054   3.381601   4.919560   5.194733
    43  H    2.183525   3.062681   2.629754   4.469983   4.443978
    44  O    2.431419   2.589243   2.894050   5.140185   5.480987
    45  H    2.509640   2.711567   2.451785   4.853275   5.172602
                   31         32         33         34         35
    31  O    0.000000
    32  H    0.979785   0.000000
    33  C    2.406578   3.232225   0.000000
    34  H    2.615012   3.501005   1.097322   0.000000
    35  O    2.872585   3.752346   1.435949   2.029791   0.000000
    36  H    2.391022   3.273800   1.937626   2.300393   0.979053
    37  C    3.755505   4.425625   1.527632   2.172574   2.414207
    38  H    4.117763   4.686718   2.157596   3.068749   2.616054
    39  O    4.805350   5.599118   2.403793   2.617608   2.833980
    40  H    4.769861   5.632331   2.430059   2.681554   2.328486
    41  C    5.645773   6.050397   3.869832   4.240271   4.939159
    42  H    6.239507   6.766295   4.179682   4.448546   5.081463
    43  H    5.893203   6.214477   4.228097   4.825288   5.147384
    44  O    6.403590   6.685388   4.931258   5.131862   6.151012
    45  H    6.065084   6.215392   4.934338   5.175013   6.227297
                   36         37         38         39         40
    36  H    0.000000
    37  C    3.235594   0.000000
    38  H    3.465569   1.097570   0.000000
    39  O    3.742498   1.427604   2.042583   0.000000
    40  H    3.245977   1.931050   2.313389   0.979071   0.000000
    41  C    5.721480   2.529118   2.752149   2.973355   3.886916
    42  H    5.946537   2.738963   3.010990   2.618680   3.542830
    43  H    5.940850   2.863205   2.649155   3.474027   4.260033
    44  O    6.850786   3.782250   4.111575   4.218662   5.174337
    45  H    6.831738   3.977064   4.272895   4.689681   5.604604
                   41         42         43         44         45
    41  C    0.000000
    42  H    1.093342   0.000000
    43  H    1.095556   1.781338   0.000000
    44  O    1.428930   2.041879   2.044148   0.000000
    45  H    1.945530   2.832215   2.328585   0.970019   0.000000
 Stoichiometry    C12H22O11
 Framework group  C1[X(C12H22O11)]
 Deg. of freedom   129
 Full point group                 C1      NOp   1
 Largest Abelian subgroup         C1      NOp   1
 Largest concise Abelian subgroup C1      NOp   1
                         Standard orientation:                         
 ---------------------------------------------------------------------
 Center     Atomic      Atomic             Coordinates (Angstroms)
 Number     Number       Type             X           Y           Z
 ---------------------------------------------------------------------
      1          6           0       -2.479938   -1.406149   -1.208699
      2          1           0       -3.162129   -2.159091   -0.795910
      3          8           0       -2.414125   -1.621750   -2.612247
      4          1           0       -3.329132   -1.514811   -2.922413
      5          6           0       -3.149965    0.167783    0.427097
      6          1           0       -3.811668   -0.601132    0.848708
      7          8           0       -2.981445   -0.097939   -0.981036
      8          6           0       -1.060033   -1.575770   -0.641084
      9          1           0       -0.355883   -0.971122   -1.222113
     10          8           0       -0.624715   -2.935706   -0.777448
     11          1           0       -0.760354   -3.156627   -1.721355
     12          6           0       -1.042528   -1.125921    0.833388
     13          1           0       -1.628964   -1.897621    1.355180
     14          8           0        0.261372   -1.367890    1.427556
     15          6           0       -1.787680    0.178416    1.142958
     16          1           0       -1.242194    1.058425    0.815361
     17          8           0       -1.969049    0.310161    2.554778
     18          1           0       -1.124311    0.063860    2.978231
     19          6           0       -3.859449    1.520001    0.562329
     20          1           0       -4.083826    1.755152    1.606335
     21          1           0       -3.254612    2.328255    0.138852
     22          8           0       -5.090473    1.488869   -0.161089
     23          1           0       -4.855489    1.199878   -1.063712
     24          6           0        1.288843   -0.360942    1.114972
     25          1           0        1.601616    0.035460    2.088158
     26          6           0        1.885940    1.621243   -0.028440
     27          1           0        2.240403    2.066834    0.911308
     28          8           0        0.836398    0.674768    0.290998
     29          6           0        2.437463   -1.160143    0.466565
     30          1           0        2.078173   -1.692274   -0.422411
     31          8           0        2.947603   -2.163804    1.357595
     32          1           0        2.166345   -2.699177    1.608574
     33          6           0        3.572175   -0.223432    0.078345
     34          1           0        4.085101    0.158722    0.969962
     35          8           0        4.570147   -0.935168   -0.669607
     36          1           0        4.760057   -1.738183   -0.142687
     37          6           0        3.038852    0.928467   -0.771570
     38          1           0        2.692066    0.539872   -1.737693
     39          8           0        4.107622    1.836262   -1.039322
     40          1           0        4.849866    1.275634   -1.344854
     41          6           0        1.279974    2.742363   -0.883672
     42          1           0        2.045414    3.437886   -1.238278
     43          1           0        0.743073    2.334130   -1.746995
     44          8           0        0.341541    3.497196   -0.114638
     45          1           0       -0.274480    2.860422    0.280297
 ---------------------------------------------------------------------
 Rotational constants (GHZ):           0.3660619           0.1697778           0.1471933
 Leave Link  202 at Fri Apr 14 15:52:35 2023, MaxMem=   524288000 cpu:               0.0 elap:               0.0
 (Enter /dragofs/sw/campus/0.2/software/gaussian/16.gaussian/gaussian/g16_legacy/l301.exe)
 Standard basis: 6-311G(d,p) (5D, 7F)
 Ernie: Thresh=  0.10000D-02 Tol=  0.10000D-05 Strict=F.
 There are   569 symmetry adapted cartesian basis functions of A   symmetry.
 There are   546 symmetry adapted basis functions of A   symmetry.
   546 basis functions,   912 primitive gaussians,   569 cartesian basis functions
    91 alpha electrons       91 beta electrons
       nuclear repulsion energy      2342.5245660935 Hartrees.
 IExCor= 4336 DFT=T Ex+Corr=M062X ExCW=0 ScaHFX=  0.540000
 ScaDFX=  1.000000  1.000000  1.000000  1.000000 ScalE2=  1.000000  1.000000
 IRadAn=      5 IRanWt=     -1 IRanGd=            0 ICorTp=0 IEmpDi=  4
 NAtoms=   45 NActive=   45 NUniq=   45 SFac= 1.00D+00 NAtFMM=   60 NAOKFM=F Big=F
 Integral buffers will be    131072 words long.
 Raffenetti 2 integral format.
 Two-electron integral symmetry is turned on.
 Leave Link  301 at Fri Apr 14 15:52:35 2023, MaxMem=   524288000 cpu:               0.4 elap:               0.1
 (Enter /dragofs/sw/campus/0.2/software/gaussian/16.gaussian/gaussian/g16_legacy/l302.exe)
 NPDir=0 NMtPBC=     1 NCelOv=     1 NCel=       1 NClECP=     1 NCelD=      1
         NCelK=      1 NCelE2=     1 NClLst=     1 CellRange=     0.0.
 One-electron integrals computed using PRISM.
 One-electron integral symmetry used in STVInt
 NBasis=   546 RedAO= T EigKep=  8.16D-04  NBF=   546
 NBsUse=   546 1.00D-06 EigRej= -1.00D+00 NBFU=   546
 Precomputing XC quadrature grid using
 IXCGrd= 4 IRadAn=           5 IRanWt=          -1 IRanGd=           0 AccXCQ= 0.00D+00.
 Generated NRdTot=       0 NPtTot=           0 NUsed=           0 NTot=          32
 NSgBfM=   566   566   566   566   566 MxSgAt=    45 MxSgA2=    45.
 Leave Link  302 at Fri Apr 14 15:52:36 2023, MaxMem=   524288000 cpu:               6.1 elap:               0.8
 (Enter /dragofs/sw/campus/0.2/software/gaussian/16.gaussian/gaussian/g16_legacy/l303.exe)
 DipDrv:  MaxL=1.
 Leave Link  303 at Fri Apr 14 15:52:36 2023, MaxMem=   524288000 cpu:               0.4 elap:               0.1
 (Enter /dragofs/sw/campus/0.2/software/gaussian/16.gaussian/gaussian/g16_legacy/l401.exe)
 ExpMin= 1.03D-01 ExpMax= 8.59D+03 ExpMxC= 1.30D+03 IAcc=3 IRadAn=         5 AccDes= 0.00D+00
 Harris functional with IExCor= 1009 and IRadAn=       5 diagonalized for initial guess.
 HarFok:  IExCor= 1009 AccDes= 0.00D+00 IRadAn=         5 IDoV= 1 UseB2=F ITyADJ=14
 ICtDFT=  3500011 ScaDFX=  1.000000  1.000000  1.000000  1.000000
 FoFCou: FMM=F IPFlag=           0 FMFlag=      100000 FMFlg1=           0
         NFxFlg=           0 DoJE=T BraDBF=F KetDBF=T FulRan=T
         wScrn=  0.000000 ICntrl=       500 IOpCl=  0 I1Cent=   200000004 NGrid=           0
         NMat0=    1 NMatS0=      1 NMatT0=    0 NMatD0=    1 NMtDS0=    0 NMtDT0=    0
 Petite list used in FoFCou.
 Harris En= -1297.08715361584    
 JPrj=0 DoOrth=F DoCkMO=F.
 Leave Link  401 at Fri Apr 14 15:52:41 2023, MaxMem=   524288000 cpu:              37.4 elap:               4.7
 (Enter /dragofs/sw/campus/0.2/software/gaussian/16.gaussian/gaussian/g16_legacy/l502.exe)
 Integral symmetry usage will be decided dynamically.
 Closed shell SCF:
 Using DIIS extrapolation, IDIIS=  1040.
 NGot=   524288000 LenX=   523630196 LenY=   523305866
 Requested convergence on RMS density matrix=1.00D-08 within 128 cycles.
 Requested convergence on MAX density matrix=1.00D-06.
 Requested convergence on             energy=1.00D-06.
 No special actions if energy rises.
 Fock matrices will be formed incrementally for  20 cycles.
 Integral accuracy reduced to 1.0D-05 until final iterations.

 Cycle   1  Pass 0  IDiag  1:
 FoFJK:  IHMeth= 1 ICntrl=       0 DoSepK=F KAlg= 0 I1Cent=           0 FoldK=F
 IRaf= 760000000 NMat=       1 IRICut=       1 DoRegI=T DoRafI=F ISym2E= 0 IDoP0=0 IntGTp=1.
 FoFCou: FMM=F IPFlag=           0 FMFlag=      100000 FMFlg1=           0
         NFxFlg=           0 DoJE=F BraDBF=F KetDBF=F FulRan=T
         wScrn=  0.000000 ICntrl=         0 IOpCl=  0 I1Cent=           0 NGrid=           0
         NMat0=    1 NMatS0=      1 NMatT0=    0 NMatD0=    1 NMtDS0=    0 NMtDT0=    0
 Symmetry not used in FoFCou.
 E= -1297.31314403013    
 DIIS: error= 2.35D-02 at cycle   1 NSaved=   1.
 NSaved= 1 IEnMin= 1 EnMin= -1297.31314403013     IErMin= 1 ErrMin= 2.35D-02
 ErrMax= 2.35D-02  0.00D+00 EMaxC= 1.00D-01 BMatC= 8.37D-01 BMatP= 8.37D-01
 IDIUse=3 WtCom= 7.65D-01 WtEn= 2.35D-01
 Coeff-Com:  0.100D+01
 Coeff-En:   0.100D+01
 Coeff:      0.100D+01
 Gap=     0.407 Goal=   None    Shift=    0.000
 GapD=    0.407 DampG=2.000 DampE=0.500 DampFc=1.0000 IDamp=-1.
 RMSDP=2.48D-03 MaxDP=1.76D-01              OVMax= 1.06D-01

 Cycle   2  Pass 0  IDiag  1:
 RMSU=  2.47D-03    CP:  1.02D+00
 E= -1297.37457963716     Delta-E=       -0.061435607024 Rises=F Damp=F
 DIIS: error= 2.41D-02 at cycle   2 NSaved=   2.
 NSaved= 2 IEnMin= 2 EnMin= -1297.37457963716     IErMin= 1 ErrMin= 2.35D-02
 ErrMax= 2.41D-02  0.00D+00 EMaxC= 1.00D-01 BMatC= 6.25D-01 BMatP= 8.37D-01
 IDIUse=3 WtCom= 7.59D-01 WtEn= 2.41D-01
 Coeff-Com:  0.460D+00 0.540D+00
 Coeff-En:   0.462D+00 0.538D+00
 Coeff:      0.460D+00 0.540D+00
 Gap=     0.405 Goal=   None    Shift=    0.000
 RMSDP=1.43D-03 MaxDP=9.17D-02 DE=-6.14D-02 OVMax= 5.69D-02

 Cycle   3  Pass 0  IDiag  1:
 RMSU=  4.58D-04    CP:  1.01D+00  4.54D-01
 E= -1297.77490023902     Delta-E=       -0.400320601863 Rises=F Damp=F
 DIIS: error= 4.21D-03 at cycle   3 NSaved=   3.
 NSaved= 3 IEnMin= 3 EnMin= -1297.77490023902     IErMin= 3 ErrMin= 4.21D-03
 ErrMax= 4.21D-03  0.00D+00 EMaxC= 1.00D-01 BMatC= 2.43D-02 BMatP= 6.25D-01
 IDIUse=3 WtCom= 9.58D-01 WtEn= 4.21D-02
 Coeff-Com:  0.701D-01 0.191D+00 0.739D+00
 Coeff-En:   0.000D+00 0.000D+00 0.100D+01
 Coeff:      0.671D-01 0.183D+00 0.750D+00
 Gap=     0.386 Goal=   None    Shift=    0.000
 RMSDP=2.84D-04 MaxDP=1.19D-02 DE=-4.00D-01 OVMax= 1.45D-02

 Cycle   4  Pass 0  IDiag  1:
 RMSU=  2.01D-04    CP:  1.01D+00  5.12D-01  6.96D-01
 E= -1297.78904301380     Delta-E=       -0.014142774785 Rises=F Damp=F
 DIIS: error= 1.37D-03 at cycle   4 NSaved=   4.
 NSaved= 4 IEnMin= 4 EnMin= -1297.78904301380     IErMin= 4 ErrMin= 1.37D-03
 ErrMax= 1.37D-03  0.00D+00 EMaxC= 1.00D-01 BMatC= 3.35D-03 BMatP= 2.43D-02
 IDIUse=3 WtCom= 9.86D-01 WtEn= 1.37D-02
 Coeff-Com:  0.419D-02 0.508D-01 0.358D+00 0.587D+00
 Coeff-En:   0.000D+00 0.000D+00 0.795D-01 0.920D+00
 Coeff:      0.414D-02 0.501D-01 0.354D+00 0.591D+00
 Gap=     0.378 Goal=   None    Shift=    0.000
 RMSDP=1.12D-04 MaxDP=3.94D-03 DE=-1.41D-02 OVMax= 5.45D-03

 Cycle   5  Pass 0  IDiag  1:
 RMSU=  4.20D-05    CP:  1.01D+00  5.03D-01  7.98D-01  5.54D-01
 E= -1297.79191072845     Delta-E=       -0.002867714642 Rises=F Damp=F
 DIIS: error= 3.78D-04 at cycle   5 NSaved=   5.
 NSaved= 5 IEnMin= 5 EnMin= -1297.79191072845     IErMin= 5 ErrMin= 3.78D-04
 ErrMax= 3.78D-04  0.00D+00 EMaxC= 1.00D-01 BMatC= 9.04D-05 BMatP= 3.35D-03
 IDIUse=3 WtCom= 9.96D-01 WtEn= 3.78D-03
 Coeff-Com: -0.154D-02 0.106D-01 0.968D-01 0.220D+00 0.674D+00
 Coeff-En:   0.000D+00 0.000D+00 0.000D+00 0.000D+00 0.100D+01
 Coeff:     -0.154D-02 0.106D-01 0.964D-01 0.219D+00 0.675D+00
 Gap=     0.377 Goal=   None    Shift=    0.000
 RMSDP=2.16D-05 MaxDP=1.34D-03 DE=-2.87D-03 OVMax= 1.26D-03

 Cycle   6  Pass 0  IDiag  1:
 RMSU=  1.49D-05    CP:  1.01D+00  5.04D-01  8.02D-01  6.02D-01  7.30D-01
 E= -1297.79196450681     Delta-E=       -0.000053778364 Rises=F Damp=F
 DIIS: error= 1.48D-04 at cycle   6 NSaved=   6.
 NSaved= 6 IEnMin= 6 EnMin= -1297.79196450681     IErMin= 6 ErrMin= 1.48D-04
 ErrMax= 1.48D-04  0.00D+00 EMaxC= 1.00D-01 BMatC= 1.77D-05 BMatP= 9.04D-05
 IDIUse=3 WtCom= 9.99D-01 WtEn= 1.48D-03
 Coeff-Com: -0.127D-02 0.591D-03 0.151D-01 0.581D-01 0.350D+00 0.578D+00
 Coeff-En:   0.000D+00 0.000D+00 0.000D+00 0.000D+00 0.729D-01 0.927D+00
 Coeff:     -0.127D-02 0.590D-03 0.151D-01 0.580D-01 0.350D+00 0.578D+00
 Gap=     0.377 Goal=   None    Shift=    0.000
 RMSDP=6.71D-06 MaxDP=5.07D-04 DE=-5.38D-05 OVMax= 4.52D-04

 Initial convergence to 1.0D-05 achieved.  Increase integral accuracy.
 Cycle   7  Pass 1  IDiag  1:
 E= -1297.79197114942     Delta-E=       -0.000006642607 Rises=F Damp=F
 DIIS: error= 2.56D-05 at cycle   1 NSaved=   1.
 NSaved= 1 IEnMin= 1 EnMin= -1297.79197114942     IErMin= 1 ErrMin= 2.56D-05
 ErrMax= 2.56D-05  0.00D+00 EMaxC= 1.00D-01 BMatC= 1.05D-06 BMatP= 1.05D-06
 IDIUse=1 WtCom= 1.00D+00 WtEn= 0.00D+00
 Coeff-Com:  0.100D+01
 Coeff:      0.100D+01
 Gap=     0.377 Goal=   None    Shift=    0.000
 RMSDP=6.71D-06 MaxDP=5.07D-04 DE=-6.64D-06 OVMax= 1.58D-04

 Cycle   8  Pass 1  IDiag  1:
 RMSU=  1.12D-05    CP:  1.00D+00
 E= -1297.79197194668     Delta-E=       -0.000000797262 Rises=F Damp=F
 DIIS: error= 2.05D-05 at cycle   2 NSaved=   2.
 NSaved= 2 IEnMin= 2 EnMin= -1297.79197194668     IErMin= 2 ErrMin= 2.05D-05
 ErrMax= 2.05D-05  0.00D+00 EMaxC= 1.00D-01 BMatC= 3.36D-07 BMatP= 1.05D-06
 IDIUse=1 WtCom= 1.00D+00 WtEn= 0.00D+00
 Coeff-Com:  0.305D+00 0.695D+00
 Coeff:      0.305D+00 0.695D+00
 Gap=     0.377 Goal=   None    Shift=    0.000
 RMSDP=1.31D-06 MaxDP=8.71D-05 DE=-7.97D-07 OVMax= 8.62D-05

 Cycle   9  Pass 1  IDiag  1:
 RMSU=  1.30D-06    CP:  1.00D+00  1.02D+00
 E= -1297.79197210905     Delta-E=       -0.000000162375 Rises=F Damp=F
 DIIS: error= 1.47D-05 at cycle   3 NSaved=   3.
 NSaved= 3 IEnMin= 3 EnMin= -1297.79197210905     IErMin= 3 ErrMin= 1.47D-05
 ErrMax= 1.47D-05  0.00D+00 EMaxC= 1.00D-01 BMatC= 1.20D-07 BMatP= 3.36D-07
 IDIUse=1 WtCom= 1.00D+00 WtEn= 0.00D+00
 Coeff-Com: -0.236D-01 0.368D+00 0.656D+00
 Coeff:     -0.236D-01 0.368D+00 0.656D+00
 Gap=     0.377 Goal=   None    Shift=    0.000
 RMSDP=5.55D-07 MaxDP=3.98D-05 DE=-1.62D-07 OVMax= 3.66D-05

 Cycle  10  Pass 1  IDiag  1:
 RMSU=  3.09D-07    CP:  1.00D+00  1.03D+00  6.86D-01
 E= -1297.79197219145     Delta-E=       -0.000000082397 Rises=F Damp=F
 DIIS: error= 1.53D-06 at cycle   4 NSaved=   4.
 NSaved= 4 IEnMin= 4 EnMin= -1297.79197219145     IErMin= 4 ErrMin= 1.53D-06
 ErrMax= 1.53D-06  0.00D+00 EMaxC= 1.00D-01 BMatC= 3.18D-09 BMatP= 1.20D-07
 IDIUse=1 WtCom= 1.00D+00 WtEn= 0.00D+00
 Coeff-Com: -0.186D-01 0.129D+00 0.273D+00 0.616D+00
 Coeff:     -0.186D-01 0.129D+00 0.273D+00 0.616D+00
 Gap=     0.377 Goal=   None    Shift=    0.000
 RMSDP=1.25D-07 MaxDP=5.40D-06 DE=-8.24D-08 OVMax= 7.87D-06

 Cycle  11  Pass 1  IDiag  1:
 RMSU=  1.08D-07    CP:  1.00D+00  1.04D+00  7.17D-01  8.59D-01
 E= -1297.79197219397     Delta-E=       -0.000000002518 Rises=F Damp=F
 DIIS: error= 3.12D-07 at cycle   5 NSaved=   5.
 NSaved= 5 IEnMin= 5 EnMin= -1297.79197219397     IErMin= 5 ErrMin= 3.12D-07
 ErrMax= 3.12D-07  0.00D+00 EMaxC= 1.00D-01 BMatC= 2.41D-10 BMatP= 3.18D-09
 IDIUse=1 WtCom= 1.00D+00 WtEn= 0.00D+00
 Coeff-Com: -0.187D-02-0.163D-01-0.144D-01 0.184D+00 0.849D+00
 Coeff:     -0.187D-02-0.163D-01-0.144D-01 0.184D+00 0.849D+00
 Gap=     0.377 Goal=   None    Shift=    0.000
 RMSDP=3.68D-08 MaxDP=1.62D-06 DE=-2.52D-09 OVMax= 2.17D-06

 Cycle  12  Pass 1  IDiag  1:
 RMSU=  2.19D-08    CP:  1.00D+00  1.04D+00  7.22D-01  9.50D-01  9.96D-01
 E= -1297.79197219429     Delta-E=       -0.000000000323 Rises=F Damp=F
 DIIS: error= 1.47D-07 at cycle   6 NSaved=   6.
 NSaved= 6 IEnMin= 6 EnMin= -1297.79197219429     IErMin= 6 ErrMin= 1.47D-07
 ErrMax= 1.47D-07  0.00D+00 EMaxC= 1.00D-01 BMatC= 3.93D-11 BMatP= 2.41D-10
 IDIUse=1 WtCom= 1.00D+00 WtEn= 0.00D+00
 Coeff-Com:  0.800D-03-0.187D-01-0.305D-01 0.313D-01 0.384D+00 0.633D+00
 Coeff:      0.800D-03-0.187D-01-0.305D-01 0.313D-01 0.384D+00 0.633D+00
 Gap=     0.377 Goal=   None    Shift=    0.000
 RMSDP=1.32D-08 MaxDP=5.35D-07 DE=-3.23D-10 OVMax= 6.73D-07

 Cycle  13  Pass 1  IDiag  1:
 RMSU=  8.86D-09    CP:  1.00D+00  1.04D+00  7.24D-01  9.67D-01  1.06D+00
                    CP:  8.02D-01
 E= -1297.79197219432     Delta-E=       -0.000000000023 Rises=F Damp=F
 DIIS: error= 3.65D-08 at cycle   7 NSaved=   7.
 NSaved= 7 IEnMin= 7 EnMin= -1297.79197219432     IErMin= 7 ErrMin= 3.65D-08
 ErrMax= 3.65D-08  0.00D+00 EMaxC= 1.00D-01 BMatC= 2.80D-12 BMatP= 3.93D-11
 IDIUse=1 WtCom= 1.00D+00 WtEn= 0.00D+00
 Coeff-Com:  0.527D-03-0.644D-02-0.118D-01-0.468D-02 0.813D-01 0.259D+00
 Coeff-Com:  0.682D+00
 Coeff:      0.527D-03-0.644D-02-0.118D-01-0.468D-02 0.813D-01 0.259D+00
 Coeff:      0.682D+00
 Gap=     0.377 Goal=   None    Shift=    0.000
 RMSDP=3.35D-09 MaxDP=1.79D-07 DE=-2.32D-11 OVMax= 2.08D-07

 SCF Done:  E(RM062X) =  -1297.79197219     A.U. after   13 cycles
            NFock= 13  Conv=0.34D-08     -V/T= 2.0036
 KE= 1.293135797332D+03 PE=-7.731795821796D+03 EE= 2.798343486177D+03
 Leave Link  502 at Fri Apr 14 15:56:05 2023, MaxMem=   524288000 cpu:            1623.0 elap:             203.8
 (Enter /dragofs/sw/campus/0.2/software/gaussian/16.gaussian/gaussian/g16_legacy/l601.exe)
 Copying SCF densities to generalized density rwf, IOpCl= 0 IROHF=0.

 **********************************************************************

            Population analysis using the SCF density.

 **********************************************************************

 Orbital symmetries:
       Occupied  (A) (A) (A) (A) (A) (A) (A) (A) (A) (A) (A) (A)
                 (A) (A) (A) (A) (A) (A) (A) (A) (A) (A) (A) (A)
                 (A) (A) (A) (A) (A) (A) (A) (A) (A) (A) (A) (A)
                 (A) (A) (A) (A) (A) (A) (A) (A) (A) (A) (A) (A)
                 (A) (A) (A) (A) (A) (A) (A) (A) (A) (A) (A) (A)
                 (A) (A) (A) (A) (A) (A) (A) (A) (A) (A) (A) (A)
                 (A) (A) (A) (A) (A) (A) (A) (A) (A) (A) (A) (A)
                 (A) (A) (A) (A) (A) (A) (A)
       Virtual   (A) (A) (A) (A) (A) (A) (A) (A) (A) (A) (A) (A)
                 (A) (A) (A) (A) (A) (A) (A) (A) (A) (A) (A) (A)
                 (A) (A) (A) (A) (A) (A) (A) (A) (A) (A) (A) (A)
                 (A) (A) (A) (A) (A) (A) (A) (A) (A) (A) (A) (A)
                 (A) (A) (A) (A) (A) (A) (A) (A) (A) (A) (A) (A)
                 (A) (A) (A) (A) (A) (A) (A) (A) (A) (A) (A) (A)
                 (A) (A) (A) (A) (A) (A) (A) (A) (A) (A) (A) (A)
                 (A) (A) (A) (A) (A) (A) (A) (A) (A) (A) (A) (A)
                 (A) (A) (A) (A) (A) (A) (A) (A) (A) (A) (A) (A)
                 (A) (A) (A) (A) (A) (A) (A) (A) (A) (A) (A) (A)
                 (A) (A) (A) (A) (A) (A) (A) (A) (A) (A) (A) (A)
                 (A) (A) (A) (A) (A) (A) (A) (A) (A) (A) (A) (A)
                 (A) (A) (A) (A) (A) (A) (A) (A) (A) (A) (A) (A)
                 (A) (A) (A) (A) (A) (A) (A) (A) (A) (A) (A) (A)
                 (A) (A) (A) (A) (A) (A) (A) (A) (A) (A) (A) (A)
                 (A) (A) (A) (A) (A) (A) (A) (A) (A) (A) (A) (A)
                 (A) (A) (A) (A) (A) (A) (A) (A) (A) (A) (A) (A)
                 (A) (A) (A) (A) (A) (A) (A) (A) (A) (A) (A) (A)
                 (A) (A) (A) (A) (A) (A) (A) (A) (A) (A) (A) (A)
                 (A) (A) (A) (A) (A) (A) (A) (A) (A) (A) (A) (A)
                 (A) (A) (A) (A) (A) (A) (A) (A) (A) (A) (A) (A)
                 (A) (A) (A) (A) (A) (A) (A) (A) (A) (A) (A) (A)
                 (A) (A) (A) (A) (A) (A) (A) (A) (A) (A) (A) (A)
                 (A) (A) (A) (A) (A) (A) (A) (A) (A) (A) (A) (A)
                 (A) (A) (A) (A) (A) (A) (A) (A) (A) (A) (A) (A)
                 (A) (A) (A) (A) (A) (A) (A) (A) (A) (A) (A) (A)
                 (A) (A) (A) (A) (A) (A) (A) (A) (A) (A) (A) (A)
                 (A) (A) (A) (A) (A) (A) (A) (A) (A) (A) (A) (A)
                 (A) (A) (A) (A) (A) (A) (A) (A) (A) (A) (A) (A)
                 (A) (A) (A) (A) (A) (A) (A) (A) (A) (A) (A) (A)
                 (A) (A) (A) (A) (A) (A) (A) (A) (A) (A) (A) (A)
                 (A) (A) (A) (A) (A) (A) (A) (A) (A) (A) (A) (A)
                 (A) (A) (A) (A) (A) (A) (A) (A) (A) (A) (A) (A)
                 (A) (A) (A) (A) (A) (A) (A) (A) (A) (A) (A) (A)
                 (A) (A) (A) (A) (A) (A) (A) (A) (A) (A) (A) (A)
                 (A) (A) (A) (A) (A) (A) (A) (A) (A) (A) (A) (A)
                 (A) (A) (A) (A) (A) (A) (A) (A) (A) (A) (A) (A)
                 (A) (A) (A) (A) (A) (A) (A) (A) (A) (A) (A)
 The electronic state is 1-A.
 Alpha  occ. eigenvalues --  -19.67334 -19.66348 -19.65986 -19.65071 -19.63740
 Alpha  occ. eigenvalues --  -19.63627 -19.63382 -19.63302 -19.63040 -19.62031
 Alpha  occ. eigenvalues --  -19.61324 -10.67293 -10.66580 -10.62366 -10.62108
 Alpha  occ. eigenvalues --  -10.61554 -10.61418 -10.61309 -10.61121 -10.60939
 Alpha  occ. eigenvalues --  -10.60792 -10.59737 -10.59301  -1.22928  -1.21999
 Alpha  occ. eigenvalues --   -1.17319  -1.17288  -1.16379  -1.15793  -1.15016
 Alpha  occ. eigenvalues --   -1.14649  -1.14212  -1.13840  -1.13337  -0.91234
 Alpha  occ. eigenvalues --   -0.90502  -0.88662  -0.87615  -0.80396  -0.78383
 Alpha  occ. eigenvalues --   -0.76022  -0.73648  -0.72544  -0.71093  -0.69491
 Alpha  occ. eigenvalues --   -0.69198  -0.64983  -0.63744  -0.63068  -0.61601
 Alpha  occ. eigenvalues --   -0.61557  -0.60194  -0.59145  -0.58815  -0.57777
 Alpha  occ. eigenvalues --   -0.57412  -0.56515  -0.55935  -0.55511  -0.54186
 Alpha  occ. eigenvalues --   -0.53662  -0.52670  -0.52456  -0.51093  -0.50815
 Alpha  occ. eigenvalues --   -0.50392  -0.50297  -0.48860  -0.48260  -0.47263
 Alpha  occ. eigenvalues --   -0.46764  -0.45619  -0.45082  -0.44720  -0.44374
 Alpha  occ. eigenvalues --   -0.43813  -0.42401  -0.42177  -0.41269  -0.40626
 Alpha  occ. eigenvalues --   -0.39580  -0.39413  -0.38883  -0.37879  -0.36912
 Alpha  occ. eigenvalues --   -0.36200  -0.35986  -0.35605  -0.35219  -0.34941
 Alpha  occ. eigenvalues --   -0.33895
 Alpha virt. eigenvalues --    0.03822   0.04780   0.05135   0.05975   0.06503
 Alpha virt. eigenvalues --    0.07665   0.08180   0.08761   0.09528   0.10627
 Alpha virt. eigenvalues --    0.11160   0.11633   0.12454   0.13089   0.13211
 Alpha virt. eigenvalues --    0.13992   0.14767   0.14883   0.15409   0.16201
 Alpha virt. eigenvalues --    0.16481   0.17196   0.17491   0.18364   0.19168
 Alpha virt. eigenvalues --    0.20102   0.20414   0.21346   0.22410   0.22992
 Alpha virt. eigenvalues --    0.23653   0.23983   0.24113   0.24960   0.25583
 Alpha virt. eigenvalues --    0.27415   0.28328   0.28578   0.29212   0.30364
 Alpha virt. eigenvalues --    0.31346   0.31559   0.32853   0.33612   0.34699
 Alpha virt. eigenvalues --    0.35734   0.37800   0.38230   0.39446   0.39747
 Alpha virt. eigenvalues --    0.40593   0.41377   0.42333   0.42821   0.43780
 Alpha virt. eigenvalues --    0.44144   0.45151   0.45534   0.46535   0.46885
 Alpha virt. eigenvalues --    0.48257   0.48678   0.49071   0.49871   0.50165
 Alpha virt. eigenvalues --    0.50310   0.51280   0.51538   0.51921   0.52882
 Alpha virt. eigenvalues --    0.53882   0.54399   0.54627   0.55272   0.55656
 Alpha virt. eigenvalues --    0.55918   0.57162   0.57937   0.58589   0.58922
 Alpha virt. eigenvalues --    0.59799   0.60052   0.60745   0.61922   0.62277
 Alpha virt. eigenvalues --    0.62671   0.63403   0.63674   0.64542   0.64869
 Alpha virt. eigenvalues --    0.65142   0.65585   0.66045   0.66327   0.66618
 Alpha virt. eigenvalues --    0.68511   0.69177   0.69873   0.70282   0.72662
 Alpha virt. eigenvalues --    0.72738   0.74785   0.75445   0.78591   0.80149
 Alpha virt. eigenvalues --    0.81316   0.83666   0.83853   0.84379   0.85001
 Alpha virt. eigenvalues --    0.86265   0.88335   0.89362   0.89648   0.90126
 Alpha virt. eigenvalues --    0.91602   0.91818   0.92668   0.93298   0.93729
 Alpha virt. eigenvalues --    0.94962   0.96370   0.97009   0.97929   0.98609
 Alpha virt. eigenvalues --    0.99761   1.00343   1.00764   1.01783   1.02899
 Alpha virt. eigenvalues --    1.04020   1.05223   1.06233   1.06460   1.07474
 Alpha virt. eigenvalues --    1.08051   1.09053   1.10115   1.10955   1.11557
 Alpha virt. eigenvalues --    1.12377   1.14257   1.14549   1.15199   1.16185
 Alpha virt. eigenvalues --    1.16890   1.18125   1.19294   1.21183   1.21535
 Alpha virt. eigenvalues --    1.23526   1.24524   1.24726   1.26667   1.27444
 Alpha virt. eigenvalues --    1.28224   1.29802   1.31316   1.32832   1.34553
 Alpha virt. eigenvalues --    1.35825   1.37342   1.38487   1.39466   1.40413
 Alpha virt. eigenvalues --    1.41039   1.43004   1.43966   1.44737   1.45395
 Alpha virt. eigenvalues --    1.45749   1.46111   1.46826   1.47759   1.48282
 Alpha virt. eigenvalues --    1.49799   1.50700   1.51475   1.51788   1.52148
 Alpha virt. eigenvalues --    1.52969   1.53217   1.53998   1.54148   1.55078
 Alpha virt. eigenvalues --    1.55682   1.55853   1.56658   1.57789   1.58241
 Alpha virt. eigenvalues --    1.58704   1.59380   1.60015   1.60233   1.61296
 Alpha virt. eigenvalues --    1.62012   1.62776   1.63346   1.63812   1.64588
 Alpha virt. eigenvalues --    1.64735   1.65822   1.66734   1.68013   1.68497
 Alpha virt. eigenvalues --    1.68669   1.69464   1.70865   1.71104   1.72602
 Alpha virt. eigenvalues --    1.74124   1.74272   1.75275   1.76481   1.77528
 Alpha virt. eigenvalues --    1.78654   1.80030   1.80269   1.80887   1.81909
 Alpha virt. eigenvalues --    1.82655   1.83482   1.84641   1.85389   1.86026
 Alpha virt. eigenvalues --    1.88386   1.89261   1.90921   1.91949   1.92983
 Alpha virt. eigenvalues --    1.93489   1.93832   1.94305   1.94453   1.96464
 Alpha virt. eigenvalues --    1.97388   1.97977   1.99534   2.00903   2.01196
 Alpha virt. eigenvalues --    2.02409   2.03598   2.04565   2.05119   2.06786
 Alpha virt. eigenvalues --    2.07116   2.07591   2.07918   2.08477   2.08979
 Alpha virt. eigenvalues --    2.09353   2.10260   2.11493   2.12617   2.13494
 Alpha virt. eigenvalues --    2.15085   2.15760   2.16181   2.17064   2.18333
 Alpha virt. eigenvalues --    2.19177   2.19987   2.21347   2.22277   2.23265
 Alpha virt. eigenvalues --    2.24931   2.27786   2.31496   2.31973   2.32812
 Alpha virt. eigenvalues --    2.33701   2.35604   2.39884   2.40163   2.42877
 Alpha virt. eigenvalues --    2.44499   2.46075   2.47692   2.49434   2.49825
 Alpha virt. eigenvalues --    2.50839   2.51699   2.52868   2.53686   2.54284
 Alpha virt. eigenvalues --    2.54615   2.55577   2.57682   2.59250   2.60063
 Alpha virt. eigenvalues --    2.60438   2.62057   2.63575   2.64185   2.64625
 Alpha virt. eigenvalues --    2.66572   2.73504   2.74553   2.75730   2.76929
[...]
    32  H    0.000000   0.000000  -0.000000  -0.000000   0.000000  -0.013314
    33  C    0.000000   0.000000   0.000000  -0.000000   0.000000  -0.061904
    34  H    0.000000   0.000000   0.000000   0.000000  -0.000000  -0.001351
    35  O   -0.000000  -0.000000  -0.000000   0.000000   0.000000   0.006265
    36  H    0.000000  -0.000000   0.000000  -0.000000  -0.000000   0.001796
    37  C   -0.000000   0.000000  -0.000002   0.000000   0.000000  -0.003361
    38  H    0.000000   0.000000  -0.000000  -0.000000  -0.000000   0.000862
    39  O   -0.000000  -0.000000   0.000000  -0.000000  -0.000000  -0.000286
    40  H    0.000000  -0.000000  -0.000000   0.000000   0.000000  -0.000327
    41  C   -0.000025  -0.000002   0.000049   0.000000  -0.000000   0.004324
    42  H   -0.000001  -0.000000  -0.000001   0.000000  -0.000000  -0.000161
    43  H    0.000012   0.000001  -0.000057  -0.000000   0.000000  -0.000989
    44  O   -0.000041  -0.000007   0.000448  -0.000000  -0.000000  -0.000586
    45  H    0.000713   0.000004  -0.000333   0.000003   0.000005   0.000424
              25         26         27         28         29         30
     1  C    0.000076   0.000015   0.000001   0.000013   0.000066   0.000582
     2  H   -0.000001  -0.000000  -0.000000  -0.000030  -0.000012  -0.000098
     3  O   -0.000000  -0.000000  -0.000000   0.000000   0.000001  -0.000037
     4  H    0.000000   0.000000   0.000000   0.000000  -0.000000   0.000008
     5  C   -0.000080  -0.000030  -0.000007   0.000967   0.000036  -0.000045
     6  H   -0.000011   0.000004   0.000000  -0.000053  -0.000006  -0.000002
     7  O   -0.000002   0.000001   0.000000  -0.000022  -0.000001  -0.000022
     8  C   -0.000656   0.000115  -0.000018  -0.000479  -0.000077   0.000113
     9  H    0.000457  -0.000623   0.000194   0.007004  -0.000782  -0.003691
    10  O   -0.000071   0.000012   0.000000   0.000008   0.001690   0.009682
    11  H   -0.000014  -0.000002  -0.000001  -0.000039   0.000106  -0.000402
    12  C    0.001970  -0.001140   0.000174  -0.001989   0.000587  -0.002775
    13  H    0.000143   0.000029   0.000006  -0.000129  -0.000913  -0.000235
    14  O   -0.041271   0.003508  -0.000144  -0.039945  -0.052945  -0.000791
    15  C   -0.000009   0.001766  -0.000212  -0.010435   0.000949   0.000117
    16  H    0.000487  -0.004817  -0.000480   0.002745  -0.000783  -0.000105
    17  O    0.000760  -0.000096   0.000043  -0.000942   0.000039  -0.000010
    18  H   -0.003192   0.000105  -0.000036   0.001179   0.000621  -0.000063
    19  C    0.000002   0.000004   0.000001  -0.000017   0.000000  -0.000001
    20  H   -0.000003   0.000002   0.000001  -0.000001  -0.000000  -0.000000
    21  H    0.000001   0.000002  -0.000005  -0.000128   0.000000   0.000000
    22  O    0.000000  -0.000000  -0.000000   0.000000  -0.000000   0.000000
    23  H    0.000000  -0.000000   0.000000   0.000000   0.000000   0.000000
    24  C    0.410311  -0.076518  -0.006717   0.204592   0.205254  -0.036401
    25  H    0.569197  -0.006592   0.008654  -0.041001  -0.075780   0.009624
    26  C   -0.006592   5.410777   0.384185   0.207274  -0.007866   0.001526
    27  H    0.008654   0.384185   0.556789  -0.040861  -0.000574   0.000174
    28  O   -0.041001   0.207274  -0.040861   8.235595  -0.033032   0.000294
    29  C   -0.075780  -0.007866  -0.000574  -0.033032   5.314609   0.373951
    30  H    0.009624   0.001526   0.000174   0.000294   0.373951   0.558088
    31  O    0.009527   0.000032  -0.000117   0.002027   0.239577  -0.035650
    32  H   -0.000525  -0.000006   0.000031   0.000387  -0.038903  -0.005775
    33  C   -0.004725  -0.024153  -0.013394  -0.004870   0.198269  -0.050620
    34  H    0.006892  -0.001553   0.005374   0.000473  -0.048757   0.011297
    35  O   -0.000223   0.002953  -0.000074  -0.000072  -0.039590   0.006716
    36  H   -0.000089  -0.000861  -0.000084  -0.000048  -0.011088  -0.001696
    37  C    0.000364   0.116852  -0.054170  -0.041326  -0.059959  -0.001563
    38  H    0.000225  -0.045641   0.010392   0.002652   0.000200   0.007055
    39  O   -0.000098  -0.048326   0.008467   0.001407   0.006477  -0.000085
    40  H   -0.000012   0.011031  -0.000674  -0.000254   0.001550  -0.000053
    41  C    0.000437   0.312050  -0.035976  -0.042700  -0.000888  -0.000172
    42  H    0.000084  -0.041105  -0.006521   0.004357   0.000008   0.000017
    43  H   -0.000031  -0.053268   0.012066  -0.003276  -0.000006  -0.000142
    44  O   -0.000131  -0.036635   0.008353  -0.004337  -0.000006   0.000008
    45  H   -0.000256  -0.004361  -0.001148   0.010028   0.000128   0.000014
              31         32         33         34         35         36
     1  C   -0.000001   0.000043   0.000009   0.000000  -0.000000  -0.000000
     2  H    0.000000   0.000001   0.000000  -0.000000  -0.000000   0.000000
     3  O   -0.000000  -0.000000  -0.000000  -0.000000   0.000000   0.000000
     4  H   -0.000000   0.000000   0.000000   0.000000  -0.000000  -0.000000
     5  C    0.000000  -0.000007  -0.000002  -0.000000   0.000000   0.000000
     6  H    0.000000  -0.000002   0.000000   0.000000  -0.000000  -0.000000
     7  O    0.000000  -0.000000  -0.000000  -0.000000   0.000000   0.000000
     8  C   -0.000157  -0.000298  -0.000295  -0.000005  -0.000002   0.000001
     9  H    0.000037   0.000043  -0.000235  -0.000001  -0.000022  -0.000001
    10  O   -0.000079   0.002150   0.000133  -0.000001  -0.000000  -0.000003
    11  H    0.000013  -0.000084  -0.000019  -0.000001   0.000000   0.000001
    12  C    0.000602  -0.000052   0.000044  -0.000018  -0.000002  -0.000003
    13  H    0.000097  -0.000027   0.000030   0.000001  -0.000000  -0.000000
    14  O   -0.003600   0.014501   0.005613  -0.000164  -0.000022  -0.000024
    15  C   -0.000029   0.000189   0.000079  -0.000004   0.000000   0.000000
    16  H   -0.000001  -0.000010  -0.000107  -0.000003   0.000000  -0.000000
    17  O   -0.000000  -0.000003   0.000000  -0.000000  -0.000000   0.000000
    18  H   -0.000046  -0.000020  -0.000040  -0.000017   0.000000   0.000000
    19  C   -0.000000   0.000000   0.000000   0.000000  -0.000000   0.000000
    20  H    0.000000   0.000000   0.000000   0.000000  -0.000000  -0.000000
    21  H    0.000000  -0.000000   0.000000   0.000000  -0.000000   0.000000
    22  O    0.000000  -0.000000  -0.000000   0.000000   0.000000  -0.000000
    23  H   -0.000000   0.000000   0.000000  -0.000000   0.000000  -0.000000
    24  C   -0.041373  -0.013314  -0.061904  -0.001351   0.006265   0.001796
    25  H    0.009527  -0.000525  -0.004725   0.006892  -0.000223  -0.000089
    26  C    0.000032  -0.000006  -0.024153  -0.001553   0.002953  -0.000861
    27  H   -0.000117   0.000031  -0.013394   0.005374  -0.000074  -0.000084
    28  O    0.002027   0.000387  -0.004870   0.000473  -0.000072  -0.000048
    29  C    0.239577  -0.038903   0.198269  -0.048757  -0.039590  -0.011088
    30  H   -0.035650  -0.005775  -0.050620   0.011297   0.006716  -0.001696
    31  O    7.970860   0.324960  -0.045559   0.002393  -0.002361   0.015971
    32  H    0.324960   0.427071   0.011026  -0.000671  -0.000470  -0.000821
    33  C   -0.045559   0.011026   5.308935   0.380035   0.242140  -0.043451
    34  H    0.002393  -0.000671   0.380035   0.570596  -0.037252  -0.004337
    35  O   -0.002361  -0.000470   0.242140  -0.037252   7.966617   0.326333
    36  H    0.015971  -0.000821  -0.043451  -0.004337   0.326333   0.430699
    37  C    0.003990  -0.000660   0.217407  -0.055119  -0.049275   0.012337
    38  H   -0.000228  -0.000022  -0.055205   0.011121   0.003406  -0.000781
    39  O   -0.000015   0.000007  -0.031870   0.006525  -0.003558  -0.000465
    40  H   -0.000019   0.000005  -0.005282  -0.001415   0.015454  -0.000863
    41  C    0.000007  -0.000002   0.006439  -0.000686  -0.000053   0.000025
    42  H    0.000000  -0.000000   0.000359   0.000022  -0.000008   0.000003
    43  H    0.000001   0.000001  -0.000490  -0.000067  -0.000002  -0.000002
    44  O   -0.000000   0.000000  -0.000165  -0.000012   0.000000  -0.000000
    45  H   -0.000001   0.000001   0.000066  -0.000006  -0.000000   0.000000
              37         38         39         40         41         42
     1  C   -0.000005  -0.000009   0.000000   0.000000  -0.000004   0.000000
     2  H    0.000000   0.000000   0.000000  -0.000000  -0.000000   0.000000
     3  O    0.000000   0.000000   0.000000  -0.000000   0.000000   0.000000
     4  H   -0.000000  -0.000000   0.000000   0.000000  -0.000000  -0.000000
     5  C    0.000007   0.000000  -0.000000   0.000000  -0.000015   0.000001
     6  H   -0.000000  -0.000000   0.000000  -0.000000   0.000001  -0.000000
     7  O    0.000000   0.000000   0.000000  -0.000000  -0.000000  -0.000000
     8  C    0.000150   0.000004   0.000000   0.000000  -0.000000  -0.000002
     9  H    0.000354   0.000686   0.000003  -0.000002  -0.000054  -0.000004
    10  O   -0.000020  -0.000057  -0.000000   0.000000   0.000000  -0.000000
    11  H    0.000004  -0.000005  -0.000000   0.000000   0.000001   0.000000
    12  C   -0.000217   0.000035   0.000000  -0.000000   0.000160   0.000005
    13  H   -0.000003   0.000002   0.000000  -0.000000   0.000005   0.000000
    14  O   -0.000608  -0.000063   0.000000   0.000001  -0.000126   0.000004
    15  C    0.000082  -0.000031  -0.000000   0.000000  -0.000173  -0.000033
    16  H    0.000388  -0.000085   0.000001   0.000001   0.005008   0.000423
    17  O   -0.000001   0.000001   0.000000   0.000000  -0.000179  -0.000002
    18  H    0.000056  -0.000001  -0.000000   0.000000  -0.000021  -0.000002
    19  C   -0.000000   0.000000  -0.000000   0.000000  -0.000025  -0.000001
    20  H    0.000000   0.000000  -0.000000  -0.000000  -0.000002  -0.000000
    21  H   -0.000002  -0.000000   0.000000  -0.000000   0.000049  -0.000001
    22  O    0.000000  -0.000000  -0.000000   0.000000   0.000000   0.000000
    23  H    0.000000  -0.000000  -0.000000   0.000000  -0.000000  -0.000000
    24  C   -0.003361   0.000862  -0.000286  -0.000327   0.004324  -0.000161
    25  H    0.000364   0.000225  -0.000098  -0.000012   0.000437   0.000084
    26  C    0.116852  -0.045641  -0.048326   0.011031   0.312050  -0.041105
    27  H   -0.054170   0.010392   0.008467  -0.000674  -0.035976  -0.006521
    28  O   -0.041326   0.002652   0.001407  -0.000254  -0.042700   0.004357
    29  C   -0.059959   0.000200   0.006477   0.001550  -0.000888   0.000008
    30  H   -0.001563   0.007055  -0.000085  -0.000053  -0.000172   0.000017
    31  O    0.003990  -0.000228  -0.000015  -0.000019   0.000007   0.000000
    32  H   -0.000660  -0.000022   0.000007   0.000005  -0.000002  -0.000000
    33  C    0.217407  -0.055205  -0.031870  -0.005282   0.006439   0.000359
    34  H   -0.055119   0.011121   0.006525  -0.001415  -0.000686   0.000022
    35  O   -0.049275   0.003406  -0.003558   0.015454  -0.000053  -0.000008
    36  H    0.012337  -0.000781  -0.000465  -0.000863   0.000025   0.000003
    37  C    5.349224   0.381734   0.225619  -0.046907  -0.048497  -0.002621
    38  H    0.381734   0.570585  -0.033215  -0.003900  -0.010514   0.000027
    39  O    0.225619  -0.033215   7.962345   0.322339  -0.002551   0.012963
    40  H   -0.046907  -0.003900   0.322339   0.435536  -0.000239  -0.000306
    41  C   -0.048497  -0.010514  -0.002551  -0.000239   4.805339   0.405169
    42  H   -0.002621   0.000027   0.012963  -0.000306   0.405169   0.527012
    43  H   -0.002083   0.005876  -0.000268  -0.000110   0.391529  -0.036957
    44  O    0.005502   0.000011   0.000001   0.000011   0.274822  -0.030305
    45  H    0.000354  -0.000034  -0.000042   0.000003  -0.057360   0.005846
              43         44         45
     1  C   -0.000005   0.000000   0.000008
     2  H   -0.000002   0.000000  -0.000006
     3  O   -0.000001  -0.000000   0.000000
     4  H    0.000000   0.000000   0.000000
     5  C    0.000007  -0.000012   0.000534
     6  H    0.000000  -0.000000  -0.000130
     7  O   -0.000010   0.000000  -0.000169
     8  C    0.000074  -0.000005  -0.000185
     9  H    0.000622  -0.000074  -0.000312
    10  O    0.000001  -0.000000   0.000001
    11  H   -0.000001  -0.000000  -0.000001
    12  C   -0.000087  -0.000005   0.000290
    13  H    0.000000  -0.000001  -0.000122
    14  O   -0.000009   0.000001  -0.000001
    15  C    0.000356  -0.000892   0.000935
    16  H   -0.002932   0.003701  -0.008681
    17  O   -0.000005  -0.000097   0.007121
    18  H    0.000021   0.000165   0.000387
    19  C    0.000012  -0.000041   0.000713
    20  H    0.000001  -0.000007   0.000004
    21  H   -0.000057   0.000448  -0.000333
    22  O   -0.000000  -0.000000   0.000003
    23  H    0.000000  -0.000000   0.000005
    24  C   -0.000989  -0.000586   0.000424
    25  H   -0.000031  -0.000131  -0.000256
    26  C   -0.053268  -0.036635  -0.004361
    27  H    0.012066   0.008353  -0.001148
    28  O   -0.003276  -0.004337   0.010028
    29  C   -0.000006  -0.000006   0.000128
    30  H   -0.000142   0.000008   0.000014
    31  O    0.000001  -0.000000  -0.000001
    32  H    0.000001   0.000000   0.000001
    33  C   -0.000490  -0.000165   0.000066
    34  H   -0.000067  -0.000012  -0.000006
    35  O   -0.000002   0.000000  -0.000000
    36  H   -0.000002  -0.000000   0.000000
    37  C   -0.002083   0.005502   0.000354
    38  H    0.005876   0.000011  -0.000034
    39  O   -0.000268   0.000001  -0.000042
    40  H   -0.000110   0.000011   0.000003
    41  C    0.391529   0.274822  -0.057360
    42  H   -0.036957  -0.030305   0.005846
    43  H    0.596696  -0.036587  -0.000775
    44  O   -0.036587   7.884010   0.332995
    45  H   -0.000775   0.332995   0.455863
 Mulliken charges:
               1
     1  C    0.230859
     2  H    0.130257
     3  O   -0.418600
     4  H    0.272651
     5  C   -0.074246
     6  H    0.161713
     7  O   -0.402097
     8  C   -0.002182
     9  H    0.169273
    10  O   -0.419958
    11  H    0.267804
    12  C   -0.030064
    13  H    0.180240
    14  O   -0.417956
    15  C    0.023244
    16  H    0.146944
    17  O   -0.419091
    18  H    0.270428
    19  C   -0.007988
    20  H    0.159335
    21  H    0.129997
    22  O   -0.413075
    23  H    0.251822
    24  C    0.202507
    25  H    0.155560
    26  C   -0.098651
    27  H    0.166307
    28  O   -0.415019
    29  C    0.027848
    30  H    0.161168
    31  O   -0.440859
    32  H    0.281259
    33  C   -0.028198
    34  H    0.156711
    35  O   -0.436900
    36  H    0.277451
    37  C    0.051972
    38  H    0.154913
    39  O   -0.425374
    40  H    0.274430
    41  C   -0.005128
    42  H    0.161729
    43  H    0.130897
    44  O   -0.400129
    45  H    0.258197
 Sum of Mulliken charges =  -0.00000
 Mulliken charges with hydrogens summed into heavy atoms:
               1
     1  C    0.361115
     3  O   -0.145949
     5  C    0.087467
     7  O   -0.402097
     8  C    0.167091
    10  O   -0.152154
    12  C    0.150176
    14  O   -0.417956
    15  C    0.170189
    17  O   -0.148663
    19  C    0.281344
    22  O   -0.161253
    24  C    0.358067
    26  C    0.067656
    28  O   -0.415019
    29  C    0.189016
    31  O   -0.159600
    33  C    0.128513
    35  O   -0.159450
    37  C    0.206885
    39  O   -0.150944
    41  C    0.287498
    44  O   -0.141932
 Electronic spatial extent (au):  <R**2>=           7904.6723
 Charge=             -0.0000 electrons
 Dipole moment (field-independent basis, Debye):
    X=              0.2074    Y=             -4.2311    Z=             -0.7817  Tot=              4.3077
 Quadrupole moment (field-independent basis, Debye-Ang):
   XX=           -139.9646   YY=           -145.9544   ZZ=           -133.0220
   XY=             10.1680   XZ=              8.3814   YZ=              3.4275
 Traceless Quadrupole moment (field-independent basis, Debye-Ang):
   XX=             -0.3176   YY=             -6.3073   ZZ=              6.6250
   XY=             10.1680   XZ=              8.3814   YZ=              3.4275
 Octapole moment (field-independent basis, Debye-Ang**2):
  XXX=             57.6148  YYY=            -82.7190  ZZZ=             -7.5254  XYY=            -11.3905
  XXY=            -83.1271  XXZ=            -41.9217  XZZ=            -10.2366  YZZ=             -5.9108
  YYZ=            -11.9729  XYZ=             -6.0016
 Hexadecapole moment (field-independent basis, Debye-Ang**3):
 XXXX=          -6548.4895 YYYY=          -2468.2507 ZZZZ=           -958.7151 XXXY=            287.9640
 XXXZ=            240.5658 YYYX=            -34.1488 YYYZ=             53.0751 ZZZX=             54.3315
 ZZZY=             21.7462 XXYY=          -1453.2154 XXZZ=          -1135.4313 YYZZ=           -518.7697
 XXYZ=             41.0098 YYXZ=             45.4484 ZZXY=             48.0821
 N-N= 2.359047829411D+03 E-N=-7.765721727553D+03  KE= 1.294092557339D+03
 No NMR shielding tensors so no spin-rotation constants.
 Leave Link  601 at Fri Apr 14 16:55:43 2023, MaxMem=   524288000 cpu:               1.8 elap:               0.3
 (Enter /dragofs/sw/campus/0.2/software/gaussian/16.gaussian/gaussian/g16_legacy/l9999.exe)
 1\1\GINC-DRAGO31010028\FOpt\RM062X\6-311G(d,p)\C12H22O11\JRAMOS\14-Apr
 -2023\0\\#p opt=modredundant m062x/6-311g(d,p)\\Conformer number 00008
 . Energy MM = 201.987 kcal/mol\\0,1\C,-0.189102938,1.1255754286,-0.492
 1799925\H,-1.0125047126,0.9650571772,0.2242119989\O,-0.6534953011,1.66
 40632476,-1.6833640534\H,-1.1424573355,2.4688713487,-1.49071589\C,1.29
 39801268,1.5024579979,1.305008571\H,0.4772467221,1.3167529185,2.017648
 7463\O,0.7594726053,1.9985990586,0.078094369\C,0.4429810853,-0.2190927
 774,-0.834442504\H,1.2282761261,-0.0337447252,-1.5803481359\O,-0.52629
 65815,-1.1184735574,-1.3153113429\H,-0.958582823,-0.6844544565,-2.0583
 152938\C,1.0584538913,-0.7923081214,0.432585371\H,0.2511212617,-0.9138
 329918,1.1644008\O,1.49578565,-2.132814779,0.2589598684\C,2.0498534868
 ,0.2070313808,1.0213158511\H,2.8204993942,0.4453293356,0.2847686479\O,
 2.615980355,-0.259748819,2.2245022821\H,2.7662442252,-1.2056779564,2.1
 354505096\C,2.1951875177,2.5922620865,1.8514185286\H,2.5947545569,2.27
 82582112,2.8150986377\H,3.0325327937,2.736993967,1.1547475898\O,1.4738
 239152,3.7851806571,2.0487682429\H,1.0640098957,3.9931496288,1.2038352
 239\C,2.7003477478,-2.5109708536,-0.3526939881\H,3.2772797566,-3.10653
 46219,0.371747874\C,4.7090290407,-1.7902437223,-1.352089994\H,5.256823
 4436,-2.4107695825,-0.6288405806\O,3.4503086375,-1.4069079385,-0.78495
 35756\C,2.3367437413,-3.3512877818,-1.5754123738\H,1.753904745,-2.7015
 153041,-2.2432909862\O,1.6039453629,-4.4997705204,-1.2224890514\H,0.77
 99062994,-4.1943888472,-0.8273119028\C,3.5998804914,-3.8013713513,-2.2
 785106673\H,4.1702334615,-4.4526256975,-1.5986209157\O,3.3219780479,-4
 .4792654462,-3.484752886\H,2.6968785392,-5.1815088412,-3.2767538952\C,
 4.4623290524,-2.5978751716,-2.6196352859\H,3.9167919327,-1.9740935985,
 -3.3429224917\O,5.7110286215,-2.9956536216,-3.1333115108\H,5.532829961
 2,-3.6412395891,-3.8254558245\C,5.4771736283,-0.5053578114,-1.56723447
 99\H,6.433749046,-0.7366837862,-2.034845973\H,4.9000086938,0.140113564
 8,-2.2431662193\O,5.7407599842,0.1333881623,-0.3382591828\H,4.91300584
 79,0.1700280998,0.1508658849\\Version=EM64L-G16RevA.03\State=1-A\HF=-1
 297.8156148\RMSD=4.526e-09\RMSF=1.732e-03\Dipole=-1.456267,-0.523822,-
 0.690806\Quadrupole=2.0630309,0.1770815,-2.2401124,-8.027731,0.9936061
 ,-7.4525554\PG=C01 [X(C12H22O11)]\\@


 "ANNA, YOU MUSN'T SPEAK OF OXIDIZED MURIATIC ACID
 ANYMORE, FROM NOW ON YOU MUST SAY CHLORINE."
   -- JENS JACOB BERZELIUS, IN 1820, TO HIS COOK, WHO HAD
 COMPLAINED OF THE SMELL OF THE FLASK SHE WAS CLEANING.
 Job cpu time:       0 days  8 hours 22 minutes  6.0 seconds.
 Elapsed time:       0 days  1 hours  3 minutes  7.4 seconds.
 File lengths (MBytes):  RWF=    189 Int=      0 D2E=      0 Chk=     24 Scr=      1
 Normal termination of Gaussian 16 at Fri Apr 14 16:55:44 2023.
