 Entering Gaussian System, Link 0=g16
 Input=dimer_13b_00006_gaussian.com
 Output=dimer_13b_00006_gaussian.log
 Initial command:
 /dragofs/sw/campus/0.2/software/gaussian/16.gaussian/gaussian/g16_legacy/l1.exe "/lustre/scratch-global/iem/jramos/Gau-2410660.inp" -scrdir="/lustre/scratch-global/iem/jramos/"
 Entering Link 1 = /dragofs/sw/campus/0.2/software/gaussian/16.gaussian/gaussian/g16_legacy/l1.exe PID=   2410661.
  
 Copyright (c) 1988,1990,1992,1993,1995,1998,2003,2009,2016,
            Gaussian, Inc.  All Rights Reserved.
  
 This is part of the Gaussian(R) 16 program.  It is based on
 the Gaussian(R) 09 system (copyright 2009, Gaussian, Inc.),
 the Gaussian(R) 03 system (copyright 2003, Gaussian, Inc.),
 the Gaussian(R) 98 system (copyright 1998, Gaussian, Inc.),
 the Gaussian(R) 94 system (copyright 1995, Gaussian, Inc.),
 the Gaussian 92(TM) system (copyright 1992, Gaussian, Inc.),
 the Gaussian 90(TM) system (copyright 1990, Gaussian, Inc.),
 the Gaussian 88(TM) system (copyright 1988, Gaussian, Inc.),
 the Gaussian 86(TM) system (copyright 1986, Carnegie Mellon
 University), and the Gaussian 82(TM) system (copyright 1983,
 Carnegie Mellon University). Gaussian is a federally registered
 trademark of Gaussian, Inc.
  
 This software contains proprietary and confidential information,
 including trade secrets, belonging to Gaussian, Inc.
  
 This software is provided under written license and may be
 used, copied, transmitted, or stored only in accord with that
 written license.
  
 The following legend is applicable only to US Government
 contracts under FAR:
  
                    RESTRICTED RIGHTS LEGEND
  
 Use, reproduction and disclosure by the US Government is
 subject to restrictions as set forth in subparagraphs (a)
 and (c) of the Commercial Computer Software - Restricted
 Rights clause in FAR 52.227-19.
  
 Gaussian, Inc.
 340 Quinnipiac St., Bldg. 40, Wallingford CT 06492
  
  
 ---------------------------------------------------------------
 Warning -- This program may not be used in any manner that
 competes with the business of Gaussian, Inc. or will provide
 assistance to any competitor of Gaussian, Inc.  The licensee
 of this program is prohibited from giving any competitor of
 Gaussian, Inc. access to this program.  By using this program,
 the user acknowledges that Gaussian, Inc. is engaged in the
 business of creating and licensing software in the field of
 computational chemistry and represents and warrants to the
 licensee that it is not a competitor of Gaussian, Inc. and that
 it will not use this program in any manner prohibited above.
 ---------------------------------------------------------------
  

 Cite this work as:
 Gaussian 16, Revision A.03,
 M. J. Frisch, G. W. Trucks, H. B. Schlegel, G. E. Scuseria, 
 M. A. Robb, J. R. Cheeseman, G. Scalmani, V. Barone, 
 G. A. Petersson, H. Nakatsuji, X. Li, M. Caricato, A. V. Marenich, 
 J. Bloino, B. G. Janesko, R. Gomperts, B. Mennucci, H. P. Hratchian, 
 J. V. Ortiz, A. F. Izmaylov, J. L. Sonnenberg, D. Williams-Young, 
 F. Ding, F. Lipparini, F. Egidi, J. Goings, B. Peng, A. Petrone, 
 T. Henderson, D. Ranasinghe, V. G. Zakrzewski, J. Gao, N. Rega, 
 G. Zheng, W. Liang, M. Hada, M. Ehara, K. Toyota, R. Fukuda, 
 J. Hasegawa, M. Ishida, T. Nakajima, Y. Honda, O. Kitao, H. Nakai, 
 T. Vreven, K. Throssell, J. A. Montgomery, Jr., J. E. Peralta, 
 F. Ogliaro, M. J. Bearpark, J. J. Heyd, E. N. Brothers, K. N. Kudin, 
 V. N. Staroverov, T. A. Keith, R. Kobayashi, J. Normand, 
 K. Raghavachari, A. P. Rendell, J. C. Burant, S. S. Iyengar, 
 J. Tomasi, M. Cossi, J. M. Millam, M. Klene, C. Adamo, R. Cammi, 
 J. W. Ochterski, R. L. Martin, K. Morokuma, O. Farkas, 
 J. B. Foresman, and D. J. Fox, Gaussian, Inc., Wallingford CT, 2016.
 
 ******************************************
 Gaussian 16:  EM64L-G16RevA.03 25-Dec-2016
                14-Apr-2023 
 ******************************************
 %chk=dimer_13b_00006_gaussian.chk
 %nproc=8
 Will use up to    8 processors via shared memory.
 %mem=4000Mb
 -------------------------------------
 #p opt=modredundant m062x/6-311g(d,p)
 -------------------------------------
 1/18=120,19=15,26=3,38=1/1,3;
 2/9=110,12=2,17=6,18=5,40=1/2;
 3/5=4,6=6,7=101,11=2,25=1,30=1,71=1,74=-55/1,2,3;
 4//1;
 5/5=2,38=5/2;
 6/7=2,8=2,9=2,10=2,28=1/1;
 7//1,2,3,16;
 1/18=20,19=15,26=3/3(2);
 2/9=110/2;
 99//99;
 2/9=110/2;
 3/5=4,6=6,7=101,11=2,25=1,30=1,71=1,74=-55/1,2,3;
 4/5=5,16=3,69=1/1;
 5/5=2,38=5/2;
 7//1,2,3,16;
 1/18=20,19=15,26=3/3(-5);
 2/9=110/2;
 6/7=2,8=2,9=2,10=2,19=2,28=1/1;
 99/9=1/99;
 Leave Link    1 at Fri Apr 14 15:52:39 2023, MaxMem=   524288000 cpu:               0.9 elap:               0.2
 (Enter /dragofs/sw/campus/0.2/software/gaussian/16.gaussian/gaussian/g16_legacy/l101.exe)
 ----------------------------------------------------
 Conformer number 00006. Energy MM = 189.220 kcal/mol
 ----------------------------------------------------
 Symbolic Z-matrix:
 Charge =  0 Multiplicity = 1
 C                     0.3052    1.1415   -0.7528 
 H                    -0.6198    1.396    -0.2057 
 O                     0.1859    1.7304   -2.0476 
 H                     0.5624    1.0635   -2.6717 
 C                     1.4702    1.3489    1.2789 
 H                     0.5074    1.6126    1.7383 
 O                     1.4368    1.732    -0.1116 
 C                     0.5174   -0.3829   -0.8518 
 H                     1.2821   -0.596    -1.5988 
 O                    -0.6904   -1.0101   -1.3494 
 H                    -0.463    -1.953    -1.5329 
 C                     0.8193   -1.0056    0.532 
 H                    -0.1421   -1.0985    1.0518 
 O                     1.3189   -2.3683    0.4396 
 C                     1.758    -0.1546    1.4065 
 H                     2.8206   -0.3259    1.1651 
 O                     1.5872   -0.5679    2.7749 
 H                     1.9947   -1.4501    2.8762 
 C                     2.5432    2.1837    1.975 
 H                     2.473     2.0473    3.0612 
 H                     3.554     1.902     1.6352 
 O                     2.3441    3.5689    1.6643 
 H                     2.2151    3.6039    0.6909 
 C                     2.5838   -2.5357   -0.3289 
 H                     3.2722   -2.9825    0.4017 
 C                     4.3895   -1.4254   -1.3807 
 H                     5.0603   -1.8338   -0.6197 
 O                     3.0631   -1.3005   -0.8337 
 C                     2.3716   -3.4842   -1.5184 
 H                     1.6286   -3.055    -2.2103 
 O                     1.8913   -4.7691   -1.1067 
 H                     1.4554   -5.136    -1.9134 
 C                     3.709    -3.6818   -2.2522 
 H                     4.3829   -4.2754   -1.6134 
 O                     3.5107   -4.4582   -3.4448 
 H                     4.3489   -4.932    -3.6075 
 C                     4.3612   -2.3347   -2.608 
 H                     3.7957   -1.8539   -3.4215 
 O                     5.6772   -2.5666   -3.1049 
 H                     5.6336   -2.5521   -4.0891 
 C                     4.9254   -0.0222   -1.7189 
 H                     5.9312   -0.1086   -2.1586 
 H                     4.2868    0.5333   -2.4232 
 O                     5.0384    0.761    -0.5273 
 H                     4.7276    1.6717   -0.7384 
 
 The following ModRedundant input section has been read:
 D      12      14      24      28 F                                           
 D       8      12      14      24 F                                           
 
 ITRead=  0  0  0  0  0  0  0  0  0  0  0  0  0  0  0  0  0  0  0  0
 ITRead=  0  0  0  0  0  0  0  0  0  0  0  0  0  0  0  0  0  0  0  0
 ITRead=  0  0  0  0  0
 MicOpt= -1 -1 -1 -1 -1 -1 -1 -1 -1 -1 -1 -1 -1 -1 -1 -1 -1 -1 -1 -1
 MicOpt= -1 -1 -1 -1 -1 -1 -1 -1 -1 -1 -1 -1 -1 -1 -1 -1 -1 -1 -1 -1
 MicOpt= -1 -1 -1 -1 -1
 NAtoms=     45 NQM=       45 NQMF=       0 NMMI=      0 NMMIF=      0
                NMic=       0 NMicF=      0.
                    Isotopes and Nuclear Properties:
 (Nuclear quadrupole moments (NQMom) in fm**2, nuclear magnetic moments (NMagM)
  in nuclear magnetons)

  Atom         1           2           3           4           5           6           7           8           9          10
 IAtWgt=          12           1          16           1          12           1          16          12           1          16
 AtmWgt=  12.0000000   1.0078250  15.9949146   1.0078250  12.0000000   1.0078250  15.9949146  12.0000000   1.0078250  15.9949146
 NucSpn=           0           1           0           1           0           1           0           0           1           0
 AtZEff=  -0.0000000  -0.0000000  -0.0000000  -0.0000000  -0.0000000  -0.0000000  -0.0000000  -0.0000000  -0.0000000  -0.0000000
 NQMom=    0.0000000   0.0000000   0.0000000   0.0000000   0.0000000   0.0000000   0.0000000   0.0000000   0.0000000   0.0000000
 NMagM=    0.0000000   2.7928460   0.0000000   2.7928460   0.0000000   2.7928460   0.0000000   0.0000000   2.7928460   0.0000000
 AtZNuc=   6.0000000   1.0000000   8.0000000   1.0000000   6.0000000   1.0000000   8.0000000   6.0000000   1.0000000   8.0000000

  Atom        11          12          13          14          15          16          17          18          19          20
 IAtWgt=           1          12           1          16          12           1          16           1          12           1
 AtmWgt=   1.0078250  12.0000000   1.0078250  15.9949146  12.0000000   1.0078250  15.9949146   1.0078250  12.0000000   1.0078250
 NucSpn=           1           0           1           0           0           1           0           1           0           1
 AtZEff=  -0.0000000  -0.0000000  -0.0000000  -0.0000000  -0.0000000  -0.0000000  -0.0000000  -0.0000000  -0.0000000  -0.0000000
 NQMom=    0.0000000   0.0000000   0.0000000   0.0000000   0.0000000   0.0000000   0.0000000   0.0000000   0.0000000   0.0000000
 NMagM=    2.7928460   0.0000000   2.7928460   0.0000000   0.0000000   2.7928460   0.0000000   2.7928460   0.0000000   2.7928460
 AtZNuc=   1.0000000   6.0000000   1.0000000   8.0000000   6.0000000   1.0000000   8.0000000   1.0000000   6.0000000   1.0000000

  Atom        21          22          23          24          25          26          27          28          29          30
 IAtWgt=           1          16           1          12           1          12           1          16          12           1
 AtmWgt=   1.0078250  15.9949146   1.0078250  12.0000000   1.0078250  12.0000000   1.0078250  15.9949146  12.0000000   1.0078250
 NucSpn=           1           0           1           0           1           0           1           0           0           1
 AtZEff=  -0.0000000  -0.0000000  -0.0000000  -0.0000000  -0.0000000  -0.0000000  -0.0000000  -0.0000000  -0.0000000  -0.0000000
 NQMom=    0.0000000   0.0000000   0.0000000   0.0000000   0.0000000   0.0000000   0.0000000   0.0000000   0.0000000   0.0000000
 NMagM=    2.7928460   0.0000000   2.7928460   0.0000000   2.7928460   0.0000000   2.7928460   0.0000000   0.0000000   2.7928460
 AtZNuc=   1.0000000   8.0000000   1.0000000   6.0000000   1.0000000   6.0000000   1.0000000   8.0000000   6.0000000   1.0000000

  Atom        31          32          33          34          35          36          37          38          39          40
 IAtWgt=          16           1          12           1          16           1          12           1          16           1
 AtmWgt=  15.9949146   1.0078250  12.0000000   1.0078250  15.9949146   1.0078250  12.0000000   1.0078250  15.9949146   1.0078250
 NucSpn=           0           1           0           1           0           1           0           1           0           1
 AtZEff=  -0.0000000  -0.0000000  -0.0000000  -0.0000000  -0.0000000  -0.0000000  -0.0000000  -0.0000000  -0.0000000  -0.0000000
 NQMom=    0.0000000   0.0000000   0.0000000   0.0000000   0.0000000   0.0000000   0.0000000   0.0000000   0.0000000   0.0000000
 NMagM=    0.0000000   2.7928460   0.0000000   2.7928460   0.0000000   2.7928460   0.0000000   2.7928460   0.0000000   2.7928460
 AtZNuc=   8.0000000   1.0000000   6.0000000   1.0000000   8.0000000   1.0000000   6.0000000   1.0000000   8.0000000   1.0000000

  Atom        41          42          43          44          45
 IAtWgt=          12           1           1          16           1
 AtmWgt=  12.0000000   1.0078250   1.0078250  15.9949146   1.0078250
 NucSpn=           0           1           1           0           1
 AtZEff=  -0.0000000  -0.0000000  -0.0000000  -0.0000000  -0.0000000
 NQMom=    0.0000000   0.0000000   0.0000000   0.0000000   0.0000000
 NMagM=    0.0000000   2.7928460   2.7928460   0.0000000   2.7928460
 AtZNuc=   6.0000000   1.0000000   1.0000000   8.0000000   1.0000000
 Leave Link  101 at Fri Apr 14 15:52:39 2023, MaxMem=   524288000 cpu:               1.5 elap:               0.5
 (Enter /dragofs/sw/campus/0.2/software/gaussian/16.gaussian/gaussian/g16_legacy/l103.exe)

 GradGradGradGradGradGradGradGradGradGradGradGradGradGradGradGradGradGrad
 Berny optimization.
 Initialization pass.
                           ----------------------------
                           !    Initial Parameters    !
                           ! (Angstroms and Degrees)  !
 --------------------------                            --------------------------
 ! Name  Definition              Value          Derivative Info.                !
 --------------------------------------------------------------------------------
 ! R1    R(1,2)                  1.1044         estimate D2E/DX2                !
 ! R2    R(1,3)                  1.4274         estimate D2E/DX2                !
 ! R3    R(1,7)                  1.4284         estimate D2E/DX2                !
 ! R4    R(1,8)                  1.5423         estimate D2E/DX2                !
 ! R5    R(3,4)                  0.9879         estimate D2E/DX2                !
 ! R6    R(5,6)                  1.0989         estimate D2E/DX2                !
 ! R7    R(5,7)                  1.4427         estimate D2E/DX2                !
 ! R8    R(5,15)                 1.5361         estimate D2E/DX2                !
 ! R9    R(5,19)                 1.5273         estimate D2E/DX2                !
 ! R10   R(8,9)                  1.09           estimate D2E/DX2                !
 ! R11   R(8,10)                 1.4491         estimate D2E/DX2                !
 ! R12   R(8,12)                 1.5472         estimate D2E/DX2                !
 ! R13   R(10,11)                0.9871         estimate D2E/DX2                !
 ! R14   R(12,13)                1.0969         estimate D2E/DX2                !
 ! R15   R(12,14)                1.4543         estimate D2E/DX2                !
 ! R16   R(12,15)                1.5395         estimate D2E/DX2                !
 ! R17   R(14,24)                1.4895         estimate D2E/DX2                !
 ! R18   R(15,16)                1.1031         estimate D2E/DX2                !
 ! R19   R(15,17)                1.4396         estimate D2E/DX2                !
 ! R20   R(17,18)                0.977          estimate D2E/DX2                !
 ! R21   R(19,20)                1.097          estimate D2E/DX2                !
 ! R22   R(19,21)                1.103          estimate D2E/DX2                !
 ! R23   R(19,22)                1.4335         estimate D2E/DX2                !
 ! R24   R(22,23)                0.9825         estimate D2E/DX2                !
 ! R25   R(24,25)                1.0988         estimate D2E/DX2                !
 ! R26   R(24,28)                1.4178         estimate D2E/DX2                !
 ! R27   R(24,29)                1.5361         estimate D2E/DX2                !
 ! R28   R(26,27)                1.0936         estimate D2E/DX2                !
 ! R29   R(26,28)                1.4402         estimate D2E/DX2                !
 ! R30   R(26,37)                1.5277         estimate D2E/DX2                !
 ! R31   R(26,41)                1.5397         estimate D2E/DX2                !
 ! R32   R(29,30)                1.1023         estimate D2E/DX2                !
 ! R33   R(29,31)                1.4322         estimate D2E/DX2                !
 ! R34   R(29,33)                1.5382         estimate D2E/DX2                !
 ! R35   R(31,32)                0.9876         estimate D2E/DX2                !
 ! R36   R(33,34)                1.1021         estimate D2E/DX2                !
 ! R37   R(33,35)                1.4368         estimate D2E/DX2                !
 ! R38   R(33,37)                1.5384         estimate D2E/DX2                !
 ! R39   R(35,36)                0.9765         estimate D2E/DX2                !
 ! R40   R(37,38)                1.1012         estimate D2E/DX2                !
 ! R41   R(37,39)                1.4257         estimate D2E/DX2                !
 ! R42   R(39,40)                0.9853         estimate D2E/DX2                !
 ! R43   R(41,42)                1.1011         estimate D2E/DX2                !
 ! R44   R(41,43)                1.1011         estimate D2E/DX2                !
 ! R45   R(41,44)                1.4304         estimate D2E/DX2                !
 ! R46   R(44,45)                0.9852         estimate D2E/DX2                !
 ! A1    A(2,1,3)              106.5159         estimate D2E/DX2                !
 ! A2    A(2,1,7)              110.2358         estimate D2E/DX2                !
 ! A3    A(2,1,8)              112.0123         estimate D2E/DX2                !
 ! A4    A(3,1,7)              107.6284         estimate D2E/DX2                !
 ! A5    A(3,1,8)              111.1648         estimate D2E/DX2                !
 ! A6    A(7,1,8)              109.1729         estimate D2E/DX2                !
 ! A7    A(1,3,4)              105.2291         estimate D2E/DX2                !
 ! A8    A(6,5,7)              108.5979         estimate D2E/DX2                !
 ! A9    A(6,5,15)             111.3646         estimate D2E/DX2                !
 ! A10   A(6,5,19)             107.0873         estimate D2E/DX2                !
 ! A11   A(7,5,15)             110.1395         estimate D2E/DX2                !
 ! A12   A(7,5,19)             108.0831         estimate D2E/DX2                !
 ! A13   A(15,5,19)            111.4375         estimate D2E/DX2                !
 ! A14   A(1,7,5)              109.951          estimate D2E/DX2                !
 ! A15   A(1,8,9)              109.4962         estimate D2E/DX2                !
 ! A16   A(1,8,10)             109.5833         estimate D2E/DX2                !
 ! A17   A(1,8,12)             111.5456         estimate D2E/DX2                !
 ! A18   A(9,8,10)             105.3544         estimate D2E/DX2                !
 ! A19   A(9,8,12)             113.4129         estimate D2E/DX2                !
 ! A20   A(10,8,12)            107.1917         estimate D2E/DX2                !
 ! A21   A(8,10,11)            106.5744         estimate D2E/DX2                !
 ! A22   A(8,12,13)            106.673          estimate D2E/DX2                !
 ! A23   A(8,12,14)            112.7878         estimate D2E/DX2                !
 ! A24   A(8,12,15)            113.863          estimate D2E/DX2                !
 ! A25   A(13,12,14)           104.5869         estimate D2E/DX2                !
 ! A26   A(13,12,15)           108.1835         estimate D2E/DX2                !
 ! A27   A(14,12,15)           110.1557         estimate D2E/DX2                !
 ! A28   A(12,14,24)           115.4557         estimate D2E/DX2                !
 ! A29   A(5,15,12)            112.3098         estimate D2E/DX2                !
 ! A30   A(5,15,16)            108.3189         estimate D2E/DX2                !
 ! A31   A(5,15,17)            109.7383         estimate D2E/DX2                !
 ! A32   A(12,15,16)           112.1615         estimate D2E/DX2                !
 ! A33   A(12,15,17)           107.9929         estimate D2E/DX2                !
 ! A34   A(16,15,17)           106.1246         estimate D2E/DX2                !
 ! A35   A(15,17,18)           107.9564         estimate D2E/DX2                !
 ! A36   A(5,19,20)            109.7771         estimate D2E/DX2                !
 ! A37   A(5,19,21)            111.3348         estimate D2E/DX2                !
 ! A38   A(5,19,22)            109.3778         estimate D2E/DX2                !
 ! A39   A(20,19,21)           109.3866         estimate D2E/DX2                !
 ! A40   A(20,19,22)           109.0185         estimate D2E/DX2                !
 ! A41   A(21,19,22)           107.8969         estimate D2E/DX2                !
 ! A42   A(19,22,23)           105.5086         estimate D2E/DX2                !
 ! A43   A(14,24,25)           103.5729         estimate D2E/DX2                !
 ! A44   A(14,24,28)           111.8922         estimate D2E/DX2                !
 ! A45   A(14,24,29)           110.5862         estimate D2E/DX2                !
 ! A46   A(25,24,28)           112.2839         estimate D2E/DX2                !
 ! A47   A(25,24,29)           110.5091         estimate D2E/DX2                !
 ! A48   A(28,24,29)           107.9949         estimate D2E/DX2                !
 ! A49   A(27,26,28)           109.4524         estimate D2E/DX2                !
 ! A50   A(27,26,37)           110.3729         estimate D2E/DX2                !
 ! A51   A(27,26,41)           106.243          estimate D2E/DX2                !
 ! A52   A(28,26,37)           109.8576         estimate D2E/DX2                !
 ! A53   A(28,26,41)           108.9628         estimate D2E/DX2                !
 ! A54   A(37,26,41)           111.8659         estimate D2E/DX2                !
 ! A55   A(24,28,26)           111.7781         estimate D2E/DX2                !
 ! A56   A(24,29,30)           109.8014         estimate D2E/DX2                !
 ! A57   A(24,29,31)           112.1913         estimate D2E/DX2                !
 ! A58   A(24,29,33)           109.185          estimate D2E/DX2                !
 ! A59   A(30,29,31)           107.6814         estimate D2E/DX2                !
 ! A60   A(30,29,33)           109.6722         estimate D2E/DX2                !
 ! A61   A(31,29,33)           108.2679         estimate D2E/DX2                !
 ! A62   A(29,31,32)           104.271          estimate D2E/DX2                !
 ! A63   A(29,33,34)           108.925          estimate D2E/DX2                !
 ! A64   A(29,33,35)           110.2051         estimate D2E/DX2                !
 ! A65   A(29,33,37)           111.4965         estimate D2E/DX2                !
 ! A66   A(34,33,35)           105.9297         estimate D2E/DX2                !
 ! A67   A(34,33,37)           110.2714         estimate D2E/DX2                !
 ! A68   A(35,33,37)           109.8595         estimate D2E/DX2                !
 ! A69   A(33,35,36)           106.3807         estimate D2E/DX2                !
 ! A70   A(26,37,33)           110.0748         estimate D2E/DX2                !
 ! A71   A(26,37,38)           110.0657         estimate D2E/DX2                !
 ! A72   A(26,37,39)           111.0829         estimate D2E/DX2                !
 ! A73   A(33,37,38)           109.6003         estimate D2E/DX2                !
 ! A74   A(33,37,39)           109.2392         estimate D2E/DX2                !
 ! A75   A(38,37,39)           106.7117         estimate D2E/DX2                !
 ! A76   A(37,39,40)           107.7531         estimate D2E/DX2                !
 ! A77   A(26,41,42)           109.5203         estimate D2E/DX2                !
 ! A78   A(26,41,43)           113.4793         estimate D2E/DX2                !
 ! A79   A(26,41,44)           110.0913         estimate D2E/DX2                !
 ! A80   A(42,41,43)           108.2962         estimate D2E/DX2                !
 ! A81   A(42,41,44)           107.6655         estimate D2E/DX2                !
 ! A82   A(43,41,44)           107.6036         estimate D2E/DX2                !
 ! A83   A(41,44,45)           107.6213         estimate D2E/DX2                !
 ! D1    D(2,1,3,4)           -140.423          estimate D2E/DX2                !
 ! D2    D(7,1,3,4)            101.3629         estimate D2E/DX2                !
 ! D3    D(8,1,3,4)            -18.1459         estimate D2E/DX2                !
 ! D4    D(2,1,7,5)             54.2814         estimate D2E/DX2                !
 ! D5    D(3,1,7,5)            170.07           estimate D2E/DX2                !
 ! D6    D(8,1,7,5)            -69.161          estimate D2E/DX2                !
 ! D7    D(2,1,8,9)            165.7391         estimate D2E/DX2                !
 ! D8    D(2,1,8,10)            50.6459         estimate D2E/DX2                !
 ! D9    D(2,1,8,12)           -67.8924         estimate D2E/DX2                !
 ! D10   D(3,1,8,9)             46.7047         estimate D2E/DX2                !
 ! D11   D(3,1,8,10)           -68.3886         estimate D2E/DX2                !
 ! D12   D(3,1,8,12)           173.0731         estimate D2E/DX2                !
 ! D13   D(7,1,8,9)            -71.879          estimate D2E/DX2                !
 ! D14   D(7,1,8,10)           173.0278         estimate D2E/DX2                !
 ! D15   D(7,1,8,12)            54.4895         estimate D2E/DX2                !
 ! D16   D(6,5,7,1)            -54.6019         estimate D2E/DX2                !
 ! D17   D(15,5,7,1)            67.5935         estimate D2E/DX2                !
 ! D18   D(19,5,7,1)          -170.4509         estimate D2E/DX2                !
 ! D19   D(6,5,15,12)           69.4524         estimate D2E/DX2                !
 ! D20   D(6,5,15,16)         -166.1203         estimate D2E/DX2                !
 ! D21   D(6,5,15,17)          -50.6776         estimate D2E/DX2                !
 ! D22   D(7,5,15,12)          -51.0929         estimate D2E/DX2                !
 ! D23   D(7,5,15,16)           73.3343         estimate D2E/DX2                !
 ! D24   D(7,5,15,17)         -171.2229         estimate D2E/DX2                !
 ! D25   D(19,5,15,12)        -171.0386         estimate D2E/DX2                !
 ! D26   D(19,5,15,16)         -46.6114         estimate D2E/DX2                !
 ! D27   D(19,5,15,17)          68.8314         estimate D2E/DX2                !
 ! D28   D(6,5,19,20)           53.1371         estimate D2E/DX2                !
 ! D29   D(6,5,19,21)          174.4117         estimate D2E/DX2                !
 ! D30   D(6,5,19,22)          -66.438          estimate D2E/DX2                !
 ! D31   D(7,5,19,20)          169.9682         estimate D2E/DX2                !
 ! D32   D(7,5,19,21)          -68.7571         estimate D2E/DX2                !
 ! D33   D(7,5,19,22)           50.3931         estimate D2E/DX2                !
 ! D34   D(15,5,19,20)         -68.8787         estimate D2E/DX2                !
 ! D35   D(15,5,19,21)          52.396          estimate D2E/DX2                !
 ! D36   D(15,5,19,22)         171.5463         estimate D2E/DX2                !
 ! D37   D(1,8,10,11)          171.0959         estimate D2E/DX2                !
 ! D38   D(9,8,10,11)           53.3836         estimate D2E/DX2                !
 ! D39   D(12,8,10,11)         -67.7001         estimate D2E/DX2                !
 ! D40   D(1,8,12,13)           78.8263         estimate D2E/DX2                !
 ! D41   D(1,8,12,14)         -166.9072         estimate D2E/DX2                !
 ! D42   D(1,8,12,15)          -40.4286         estimate D2E/DX2                !
 ! D43   D(9,8,12,13)         -156.9814         estimate D2E/DX2                !
 ! D44   D(9,8,12,14)          -42.7149         estimate D2E/DX2                !
 ! D45   D(9,8,12,15)           83.7637         estimate D2E/DX2                !
 ! D46   D(10,8,12,13)         -41.1319         estimate D2E/DX2                !
 ! D47   D(10,8,12,14)          73.1347         estimate D2E/DX2                !
 ! D48   D(10,8,12,15)        -160.3867         estimate D2E/DX2                !
 ! D49   D(8,12,14,24)          59.9383         Frozen                          !
 ! D50   D(13,12,14,24)        175.4624         estimate D2E/DX2                !
 ! D51   D(15,12,14,24)        -68.4968         estimate D2E/DX2                !
 ! D52   D(8,12,15,5)           38.9092         estimate D2E/DX2                !
 ! D53   D(8,12,15,16)         -83.3647         estimate D2E/DX2                !
 ! D54   D(8,12,15,17)         160.0464         estimate D2E/DX2                !
 ! D55   D(13,12,15,5)         -79.4839         estimate D2E/DX2                !
 ! D56   D(13,12,15,16)        158.2422         estimate D2E/DX2                !
 ! D57   D(13,12,15,17)         41.6533         estimate D2E/DX2                !
 ! D58   D(14,12,15,5)         166.7539         estimate D2E/DX2                !
 ! D59   D(14,12,15,16)         44.48           estimate D2E/DX2                !
 ! D60   D(14,12,15,17)        -72.1089         estimate D2E/DX2                !
 ! D61   D(12,14,24,25)        121.0818         estimate D2E/DX2                !
 ! D62   D(12,14,24,28)         -0.0777         Frozen                          !
 ! D63   D(12,14,24,29)       -120.5142         estimate D2E/DX2                !
 ! D64   D(5,15,17,18)        -165.3804         estimate D2E/DX2                !
 ! D65   D(12,15,17,18)         71.8963         estimate D2E/DX2                !
 ! D66   D(16,15,17,18)        -48.5513         estimate D2E/DX2                !
 ! D67   D(5,19,22,23)         -47.5948         estimate D2E/DX2                !
 ! D68   D(20,19,22,23)       -167.6361         estimate D2E/DX2                !
 ! D69   D(21,19,22,23)         73.6609         estimate D2E/DX2                !
 ! D70   D(14,24,28,26)        170.359          estimate D2E/DX2                !
 ! D71   D(25,24,28,26)         54.382          estimate D2E/DX2                !
 ! D72   D(29,24,28,26)        -67.7059         estimate D2E/DX2                !
 ! D73   D(14,24,29,30)         62.1523         estimate D2E/DX2                !
 ! D74   D(14,24,29,31)        -57.5507         estimate D2E/DX2                !
 ! D75   D(14,24,29,33)       -177.5755         estimate D2E/DX2                !
 ! D76   D(25,24,29,30)        176.2413         estimate D2E/DX2                !
 ! D77   D(25,24,29,31)         56.5383         estimate D2E/DX2                !
 ! D78   D(25,24,29,33)        -63.4865         estimate D2E/DX2                !
 ! D79   D(28,24,29,30)        -60.5847         estimate D2E/DX2                !
 ! D80   D(28,24,29,31)        179.7124         estimate D2E/DX2                !
 ! D81   D(28,24,29,33)         59.6876         estimate D2E/DX2                !
 ! D82   D(27,26,28,24)        -56.0265         estimate D2E/DX2                !
 ! D83   D(37,26,28,24)         65.3124         estimate D2E/DX2                !
 ! D84   D(41,26,28,24)       -171.8133         estimate D2E/DX2                !
 ! D85   D(27,26,37,33)         66.7615         estimate D2E/DX2                !
 ! D86   D(27,26,37,38)       -172.3264         estimate D2E/DX2                !
 ! D87   D(27,26,37,39)        -54.3621         estimate D2E/DX2                !
 ! D88   D(28,26,37,33)        -54.0238         estimate D2E/DX2                !
 ! D89   D(28,26,37,38)         66.8883         estimate D2E/DX2                !
 ! D90   D(28,26,37,39)       -175.1474         estimate D2E/DX2                !
 ! D91   D(41,26,37,33)       -175.1695         estimate D2E/DX2                !
 ! D92   D(41,26,37,38)        -54.2574         estimate D2E/DX2                !
 ! D93   D(41,26,37,39)         63.707          estimate D2E/DX2                !
 ! D94   D(27,26,41,42)         63.3988         estimate D2E/DX2                !
 ! D95   D(27,26,41,43)       -175.4608         estimate D2E/DX2                !
 ! D96   D(27,26,41,44)        -54.798          estimate D2E/DX2                !
 ! D97   D(28,26,41,42)       -178.7693         estimate D2E/DX2                !
 ! D98   D(28,26,41,43)        -57.6288         estimate D2E/DX2                !
 ! D99   D(28,26,41,44)         63.0339         estimate D2E/DX2                !
 ! D100  D(37,26,41,42)        -57.1072         estimate D2E/DX2                !
 ! D101  D(37,26,41,43)         64.0333         estimate D2E/DX2                !
 ! D102  D(37,26,41,44)       -175.304          estimate D2E/DX2                !
 ! D103  D(24,29,31,32)        157.6207         estimate D2E/DX2                !
 ! D104  D(30,29,31,32)         36.6877         estimate D2E/DX2                !
 ! D105  D(33,29,31,32)        -81.8223         estimate D2E/DX2                !
 ! D106  D(24,29,33,34)         69.8803         estimate D2E/DX2                !
 ! D107  D(24,29,33,35)       -174.312          estimate D2E/DX2                !
 ! D108  D(24,29,33,37)        -52.0361         estimate D2E/DX2                !
 ! D109  D(30,29,33,34)       -169.7682         estimate D2E/DX2                !
 ! D110  D(30,29,33,35)        -53.9605         estimate D2E/DX2                !
 ! D111  D(30,29,33,37)         68.3154         estimate D2E/DX2                !
 ! D112  D(31,29,33,34)        -52.5307         estimate D2E/DX2                !
 ! D113  D(31,29,33,35)         63.2769         estimate D2E/DX2                !
 ! D114  D(31,29,33,37)       -174.4472         estimate D2E/DX2                !
 ! D115  D(29,33,35,36)       -151.4279         estimate D2E/DX2                !
 ! D116  D(34,33,35,36)        -33.7539         estimate D2E/DX2                !
 ! D117  D(37,33,35,36)         85.3357         estimate D2E/DX2                !
 ! D118  D(29,33,37,26)         49.3436         estimate D2E/DX2                !
 ! D119  D(29,33,37,38)        -71.8473         estimate D2E/DX2                !
 ! D120  D(29,33,37,39)        171.5644         estimate D2E/DX2                !
 ! D121  D(34,33,37,26)        -71.7913         estimate D2E/DX2                !
 ! D122  D(34,33,37,38)        167.0178         estimate D2E/DX2                !
 ! D123  D(34,33,37,39)         50.4295         estimate D2E/DX2                !
 ! D124  D(35,33,37,26)        171.8183         estimate D2E/DX2                !
 ! D125  D(35,33,37,38)         50.6274         estimate D2E/DX2                !
 ! D126  D(35,33,37,39)        -65.9609         estimate D2E/DX2                !
 ! D127  D(26,37,39,40)       -140.4165         estimate D2E/DX2                !
 ! D128  D(33,37,39,40)         97.9703         estimate D2E/DX2                !
 ! D129  D(38,37,39,40)        -20.4379         estimate D2E/DX2                !
 ! D130  D(26,41,44,45)       -139.0231         estimate D2E/DX2                !
 ! D131  D(42,41,44,45)        101.6434         estimate D2E/DX2                !
 ! D132  D(43,41,44,45)        -14.8888         estimate D2E/DX2                !
 --------------------------------------------------------------------------------
 Trust Radius=3.00D-01 FncErr=1.00D-07 GrdErr=1.00D-06 EigMax=2.50D+02 EigMin=1.00D-04
 Number of steps in this run=    270 maximum allowed number of steps=    270.
 GradGradGradGradGradGradGradGradGradGradGradGradGradGradGradGradGradGrad

 Leave Link  103 at Fri Apr 14 15:52:40 2023, MaxMem=   524288000 cpu:               0.2 elap:               0.2
 (Enter /dragofs/sw/campus/0.2/software/gaussian/16.gaussian/gaussian/g16_legacy/l202.exe)
                          Input orientation:                          
 ---------------------------------------------------------------------
 Center     Atomic      Atomic             Coordinates (Angstroms)
 Number     Number       Type             X           Y           Z
 ---------------------------------------------------------------------
      1          6           0        0.305200    1.141500   -0.752800
      2          1           0       -0.619800    1.396000   -0.205700
      3          8           0        0.185900    1.730400   -2.047600
      4          1           0        0.562400    1.063500   -2.671700
      5          6           0        1.470200    1.348900    1.278900
      6          1           0        0.507400    1.612600    1.738300
      7          8           0        1.436800    1.732000   -0.111600
      8          6           0        0.517400   -0.382900   -0.851800
      9          1           0        1.282100   -0.596000   -1.598800
     10          8           0       -0.690400   -1.010100   -1.349400
     11          1           0       -0.463000   -1.953000   -1.532900
     12          6           0        0.819300   -1.005600    0.532000
     13          1           0       -0.142100   -1.098500    1.051800
     14          8           0        1.318900   -2.368300    0.439600
     15          6           0        1.758000   -0.154600    1.406500
     16          1           0        2.820600   -0.325900    1.165100
     17          8           0        1.587200   -0.567900    2.774900
     18          1           0        1.994700   -1.450100    2.876200
     19          6           0        2.543200    2.183700    1.975000
     20          1           0        2.473000    2.047300    3.061200
     21          1           0        3.554000    1.902000    1.635200
     22          8           0        2.344100    3.568900    1.664300
     23          1           0        2.215100    3.603900    0.690900
     24          6           0        2.583800   -2.535700   -0.328900
     25          1           0        3.272200   -2.982500    0.401700
     26          6           0        4.389500   -1.425400   -1.380700
     27          1           0        5.060300   -1.833800   -0.619700
     28          8           0        3.063100   -1.300500   -0.833700
     29          6           0        2.371600   -3.484200   -1.518400
     30          1           0        1.628600   -3.055000   -2.210300
     31          8           0        1.891300   -4.769100   -1.106700
     32          1           0        1.455400   -5.136000   -1.913400
     33          6           0        3.709000   -3.681800   -2.252200
     34          1           0        4.382900   -4.275400   -1.613400
     35          8           0        3.510700   -4.458200   -3.444800
     36          1           0        4.348900   -4.932000   -3.607500
     37          6           0        4.361200   -2.334700   -2.608000
     38          1           0        3.795700   -1.853900   -3.421500
     39          8           0        5.677200   -2.566600   -3.104900
     40          1           0        5.633600   -2.552100   -4.089100
     41          6           0        4.925400   -0.022200   -1.718900
     42          1           0        5.931200   -0.108600   -2.158600
     43          1           0        4.286800    0.533300   -2.423200
     44          8           0        5.038400    0.761000   -0.527300
     45          1           0        4.727600    1.671700   -0.738400
 ---------------------------------------------------------------------
                    Distance matrix (angstroms):
                    1          2          3          4          5
     1  C    0.000000
     2  H    1.104406   0.000000
     3  O    1.427425   2.038031   0.000000
     4  H    1.937631   2.754870   0.987932   0.000000
     5  C    2.351179   2.564051   3.586164   4.063594   0.000000
     6  H    2.543305   2.257572   3.801352   4.444394   1.098895
     7  O    1.428407   2.085990   2.304962   2.786679   1.442696
     8  C    1.542279   2.207975   2.450687   2.325109   2.906345
     9  H    2.165400   3.086424   2.610596   2.103098   3.478387
    10  O    2.444695   2.665024   2.960697   2.760037   4.140173
    11  H    3.282471   3.605807   3.775371   3.383428   4.748265
    12  C    2.554417   2.895323   3.813296   3.822416   2.554447
    13  H    2.911058   2.834084   4.209102   4.362914   2.939533
    14  O    3.842929   4.283098   4.926377   4.693584   3.813777
    15  C    2.907418   3.264580   4.237397   4.420966   1.536106
    16  H    3.486953   4.084163   4.635888   4.663790   2.154411
    17  O    4.124347   4.196633   5.522892   5.777295   2.434302
    18  H    4.768694   4.943076   6.134423   6.256905   3.265099
    19  C    3.679092   3.921797   4.684406   5.173996   1.527343
    20  H    4.479557   4.545574   5.606344   6.122450   2.161010
    21  H    4.103121   4.589723   4.993652   5.310569   2.185198
    22  O    3.986447   4.123481   4.670772   5.315297   2.416740
    23  H    3.434443   3.703427   3.889349   4.526823   2.446558
    24  C    4.346666   5.073115   5.186855   4.746473   4.349166
    25  H    5.209927   5.889640   6.142943   5.758378   4.772600
    26  C    4.864642   5.868050   5.298498   4.744260   4.826233
    27  H    5.610802   6.547254   6.205014   5.730284   5.159756
    28  O    3.684552   4.607521   4.351803   3.901313   3.744293
    29  C    5.123793   5.872649   5.678855   5.028407   5.656524
    30  H    4.635332   5.374488   5.000791   4.279219   5.620849
    31  O    6.129939   6.717580   6.785071   6.183399   6.580147
    32  H    6.486675   7.063265   6.984060   6.309221   7.228065
    33  C    6.090836   6.979307   6.461115   5.709198   6.541318
    34  H    6.834550   7.692425   7.339821   6.649817   6.962900
    35  O    6.991333   7.862853   7.162767   6.307085   7.758827
    36  H    7.835064   8.735205   8.009459   7.152575   8.462477
    37  C    5.654809   6.670797   5.854248   5.097323   6.085621
    38  H    5.317704   6.356088   5.269294   4.419010   6.144887
    39  O    6.938355   7.984971   7.052409   6.287008   7.228256
    40  H    7.291462   8.353041   7.223916   6.387383   7.833717
    41  C    4.861460   5.920330   5.063843   4.595905   4.775471
    42  H    5.932192   6.999517   6.033466   5.519158   5.817322
    43  H    4.360422   5.453098   4.288532   3.770148   4.722709
    44  O    4.753821   5.702796   5.176660   4.972377   4.042281
    45  H    4.454093   5.380935   4.726996   4.632110   3.845043
                    6          7          8          9         10
     6  H    0.000000
     7  O    2.073685   0.000000
     8  C    3.269669   2.421982   0.000000
     9  H    4.076066   2.766818   1.090040   0.000000
    10  O    4.224591   3.684595   1.449057   2.030871   0.000000
    11  H    4.935173   4.382757   1.972383   2.211598   0.987139
    12  C    2.899554   2.879233   1.547191   2.218618   2.412236
    13  H    2.871097   3.443567   2.137923   3.050661   2.464591
    14  O    4.265292   4.138862   2.500386   2.701384   3.013721
    15  C    2.190225   2.442756   2.586722   3.074596   3.784379
    16  H    3.072008   2.789232   3.062003   3.174757   4.372409
    17  O    2.644823   3.693784   3.785717   4.384419   4.732109
    18  H    3.589848   4.400450   4.149616   4.611172   5.025839
    19  C    2.127596   2.404590   4.322279   4.699910   5.631000
    20  H    2.408861   3.352579   5.004179   5.488249   6.229622
    21  H    3.062051   2.750045   4.541682   4.675499   5.950050
    22  O    2.684409   2.711313   5.028351   5.396486   6.265606
    23  H    2.824635   2.180313   4.599639   4.873641   5.821834
    24  C    5.078695   4.424488   3.029518   2.658854   3.753566
    25  H    5.526804   5.085143   3.989750   3.695657   4.760138
    26  C    5.833379   4.505355   4.044713   3.223570   5.096944
    27  H    6.177923   5.109095   4.774612   4.094579   5.855040
    28  O    4.651122   3.516011   2.706087   2.062440   3.799874
    29  C    6.329195   5.482853   3.674299   3.087908   3.940251
    30  H    6.215708   5.230363   3.196937   2.557474   3.209443
    31  O    7.122872   6.592503   4.603404   4.245945   4.566635
    32  H    7.731573   7.100440   4.959718   4.554186   4.684614
    33  C    7.362405   6.249343   4.798976   3.979816   5.225682
    34  H    7.805251   6.857387   5.538383   4.811773   6.039061
    35  O    8.528713   7.330065   5.682567   4.826071   5.824889
    36  H    9.282591   8.069110   6.555043   5.678119   6.773098
    37  C    7.023053   5.596622   4.654950   3.677284   5.371899
    38  H    7.032288   5.420196   4.417516   3.350035   5.013052
    39  O    8.224909   6.739347   6.038919   5.046633   6.786074
    40  H    8.808022   7.196329   6.431255   5.381772   7.062344
    41  C    5.843246   4.222672   4.506931   3.690163   5.713990
    42  H    6.896808   5.270451   5.576038   4.707979   6.731500
    43  H    5.724232   3.860424   4.185343   3.314087   5.320493
    44  O    5.136938   3.753288   4.674746   4.135136   6.052420
    45  H    4.893631   3.350504   4.686152   4.213576   6.076191
                   11         12         13         14         15
    11  H    0.000000
    12  C    2.608768   0.000000
    13  H    2.741135   1.096865   0.000000
    14  O    2.690427   1.454335   2.030197   0.000000
    15  C    4.099653   1.539516   2.151079   2.455234   0.000000
    16  H    4.550680   2.206357   3.063876   2.636826   1.103058
    17  O    4.967793   2.410778   2.498217   2.960921   1.439621
    18  H    5.072806   2.659778   2.831602   2.690133   1.973415
    19  C    6.201201   3.902014   4.340043   4.957526   2.531280
    20  H    6.762267   4.295553   4.557685   5.263293   2.845632
    21  H    6.405792   4.141228   4.796302   4.965943   2.739986
    22  O    6.970888   4.953097   5.323624   6.148274   3.778151
    23  H    6.557183   4.818817   5.272495   6.044295   3.853225
    24  C    3.327483   2.489139   3.376745   1.489492   3.059934
    25  H    4.330620   3.153067   3.953420   2.047940   3.361464
    26  C    4.883470   4.071975   5.153573   3.692037   4.038342
    27  H    5.599552   4.471958   5.513578   3.925033   4.222604
    28  O    3.653494   2.643244   3.724140   2.409092   2.834584
    29  C    3.221761   3.571727   4.314647   2.487403   4.474124
    30  H    2.459281   3.517843   4.195780   2.754894   4.637921
    31  O    3.695239   4.242458   4.718807   2.912478   5.256192
    32  H    3.735844   4.841984   5.257930   3.635300   5.993968
    33  C    4.572934   4.823296   5.693929   3.831925   5.443678
    34  H    5.374269   5.290896   6.137720   4.152100   5.743770
    35  O    5.071655   5.914306   6.697010   4.925468   6.717741
    36  H    6.027669   6.708961   7.521561   5.668551   7.394357
    37  C    4.957261   4.916418   5.933130   4.306342   5.257918
    38  H    4.659738   5.020830   6.007272   4.615976   5.509031
    39  O    6.367868   6.266016   7.300529   5.621173   6.444424
    40  H    6.637892   6.850088   7.867688   6.257759   7.139321
    41  C    5.726905   4.784734   5.874926   4.813538   4.451750
    42  H    6.684243   5.845978   6.940572   5.755884   5.488866
    43  H    5.434604   4.808844   5.861190   5.042156   4.640543
    44  O    6.216304   4.695082   5.726157   4.956016   3.916495
    45  H    6.380596   4.904759   5.881565   5.415581   4.093225
                   16         17         18         19         20
    16  H    0.000000
    17  O    2.042375   0.000000
    18  H    2.207668   0.977034   0.000000
    19  C    2.651600   3.020774   3.783849   0.000000
    20  H    3.057466   2.775947   3.534799   1.096979   0.000000
    21  H    2.392156   3.356728   3.899753   1.102967   1.795313
    22  O    3.955467   4.349649   5.175050   1.433511   2.069592
    23  H    4.004351   4.705447   5.510629   1.942558   2.847427
    24  C    2.677933   3.807758   3.434855   5.251889   5.701661
    25  H    2.800758   3.781745   3.178586   5.449434   5.745481
    26  C    3.186133   5.084998   4.884350   5.262618   5.955090
    27  H    3.236592   5.018788   4.665452   5.404495   5.941892
    28  O    2.236929   3.966986   3.863576   4.505412   5.169742
    29  C    4.168649   5.249049   4.857173   6.660209   7.181957
    30  H    4.501353   5.571319   5.346234   6.767363   7.384794
    31  O    5.076091   5.727947   5.185552   7.633038   8.010810
    32  H    5.871797   6.547142   6.067699   8.359484   8.796701
    33  C    4.871269   6.282527   5.849769   7.323414   7.910910
    34  H    5.075371   6.388949   5.817416   7.614531   8.091733
    35  O    6.229231   7.584125   7.162539   8.627000   9.258855
    36  H    6.806583   8.210200   7.726853   9.222692   9.833676
    37  C    4.543678   6.308111   6.038153   6.687672   7.409929
    38  H    4.931785   6.702734   6.562597   6.855157   7.680774
    39  O    5.604802   7.436057   7.112028   7.628413   8.341209
    40  H    6.362040   8.211267   7.935452   8.291663   9.070318
    41  C    3.583277   5.624554   5.634079   4.917903   5.757296
    42  H    4.557415   6.589440   6.530304   5.815482   6.622187
    43  H    3.970373   5.959927   6.105017   5.010801   5.971659
    44  O    2.994028   4.957951   5.073153   3.809410   4.594908
    45  H    3.354157   5.217394   5.502700   3.520836   4.434102
                   21         22         23         24         25
    21  H    0.000000
    22  O    2.059918   0.000000
    23  H    2.362376   0.982534   0.000000
    24  C    4.948955   6.426231   6.234631   0.000000
    25  H    5.045718   6.736199   6.676958   1.098773   0.000000
    26  C    4.567855   6.196670   5.857764   2.366348   2.617226
    27  H    4.616245   6.464021   6.275461   2.590421   2.357980
    28  O    4.073384   5.519785   5.205444   1.417840   2.097394
    29  C    6.352512   7.737994   7.426080   1.536096   2.179350
    30  H    6.562536   7.707173   7.287105   2.172958   3.086944
    31  O    7.401767   8.798052   8.569909   2.464266   2.715528
    32  H    8.156600   9.453307   9.151250   3.247382   3.646644
    33  C    6.805492   8.353118   7.998437   2.505734   2.779029
    34  H    7.028567   8.742601   8.490732   2.813051   2.639294
    35  O    8.140050   9.586355   9.153144   3.776769   4.126758
    36  H    8.649932  10.201784   9.792392   4.427985   4.586231
    37  C    6.050285   7.561331   7.124286   2.897214   3.265557
    38  H    6.303604   7.574910   7.014108   3.390830   4.020528
    39  O    6.851636   8.455719   8.029278   4.156471   4.272381
    40  H    7.545287   9.021589   8.510633   4.841555   5.092027
    41  C    4.102837   5.568227   5.128495   3.705789   3.999174
    42  H    4.907801   6.403582   5.975927   4.521471   4.678111
    43  H    4.345221   5.449459   4.839230   4.087183   4.622805
    44  O    2.860372   4.466169   4.187734   4.114931   4.242204
    45  H    2.657885   3.879872   3.476917   4.739808   5.007953
                   26         27         28         29         30
    26  C    0.000000
    27  H    1.093565   0.000000
    28  O    1.440190   2.078223   0.000000
    29  C    2.886094   3.280334   2.390718   0.000000
    30  H    3.311556   3.974658   2.651620   1.102265   0.000000
    31  O    4.182871   4.346920   3.671353   1.432185   2.055501
    32  H    4.760385   5.057024   4.296686   1.929739   2.109196
    33  C    2.512754   2.811792   2.846036   1.538229   2.173177
    34  H    2.859492   2.721713   3.346615   2.163412   3.071129
    35  O    3.772357   4.155710   4.121803   2.440746   2.652407
    36  H    4.154098   4.362555   4.747109   3.220276   3.588221
    37  C    1.527708   2.166328   2.429562   2.543047   2.853787
    38  H    2.168196   3.074037   2.745845   2.882313   2.757892
    39  O    2.435852   2.663415   3.687123   3.779678   4.174926
    40  H    3.186325   3.589062   4.332621   4.256519   4.452283
    41  C    1.539655   2.123284   2.426065   4.306685   4.506466
    42  H    2.171619   2.470424   3.376682   4.947250   5.215008
    43  H    2.221229   3.074748   2.717862   4.541691   4.470710
    44  O    2.435099   2.596537   2.871493   5.110364   5.387122
    45  H    3.181020   3.523253   3.407875   5.722101   5.840547
                   31         32         33         34         35
    31  O    0.000000
    32  H    0.987618   0.000000
    33  C    2.407992   2.703368   0.000000
    34  H    2.590088   3.066087   1.102074   0.000000
    35  O    2.861088   2.651199   1.436807   2.036707   0.000000
    36  H    3.510033   3.359157   1.951745   2.099694   0.976492
    37  C    3.778970   4.095537   1.538388   2.180829   2.435742
    38  H    4.181319   4.303899   2.171635   3.078586   2.619952
    39  O    4.814234   5.083806   2.417557   2.611471   2.896102
    40  H    5.273956   5.372854   2.890417   3.265441   2.924901
    41  C    5.666887   6.183016   3.893162   4.288956   4.965703
    42  H    6.256800   6.735552   4.208883   4.478471   5.141221
    43  H    5.965487   6.357490   4.257953   4.877357   5.153743
    44  O    6.389206   7.038023   4.947833   5.193710   6.171363
    45  H    7.047279   7.644128   5.655891   6.021000   6.810369
                   36         37         38         39         40
    36  H    0.000000
    37  C    2.783005   0.000000
    38  H    3.132942   1.101245   0.000000
    39  O    2.759004   1.425673   2.036718   0.000000
    40  H    2.747056   1.964668   2.076307   0.985272   0.000000
    41  C    5.292003   2.540960   2.744120   2.993354   3.538331
    42  H    5.279031   2.760866   3.033373   2.646085   3.128272
    43  H    5.592488   2.874911   2.633725   3.465156   3.756166
    44  O    6.509477   3.790946   4.093702   4.257348   4.900746
    45  H    7.209993   4.436315   4.527396   4.946236   5.467039
                   41         42         43         44         45
    41  C    0.000000
    42  H    1.101106   0.000000
    43  H    1.101103   1.784965   0.000000
    44  O    1.430413   2.052909   2.052118   0.000000
    45  H    1.967181   2.575867   2.080579   0.985157   0.000000
 Stoichiometry    C12H22O11
 Framework group  C1[X(C12H22O11)]
 Deg. of freedom   129
 Full point group                 C1      NOp   1
 Largest Abelian subgroup         C1      NOp   1
 Largest concise Abelian subgroup C1      NOp   1
                         Standard orientation:                         
 ---------------------------------------------------------------------
 Center     Atomic      Atomic             Coordinates (Angstroms)
 Number     Number       Type             X           Y           Z
 ---------------------------------------------------------------------
      1          6           0        2.236358   -0.897792    1.622702
      2          1           0        3.034421   -1.659814    1.576531
      3          8           0        2.083577   -0.553099    2.999433
      4          1           0        1.110187   -0.452932    3.135399
      5          6           0        3.031459   -0.054906   -0.423124
      6          1           0        3.805214   -0.833907   -0.378050
      7          8           0        2.638021    0.281281    0.923559
      8          6           0        0.910204   -1.412801    1.027131
      9          1           0        0.098424   -0.744673    1.314892
     10          8           0        0.578902   -2.694824    1.615708
     11          1           0       -0.336719   -2.913038    1.318279
     12          6           0        1.018604   -1.625725   -0.501501
     13          1           0        1.541269   -2.578515   -0.650243
     14          8           0       -0.275753   -1.814884   -1.137070
     15          6           0        1.810964   -0.524412   -1.229088
     16          1           0        1.186554    0.355852   -1.457092
     17          8           0        2.239766   -1.050144   -2.498829
     18          1           0        1.454760   -1.120731   -3.076218
     19          6           0        3.673986    1.179998   -1.051571
     20          1           0        4.143018    0.909514   -2.005620
     21          1           0        2.930302    1.976499   -1.222030
     22          8           0        4.677438    1.696098   -0.167444
     23          1           0        4.254485    1.730027    0.718746
     24          6           0       -1.234935   -0.685574   -0.984709
     25          1           0       -1.453280   -0.391170   -2.020544
     26          6           0       -1.516734    1.552134   -0.268569
     27          1           0       -1.683253    1.845073   -1.308926
     28          8           0       -0.682520    0.378842   -0.228319
     29          6           0       -2.514992   -1.155806   -0.277654
     30          1           0       -2.272018   -1.511318    0.737020
     31          8           0       -3.153621   -2.231906   -0.974299
     32          1           0       -3.703005   -2.676487   -0.284434
     33          6           0       -3.505358    0.018052   -0.191742
     34          1           0       -3.881202    0.243351   -1.202954
     35          8           0       -4.656014   -0.359060    0.581686
     36          1           0       -5.401646    0.173059    0.243428
     37          6           0       -2.848518    1.265942    0.423051
     38          1           0       -2.687901    1.105895    1.500700
     39          8           0       -3.738078    2.373357    0.301164
     40          1           0       -4.212152    2.473730    1.159034
     41          6           0       -0.766573    2.722345    0.393550
     42          1           0       -1.405266    3.619267    0.387527
     43          1           0       -0.466274    2.518806    1.433176
     44          8           0        0.418360    3.028266   -0.347010
     45          1           0        1.136655    3.211350    0.301887
 ---------------------------------------------------------------------
 Rotational constants (GHZ):           0.3676386           0.1811806           0.1589113
 Leave Link  202 at Fri Apr 14 15:52:40 2023, MaxMem=   524288000 cpu:               1.2 elap:               0.4
 (Enter /dragofs/sw/campus/0.2/software/gaussian/16.gaussian/gaussian/g16_legacy/l301.exe)
 Standard basis: 6-311G(d,p) (5D, 7F)
 Ernie: Thresh=  0.10000D-02 Tol=  0.10000D-05 Strict=F.
 There are   569 symmetry adapted cartesian basis functions of A   symmetry.
 There are   546 symmetry adapted basis functions of A   symmetry.
   546 basis functions,   912 primitive gaussians,   569 cartesian basis functions
    91 alpha electrons       91 beta electrons
       nuclear repulsion energy      2371.0655550333 Hartrees.
 IExCor= 4336 DFT=T Ex+Corr=M062X ExCW=0 ScaHFX=  0.540000
 ScaDFX=  1.000000  1.000000  1.000000  1.000000 ScalE2=  1.000000  1.000000
 IRadAn=      5 IRanWt=     -1 IRanGd=            0 ICorTp=0 IEmpDi=  4
 NAtoms=   45 NActive=   45 NUniq=   45 SFac= 1.00D+00 NAtFMM=   60 NAOKFM=F Big=F
 Integral buffers will be    131072 words long.
 Raffenetti 2 integral format.
 Two-electron integral symmetry is turned on.
 Leave Link  301 at Fri Apr 14 15:52:40 2023, MaxMem=   524288000 cpu:               0.6 elap:               0.2
 (Enter /dragofs/sw/campus/0.2/software/gaussian/16.gaussian/gaussian/g16_legacy/l302.exe)
 NPDir=0 NMtPBC=     1 NCelOv=     1 NCel=       1 NClECP=     1 NCelD=      1
         NCelK=      1 NCelE2=     1 NClLst=     1 CellRange=     0.0.
 One-electron integrals computed using PRISM.
 One-electron integral symmetry used in STVInt
 NBasis=   546 RedAO= T EigKep=  8.13D-04  NBF=   546
 NBsUse=   546 1.00D-06 EigRej= -1.00D+00 NBFU=   546
 Precomputing XC quadrature grid using
 IXCGrd= 4 IRadAn=           5 IRanWt=          -1 IRanGd=           0 AccXCQ= 0.00D+00.
 Generated NRdTot=       0 NPtTot=           0 NUsed=           0 NTot=          32
 NSgBfM=   559   559   559   559   559 MxSgAt=    45 MxSgA2=    45.
 Leave Link  302 at Fri Apr 14 15:52:47 2023, MaxMem=   524288000 cpu:              33.6 elap:               6.9
 (Enter /dragofs/sw/campus/0.2/software/gaussian/16.gaussian/gaussian/g16_legacy/l303.exe)
 DipDrv:  MaxL=1.
 Leave Link  303 at Fri Apr 14 15:52:48 2023, MaxMem=   524288000 cpu:               2.0 elap:               0.6
 (Enter /dragofs/sw/campus/0.2/software/gaussian/16.gaussian/gaussian/g16_legacy/l401.exe)
 ExpMin= 1.03D-01 ExpMax= 8.59D+03 ExpMxC= 1.30D+03 IAcc=3 IRadAn=         5 AccDes= 0.00D+00
 Harris functional with IExCor= 1009 and IRadAn=       5 diagonalized for initial guess.
 HarFok:  IExCor= 1009 AccDes= 0.00D+00 IRadAn=         5 IDoV= 1 UseB2=F ITyADJ=14
 ICtDFT=  3500011 ScaDFX=  1.000000  1.000000  1.000000  1.000000
 FoFCou: FMM=F IPFlag=           0 FMFlag=      100000 FMFlg1=           0
         NFxFlg=           0 DoJE=T BraDBF=F KetDBF=T FulRan=T
         wScrn=  0.000000 ICntrl=       500 IOpCl=  0 I1Cent=   200000004 NGrid=           0
         NMat0=    1 NMatS0=      1 NMatT0=    0 NMatD0=    1 NMtDS0=    0 NMtDT0=    0
 Petite list used in FoFCou.
 Harris En= -1297.07706128600    
 JPrj=0 DoOrth=F DoCkMO=F.
 Leave Link  401 at Fri Apr 14 15:52:58 2023, MaxMem=   524288000 cpu:              49.9 elap:               9.5
 (Enter /dragofs/sw/campus/0.2/software/gaussian/16.gaussian/gaussian/g16_legacy/l502.exe)
 Integral symmetry usage will be decided dynamically.
 Closed shell SCF:
 Using DIIS extrapolation, IDIIS=  1040.
 NGot=   524288000 LenX=   523630196 LenY=   523305866
 Requested convergence on RMS density matrix=1.00D-08 within 128 cycles.
 Requested convergence on MAX density matrix=1.00D-06.
 Requested convergence on             energy=1.00D-06.
 No special actions if energy rises.
 Fock matrices will be formed incrementally for  20 cycles.
 Integral accuracy reduced to 1.0D-05 until final iterations.

 Cycle   1  Pass 0  IDiag  1:
 FoFJK:  IHMeth= 1 ICntrl=       0 DoSepK=F KAlg= 0 I1Cent=           0 FoldK=F
 IRaf= 770000000 NMat=       1 IRICut=       1 DoRegI=T DoRafI=F ISym2E= 0 IDoP0=0 IntGTp=1.
 FoFCou: FMM=F IPFlag=           0 FMFlag=      100000 FMFlg1=           0
         NFxFlg=           0 DoJE=F BraDBF=F KetDBF=F FulRan=T
         wScrn=  0.000000 ICntrl=         0 IOpCl=  0 I1Cent=           0 NGrid=           0
         NMat0=    1 NMatS0=      1 NMatT0=    0 NMatD0=    1 NMtDS0=    0 NMtDT0=    0
 Symmetry not used in FoFCou.
 E= -1297.27575296908    
 DIIS: error= 2.12D-02 at cycle   1 NSaved=   1.
 NSaved= 1 IEnMin= 1 EnMin= -1297.27575296908     IErMin= 1 ErrMin= 2.12D-02
 ErrMax= 2.12D-02  0.00D+00 EMaxC= 1.00D-01 BMatC= 8.46D-01 BMatP= 8.46D-01
 IDIUse=3 WtCom= 7.88D-01 WtEn= 2.12D-01
 Coeff-Com:  0.100D+01
 Coeff-En:   0.100D+01
 Coeff:      0.100D+01
 Gap=     0.395 Goal=   None    Shift=    0.000
 GapD=    0.395 DampG=1.000 DampE=0.500 DampFc=0.5000 IDamp=-1.
 Damping current iteration by 5.00D-01
 RMSDP=2.70D-03 MaxDP=2.11D-01              OVMax= 1.14D-01

 Cycle   2  Pass 0  IDiag  1:
 RMSU=  1.34D-03    CP:  1.02D+00
 E= -1297.51370423773     Delta-E=       -0.237951268648 Rises=F Damp=T
 DIIS: error= 5.29D-03 at cycle   2 NSaved=   2.
 NSaved= 2 IEnMin= 2 EnMin= -1297.51370423773     IErMin= 2 ErrMin= 5.29D-03
 ErrMax= 5.29D-03  0.00D+00 EMaxC= 1.00D-01 BMatC= 7.01D-02 BMatP= 8.46D-01
 IDIUse=3 WtCom= 9.47D-01 WtEn= 5.29D-02
 Coeff-Com: -0.712D-01 0.107D+01
 Coeff-En:   0.000D+00 0.100D+01
 Coeff:     -0.674D-01 0.107D+01
 Gap=     0.370 Goal=   None    Shift=    0.000
 RMSDP=4.67D-04 MaxDP=1.61D-02 DE=-2.38D-01 OVMax= 5.86D-02

 Cycle   3  Pass 0  IDiag  1:
 RMSU=  4.53D-04    CP:  1.02D+00  9.16D-01
 E= -1297.75001504029     Delta-E=       -0.236310802565 Rises=F Damp=F
 DIIS: error= 4.64D-03 at cycle   3 NSaved=   3.
 NSaved= 3 IEnMin= 3 EnMin= -1297.75001504029     IErMin= 3 ErrMin= 4.64D-03
 ErrMax= 4.64D-03  0.00D+00 EMaxC= 1.00D-01 BMatC= 2.22D-02 BMatP= 7.01D-02
 IDIUse=3 WtCom= 9.54D-01 WtEn= 4.64D-02
 Coeff-Com: -0.108D+00 0.369D+00 0.739D+00
 Coeff-En:   0.000D+00 0.000D+00 0.100D+01
 Coeff:     -0.103D+00 0.352D+00 0.751D+00
 Gap=     0.358 Goal=   None    Shift=    0.000
 RMSDP=2.84D-04 MaxDP=1.32D-02 DE=-2.36D-01 OVMax= 1.44D-02

 Cycle   4  Pass 0  IDiag  1:
 RMSU=  2.04D-04    CP:  1.02D+00  1.02D+00  6.95D-01
 E= -1297.76277639845     Delta-E=       -0.012761358154 Rises=F Damp=F
 DIIS: error= 1.45D-03 at cycle   4 NSaved=   4.
 NSaved= 4 IEnMin= 4 EnMin= -1297.76277639845     IErMin= 4 ErrMin= 1.45D-03
 ErrMax= 1.45D-03  0.00D+00 EMaxC= 1.00D-01 BMatC= 3.58D-03 BMatP= 2.22D-02
 IDIUse=3 WtCom= 9.86D-01 WtEn= 1.45D-02
 Coeff-Com: -0.406D-01 0.976D-01 0.367D+00 0.576D+00
 Coeff-En:   0.000D+00 0.000D+00 0.115D+00 0.885D+00
 Coeff:     -0.400D-01 0.962D-01 0.363D+00 0.580D+00
 Gap=     0.350 Goal=   None    Shift=    0.000
 RMSDP=1.14D-04 MaxDP=5.34D-03 DE=-1.28D-02 OVMax= 5.92D-03

 Cycle   5  Pass 0  IDiag  1:
 RMSU=  4.18D-05    CP:  1.02D+00  1.00D+00  7.99D-01  5.60D-01
 E= -1297.76581513963     Delta-E=       -0.003038741183 Rises=F Damp=F
 DIIS: error= 2.74D-04 at cycle   5 NSaved=   5.
 NSaved= 5 IEnMin= 5 EnMin= -1297.76581513963     IErMin= 5 ErrMin= 2.74D-04
 ErrMax= 2.74D-04  0.00D+00 EMaxC= 1.00D-01 BMatC= 8.78D-05 BMatP= 3.58D-03
 IDIUse=3 WtCom= 9.97D-01 WtEn= 2.74D-03
 Coeff-Com: -0.107D-01 0.218D-01 0.109D+00 0.222D+00 0.659D+00
 Coeff-En:   0.000D+00 0.000D+00 0.000D+00 0.000D+00 0.100D+01
 Coeff:     -0.107D-01 0.217D-01 0.108D+00 0.221D+00 0.660D+00
 Gap=     0.349 Goal=   None    Shift=    0.000
 RMSDP=2.11D-05 MaxDP=1.24D-03 DE=-3.04D-03 OVMax= 1.15D-03

 Cycle   6  Pass 0  IDiag  1:
 RMSU=  1.42D-05    CP:  1.02D+00  1.00D+00  8.04D-01  6.05D-01  7.14D-01
 E= -1297.76586769190     Delta-E=       -0.000052552268 Rises=F Damp=F
 DIIS: error= 1.08D-04 at cycle   6 NSaved=   6.
 NSaved= 6 IEnMin= 6 EnMin= -1297.76586769190     IErMin= 6 ErrMin= 1.08D-04
 ErrMax= 1.08D-04  0.00D+00 EMaxC= 1.00D-01 BMatC= 1.71D-05 BMatP= 8.78D-05
 IDIUse=3 WtCom= 9.99D-01 WtEn= 1.08D-03
 Coeff-Com: -0.124D-02 0.923D-03 0.179D-01 0.552D-01 0.340D+00 0.587D+00
 Coeff-En:   0.000D+00 0.000D+00 0.000D+00 0.000D+00 0.813D-01 0.919D+00
 Coeff:     -0.124D-02 0.922D-03 0.179D-01 0.551D-01 0.340D+00 0.587D+00
 Gap=     0.349 Goal=   None    Shift=    0.000
 RMSDP=6.53D-06 MaxDP=4.69D-04 DE=-5.26D-05 OVMax= 4.23D-04

 Initial convergence to 1.0D-05 achieved.  Increase integral accuracy.
 Cycle   7  Pass 1  IDiag  1:
 E= -1297.76594647968     Delta-E=       -0.000078787779 Rises=F Damp=F
 DIIS: error= 2.70D-05 at cycle   1 NSaved=   1.
 NSaved= 1 IEnMin= 1 EnMin= -1297.76594647968     IErMin= 1 ErrMin= 2.70D-05
 ErrMax= 2.70D-05  0.00D+00 EMaxC= 1.00D-01 BMatC= 9.57D-07 BMatP= 9.57D-07
 IDIUse=1 WtCom= 1.00D+00 WtEn= 0.00D+00
 Coeff-Com:  0.100D+01
 Coeff:      0.100D+01
 Gap=     0.349 Goal=   None    Shift=    0.000
 RMSDP=6.53D-06 MaxDP=4.69D-04 DE=-7.88D-05 OVMax= 1.37D-04

 Cycle   8  Pass 1  IDiag  1:
 RMSU=  9.54D-06    CP:  1.00D+00
 E= -1297.76594719016     Delta-E=       -0.000000710485 Rises=F Damp=F
 DIIS: error= 1.77D-05 at cycle   2 NSaved=   2.
 NSaved= 2 IEnMin= 2 EnMin= -1297.76594719016     IErMin= 2 ErrMin= 1.77D-05
 ErrMax= 1.77D-05  0.00D+00 EMaxC= 1.00D-01 BMatC= 3.43D-07 BMatP= 9.57D-07
 IDIUse=1 WtCom= 1.00D+00 WtEn= 0.00D+00
 Coeff-Com:  0.325D+00 0.675D+00
 Coeff:      0.325D+00 0.675D+00
 Gap=     0.349 Goal=   None    Shift=    0.000
 RMSDP=1.20D-06 MaxDP=8.62D-05 DE=-7.10D-07 OVMax= 8.11D-05

 Cycle   9  Pass 1  IDiag  1:
 RMSU=  1.19D-06    CP:  1.00D+00  1.01D+00
 E= -1297.76594736686     Delta-E=       -0.000000176700 Rises=F Damp=F
 DIIS: error= 9.98D-06 at cycle   3 NSaved=   3.
 NSaved= 3 IEnMin= 3 EnMin= -1297.76594736686     IErMin= 3 ErrMin= 9.98D-06
 ErrMax= 9.98D-06  0.00D+00 EMaxC= 1.00D-01 BMatC= 1.03D-07 BMatP= 3.43D-07
 IDIUse=1 WtCom= 1.00D+00 WtEn= 0.00D+00
 Coeff-Com: -0.233D-01 0.347D+00 0.677D+00
 Coeff:     -0.233D-01 0.347D+00 0.677D+00
 Gap=     0.349 Goal=   None    Shift=    0.000
 RMSDP=5.46D-07 MaxDP=3.37D-05 DE=-1.77D-07 OVMax= 3.36D-05

 Cycle  10  Pass 1  IDiag  1:
 RMSU=  3.29D-07    CP:  1.00D+00  1.04D+00  6.91D-01
 E= -1297.76594743757     Delta-E=       -0.000000070711 Rises=F Damp=F
 DIIS: error= 1.28D-06 at cycle   4 NSaved=   4.
 NSaved= 4 IEnMin= 4 EnMin= -1297.76594743757     IErMin= 4 ErrMin= 1.28D-06
 ErrMax= 1.28D-06  0.00D+00 EMaxC= 1.00D-01 BMatC= 3.03D-09 BMatP= 1.03D-07
 IDIUse=1 WtCom= 1.00D+00 WtEn= 0.00D+00
 Coeff-Com: -0.186D-01 0.126D+00 0.289D+00 0.604D+00
 Coeff:     -0.186D-01 0.126D+00 0.289D+00 0.604D+00
 Gap=     0.349 Goal=   None    Shift=    0.000
 RMSDP=1.22D-07 MaxDP=5.55D-06 DE=-7.07D-08 OVMax= 6.29D-06

 Cycle  11  Pass 1  IDiag  1:
 RMSU=  1.07D-07    CP:  1.00D+00  1.04D+00  7.19D-01  8.62D-01
 E= -1297.76594743999     Delta-E=       -0.000000002417 Rises=F Damp=F
 DIIS: error= 3.74D-07 at cycle   5 NSaved=   5.
 NSaved= 5 IEnMin= 5 EnMin= -1297.76594743999     IErMin= 5 ErrMin= 3.74D-07
 ErrMax= 3.74D-07  0.00D+00 EMaxC= 1.00D-01 BMatC= 2.42D-10 BMatP= 3.03D-09
 IDIUse=1 WtCom= 1.00D+00 WtEn= 0.00D+00
 Coeff-Com: -0.301D-02-0.599D-02 0.410D-02 0.202D+00 0.803D+00
 Coeff:     -0.301D-02-0.599D-02 0.410D-02 0.202D+00 0.803D+00
 Gap=     0.349 Goal=   None    Shift=    0.000
 RMSDP=3.66D-08 MaxDP=1.35D-06 DE=-2.42D-09 OVMax= 2.27D-06

 Cycle  12  Pass 1  IDiag  1:
 RMSU=  2.38D-08    CP:  1.00D+00  1.04D+00  7.24D-01  9.44D-01  9.92D-01
 E= -1297.76594744021     Delta-E=       -0.000000000221 Rises=F Damp=F
 DIIS: error= 1.52D-07 at cycle   6 NSaved=   6.
 NSaved= 6 IEnMin= 6 EnMin= -1297.76594744021     IErMin= 6 ErrMin= 1.52D-07
 ErrMax= 1.52D-07  0.00D+00 EMaxC= 1.00D-01 BMatC= 3.96D-11 BMatP= 2.42D-10
 IDIUse=1 WtCom= 1.00D+00 WtEn= 0.00D+00
 Coeff-Com:  0.704D-03-0.165D-01-0.300D-01 0.276D-01 0.355D+00 0.664D+00
 Coeff:      0.704D-03-0.165D-01-0.300D-01 0.276D-01 0.355D+00 0.664D+00
 Gap=     0.349 Goal=   None    Shift=    0.000
 RMSDP=1.51D-08 MaxDP=1.04D-06 DE=-2.21D-10 OVMax= 8.70D-07

 Cycle  13  Pass 1  IDiag  1:
 RMSU=  1.07D-08    CP:  1.00D+00  1.04D+00  7.24D-01  9.60D-01  1.07D+00
                    CP:  9.47D-01
 E= -1297.76594744018     Delta-E=        0.000000000037 Rises=F Damp=F
 DIIS: error= 4.85D-08 at cycle   7 NSaved=   7.
 NSaved= 7 IEnMin= 6 EnMin= -1297.76594744021     IErMin= 7 ErrMin= 4.85D-08
 ErrMax= 4.85D-08  0.00D+00 EMaxC= 1.00D-01 BMatC= 3.36D-12 BMatP= 3.96D-11
 IDIUse=1 WtCom= 1.00D+00 WtEn= 0.00D+00
 Coeff-Com:  0.593D-03-0.631D-02-0.132D-01-0.842D-02 0.680D-01 0.273D+00
 Coeff-Com:  0.686D+00
 Coeff:      0.593D-03-0.631D-02-0.132D-01-0.842D-02 0.680D-01 0.273D+00
 Coeff:      0.686D+00
 Gap=     0.349 Goal=   None    Shift=    0.000
 RMSDP=3.92D-09 MaxDP=2.51D-07 DE= 3.73D-11 OVMax= 2.43D-07

 SCF Done:  E(RM062X) =  -1297.76594744     A.U. after   13 cycles
            NFock= 13  Conv=0.39D-08     -V/T= 2.0038
 KE= 1.292873047312D+03 PE=-7.789602247357D+03 EE= 2.827897697572D+03
 Leave Link  502 at Fri Apr 14 15:57:28 2023, MaxMem=   524288000 cpu:            1808.6 elap:             270.5
 (Enter /dragofs/sw/campus/0.2/software/gaussian/16.gaussian/gaussian/g16_legacy/l601.exe)
 Copying SCF densities to generalized density rwf, IOpCl= 0 IROHF=0.

 **********************************************************************

            Population analysis using the SCF density.

 **********************************************************************

 Orbital symmetries:
       Occupied  (A) (A) (A) (A) (A) (A) (A) (A) (A) (A) (A) (A)
                 (A) (A) (A) (A) (A) (A) (A) (A) (A) (A) (A) (A)
                 (A) (A) (A) (A) (A) (A) (A) (A) (A) (A) (A) (A)
                 (A) (A) (A) (A) (A) (A) (A) (A) (A) (A) (A) (A)
                 (A) (A) (A) (A) (A) (A) (A) (A) (A) (A) (A) (A)
                 (A) (A) (A) (A) (A) (A) (A) (A) (A) (A) (A) (A)
                 (A) (A) (A) (A) (A) (A) (A) (A) (A) (A) (A) (A)
                 (A) (A) (A) (A) (A) (A) (A)
       Virtual   (A) (A) (A) (A) (A) (A) (A) (A) (A) (A) (A) (A)
                 (A) (A) (A) (A) (A) (A) (A) (A) (A) (A) (A) (A)
                 (A) (A) (A) (A) (A) (A) (A) (A) (A) (A) (A) (A)
                 (A) (A) (A) (A) (A) (A) (A) (A) (A) (A) (A) (A)
                 (A) (A) (A) (A) (A) (A) (A) (A) (A) (A) (A) (A)
                 (A) (A) (A) (A) (A) (A) (A) (A) (A) (A) (A) (A)
                 (A) (A) (A) (A) (A) (A) (A) (A) (A) (A) (A) (A)
                 (A) (A) (A) (A) (A) (A) (A) (A) (A) (A) (A) (A)
                 (A) (A) (A) (A) (A) (A) (A) (A) (A) (A) (A) (A)
                 (A) (A) (A) (A) (A) (A) (A) (A) (A) (A) (A) (A)
                 (A) (A) (A) (A) (A) (A) (A) (A) (A) (A) (A) (A)
                 (A) (A) (A) (A) (A) (A) (A) (A) (A) (A) (A) (A)
                 (A) (A) (A) (A) (A) (A) (A) (A) (A) (A) (A) (A)
                 (A) (A) (A) (A) (A) (A) (A) (A) (A) (A) (A) (A)
                 (A) (A) (A) (A) (A) (A) (A) (A) (A) (A) (A) (A)
                 (A) (A) (A) (A) (A) (A) (A) (A) (A) (A) (A) (A)
                 (A) (A) (A) (A) (A) (A) (A) (A) (A) (A) (A) (A)
                 (A) (A) (A) (A) (A) (A) (A) (A) (A) (A) (A) (A)
                 (A) (A) (A) (A) (A) (A) (A) (A) (A) (A) (A) (A)
                 (A) (A) (A) (A) (A) (A) (A) (A) (A) (A) (A) (A)
                 (A) (A) (A) (A) (A) (A) (A) (A) (A) (A) (A) (A)
                 (A) (A) (A) (A) (A) (A) (A) (A) (A) (A) (A) (A)
                 (A) (A) (A) (A) (A) (A) (A) (A) (A) (A) (A) (A)
                 (A) (A) (A) (A) (A) (A) (A) (A) (A) (A) (A) (A)
                 (A) (A) (A) (A) (A) (A) (A) (A) (A) (A) (A) (A)
                 (A) (A) (A) (A) (A) (A) (A) (A) (A) (A) (A) (A)
                 (A) (A) (A) (A) (A) (A) (A) (A) (A) (A) (A) (A)
                 (A) (A) (A) (A) (A) (A) (A) (A) (A) (A) (A) (A)
                 (A) (A) (A) (A) (A) (A) (A) (A) (A) (A) (A) (A)
                 (A) (A) (A) (A) (A) (A) (A) (A) (A) (A) (A) (A)
                 (A) (A) (A) (A) (A) (A) (A) (A) (A) (A) (A) (A)
                 (A) (A) (A) (A) (A) (A) (A) (A) (A) (A) (A) (A)
                 (A) (A) (A) (A) (A) (A) (A) (A) (A) (A) (A) (A)
                 (A) (A) (A) (A) (A) (A) (A) (A) (A) (A) (A) (A)
                 (A) (A) (A) (A) (A) (A) (A) (A) (A) (A) (A) (A)
                 (A) (A) (A) (A) (A) (A) (A) (A) (A) (A) (A) (A)
                 (A) (A) (A) (A) (A) (A) (A) (A) (A) (A) (A) (A)
                 (A) (A) (A) (A) (A) (A) (A) (A) (A) (A) (A)
 The electronic state is 1-A.
 Alpha  occ. eigenvalues --  -19.66952 -19.65296 -19.64968 -19.64722 -19.64127
 Alpha  occ. eigenvalues --  -19.63650 -19.62988 -19.62963 -19.62427 -19.61653
 Alpha  occ. eigenvalues --  -19.59770 -10.67684 -10.65275 -10.62703 -10.62390
 Alpha  occ. eigenvalues --  -10.62274 -10.61867 -10.60913 -10.60401 -10.60159
 Alpha  occ. eigenvalues --  -10.59641 -10.59275 -10.57749  -1.22255  -1.19650
 Alpha  occ. eigenvalues --   -1.18456  -1.16808  -1.15616  -1.14906  -1.14718
 Alpha  occ. eigenvalues --   -1.14406  -1.12954  -1.12836  -1.11337  -0.91133
 Alpha  occ. eigenvalues --   -0.90218  -0.87727  -0.86306  -0.80347  -0.77571
 Alpha  occ. eigenvalues --   -0.75354  -0.72859  -0.72286  -0.70274  -0.69744
 Alpha  occ. eigenvalues --   -0.67801  -0.64136  -0.63582  -0.61814  -0.61410
 Alpha  occ. eigenvalues --   -0.60703  -0.60144  -0.59639  -0.58681  -0.57454
 Alpha  occ. eigenvalues --   -0.56721  -0.55737  -0.55397  -0.55083  -0.54042
 Alpha  occ. eigenvalues --   -0.53487  -0.52816  -0.52188  -0.51121  -0.50647
 Alpha  occ. eigenvalues --   -0.49494  -0.48817  -0.48230  -0.46238  -0.45895
 Alpha  occ. eigenvalues --   -0.45804  -0.44997  -0.44334  -0.43557  -0.43238
 Alpha  occ. eigenvalues --   -0.42469  -0.42096  -0.41772  -0.41215  -0.40390
 Alpha  occ. eigenvalues --   -0.40002  -0.39607  -0.38322  -0.37761  -0.37098
 Alpha  occ. eigenvalues --   -0.36711  -0.35166  -0.34718  -0.34110  -0.33690
 Alpha  occ. eigenvalues --   -0.32357
 Alpha virt. eigenvalues --    0.02585   0.03241   0.04035   0.05283   0.05458
 Alpha virt. eigenvalues --    0.07074   0.08176   0.09067   0.09636   0.09931
 Alpha virt. eigenvalues --    0.10805   0.11654   0.12488   0.13082   0.13542
 Alpha virt. eigenvalues --    0.14187   0.14484   0.14854   0.16044   0.16551
 Alpha virt. eigenvalues --    0.17106   0.17312   0.17956   0.18605   0.19308
 Alpha virt. eigenvalues --    0.19605   0.20569   0.22197   0.22550   0.22904
 Alpha virt. eigenvalues --    0.23475   0.23742   0.24870   0.25649   0.26477
 Alpha virt. eigenvalues --    0.27252   0.28209   0.29450   0.29981   0.30394
 Alpha virt. eigenvalues --    0.31286   0.32399   0.33431   0.34043   0.34874
 Alpha virt. eigenvalues --    0.35531   0.37868   0.39219   0.40117   0.40247
 Alpha virt. eigenvalues --    0.41327   0.41358   0.43117   0.43665   0.44277
 Alpha virt. eigenvalues --    0.44743   0.45827   0.46232   0.46641   0.47024
 Alpha virt. eigenvalues --    0.47783   0.48104   0.49209   0.49718   0.50286
 Alpha virt. eigenvalues --    0.50991   0.51676   0.52309   0.52630   0.53094
 Alpha virt. eigenvalues --    0.54531   0.54701   0.55440   0.55787   0.56366
 Alpha virt. eigenvalues --    0.56953   0.57113   0.57730   0.58232   0.58523
 Alpha virt. eigenvalues --    0.59684   0.60220   0.60838   0.61458   0.62171
 Alpha virt. eigenvalues --    0.62750   0.62980   0.63176   0.63842   0.64205
 Alpha virt. eigenvalues --    0.64617   0.66168   0.66248   0.66452   0.67441
 Alpha virt. eigenvalues --    0.67578   0.68402   0.69558   0.70719   0.71547
 Alpha virt. eigenvalues --    0.73436   0.74247   0.75217   0.76611   0.80089
 Alpha virt. eigenvalues --    0.80788   0.83523   0.84411   0.85834   0.86240
 Alpha virt. eigenvalues --    0.87664   0.88021   0.89191   0.90178   0.90556
 Alpha virt. eigenvalues --    0.92182   0.92605   0.93188   0.93827   0.94529
 Alpha virt. eigenvalues --    0.95834   0.96284   0.96761   0.97687   0.98275
 Alpha virt. eigenvalues --    0.99431   1.00544   1.00626   1.01594   1.01957
 Alpha virt. eigenvalues --    1.02822   1.03313   1.04211   1.04608   1.06558
 Alpha virt. eigenvalues --    1.07818   1.08737   1.09797   1.10601   1.11555
 Alpha virt. eigenvalues --    1.12205   1.13825   1.14446   1.15413   1.16818
 Alpha virt. eigenvalues --    1.17836   1.19137   1.19817   1.20518   1.22221
 Alpha virt. eigenvalues --    1.23899   1.26434   1.26969   1.28397   1.29231
 Alpha virt. eigenvalues --    1.31603   1.31937   1.34139   1.35108   1.36177
 Alpha virt. eigenvalues --    1.37025   1.38354   1.39073   1.39679   1.40111
 Alpha virt. eigenvalues --    1.41337   1.42023   1.42952   1.43566   1.43799
 Alpha virt. eigenvalues --    1.45088   1.46000   1.46750   1.47574   1.47759
 Alpha virt. eigenvalues --    1.48248   1.49814   1.51092   1.51815   1.52517
 Alpha virt. eigenvalues --    1.52816   1.53599   1.54607   1.55178   1.55335
 Alpha virt. eigenvalues --    1.55875   1.56315   1.57232   1.58080   1.58443
 Alpha virt. eigenvalues --    1.58792   1.59521   1.60160   1.61042   1.61605
 Alpha virt. eigenvalues --    1.62142   1.62793   1.63056   1.63974   1.64769
 Alpha virt. eigenvalues --    1.65606   1.66668   1.67046   1.68059   1.68963
 Alpha virt. eigenvalues --    1.69188   1.70351   1.71013   1.72298   1.72319
 Alpha virt. eigenvalues --    1.73262   1.74986   1.75888   1.76564   1.77156
 Alpha virt. eigenvalues --    1.78092   1.78908   1.80523   1.80771   1.81354
 Alpha virt. eigenvalues --    1.82601   1.83196   1.84814   1.85574   1.86450
 Alpha virt. eigenvalues --    1.87457   1.87932   1.90465   1.91883   1.92758
 Alpha virt. eigenvalues --    1.93908   1.94471   1.94602   1.95764   1.96448
 Alpha virt. eigenvalues --    1.97702   1.98624   1.99755   2.00339   2.01724
 Alpha virt. eigenvalues --    2.01969   2.03467   2.04219   2.04700   2.05316
 Alpha virt. eigenvalues --    2.08034   2.08547   2.09179   2.10856   2.11182
 Alpha virt. eigenvalues --    2.12050   2.12395   2.12882   2.13535   2.14512
 Alpha virt. eigenvalues --    2.15221   2.16426   2.16786   2.17125   2.18267
 Alpha virt. eigenvalues --    2.19935   2.20923   2.22141   2.23341   2.24403
 Alpha virt. eigenvalues --    2.24813   2.29105   2.30423   2.32080   2.32891
 Alpha virt. eigenvalues --    2.33516   2.34146   2.39323   2.41169   2.42090
 Alpha virt. eigenvalues --    2.45080   2.46047   2.47197   2.48860   2.50486
 Alpha virt. eigenvalues --    2.52459   2.53174   2.53430   2.55441   2.55773
 Alpha virt. eigenvalues --    2.56247   2.57223   2.58308   2.59963   2.60533
 Alpha virt. eigenvalues --    2.61001   2.62045   2.62565   2.64480   2.67315
 Alpha virt. eigenvalues --    2.69200   2.73683   2.75106   2.76298   2.77789
[...]
    31  O   -0.000000  -0.000000   0.000000  -0.000000  -0.000000  -0.044211
    32  H   -0.000000   0.000000  -0.000000  -0.000000  -0.000000   0.011845
    33  C    0.000000  -0.000000   0.000000  -0.000000   0.000000  -0.041002
    34  H    0.000000   0.000000   0.000000  -0.000000  -0.000000  -0.002671
    35  O   -0.000000   0.000000  -0.000000   0.000000   0.000000   0.003635
    36  H   -0.000000  -0.000000  -0.000000  -0.000000  -0.000000  -0.000753
    37  C   -0.000000   0.000000  -0.000002   0.000000  -0.000000  -0.007534
    38  H    0.000000  -0.000000   0.000000  -0.000000  -0.000000   0.000218
    39  O   -0.000000  -0.000000   0.000000  -0.000000  -0.000000  -0.000127
    40  H    0.000000   0.000000  -0.000000   0.000000   0.000000  -0.000016
    41  C    0.000006  -0.000000  -0.000048   0.000000   0.000000   0.006129
    42  H    0.000000   0.000000  -0.000006   0.000000   0.000000  -0.000112
    43  H   -0.000004  -0.000000   0.000011   0.000000   0.000000  -0.000960
    44  O   -0.000080  -0.000007   0.000340   0.000000   0.000000  -0.000821
    45  H    0.000197   0.000023   0.001689  -0.000026  -0.000014   0.000419
              25         26         27         28         29         30
     1  C    0.000113   0.000027   0.000013   0.000485  -0.000003   0.000636
     2  H   -0.000002   0.000002  -0.000001  -0.000068  -0.000010  -0.000082
     3  O   -0.000000  -0.000001  -0.000000   0.000000   0.000000  -0.000009
     4  H   -0.000002   0.000030  -0.000001  -0.000158  -0.000006  -0.000014
     5  C   -0.000111  -0.000014  -0.000019   0.000126   0.000024  -0.000004
     6  H   -0.000012   0.000001   0.000000  -0.000046  -0.000001   0.000001
     7  O   -0.000005   0.000007  -0.000000  -0.000092  -0.000000  -0.000015
     8  C   -0.000082   0.000909  -0.000079  -0.008171   0.001489   0.005060
     9  H    0.000773  -0.006033   0.000352   0.013043  -0.000726  -0.005191
    10  O   -0.000065   0.000044   0.000002  -0.000097  -0.000722   0.009634
    11  H    0.000199   0.000010  -0.000006   0.000071   0.001440  -0.002358
    12  C    0.000809  -0.000530  -0.000020  -0.016508   0.000171  -0.002979
    13  H   -0.000536   0.000051  -0.000002  -0.000327  -0.000496  -0.000494
    14  O   -0.037017   0.003066  -0.000113  -0.038886  -0.045730  -0.002682
    15  C    0.001482  -0.000224  -0.000170  -0.002232  -0.000159  -0.000332
    16  H   -0.002527   0.000826   0.000709   0.006040   0.000406  -0.000089
    17  O    0.000790  -0.000006  -0.000013  -0.000007  -0.000006   0.000002
    18  H   -0.001233  -0.000027  -0.000015   0.000122   0.000228  -0.000011
    19  C    0.000007  -0.000008  -0.000001   0.000009  -0.000000  -0.000000
    20  H   -0.000002  -0.000000  -0.000000  -0.000000  -0.000000  -0.000000
    21  H    0.000007   0.000013   0.000009  -0.000153  -0.000001   0.000000
    22  O   -0.000000   0.000000   0.000000   0.000000  -0.000000   0.000000
    23  H    0.000000  -0.000000   0.000000   0.000001   0.000000   0.000000
    24  C    0.402897  -0.068857  -0.008738   0.205329   0.216207  -0.047425
    25  H    0.556053  -0.005949   0.008513  -0.036147  -0.070425   0.009212
    26  C   -0.005949   5.521665   0.393469   0.190319  -0.001719   0.001335
    27  H    0.008513   0.393469   0.536772  -0.037087   0.000587   0.000297
    28  O   -0.036147   0.190319  -0.037087   8.246298  -0.036560   0.002459
    29  C   -0.070425  -0.001719   0.000587  -0.036560   5.263950   0.359121
    30  H    0.009212   0.001335   0.000297   0.002459   0.359121   0.591008
    31  O    0.008087  -0.000369  -0.000110   0.001464   0.244839  -0.035014
    32  H   -0.000988  -0.000392  -0.000034  -0.000276  -0.050416  -0.004157
    33  C   -0.004152  -0.055584  -0.008987  -0.005753   0.228653  -0.044969
    34  H    0.007425  -0.001012   0.004647   0.000374  -0.054085   0.011335
    35  O   -0.000303   0.005686  -0.000017  -0.000065  -0.048758   0.003778
    36  H   -0.000033   0.001823   0.000013  -0.000048   0.011884  -0.000868
    37  C   -0.000369   0.099779  -0.056834  -0.034418  -0.064521  -0.001084
    38  H    0.000191  -0.048229   0.009328   0.002560  -0.000447   0.006765
    39  O   -0.000000  -0.055396   0.006986   0.001978   0.004110  -0.000274
    40  H    0.000018  -0.003529  -0.001482  -0.000103  -0.000428  -0.000014
    41  C    0.000688   0.225212  -0.027191  -0.038182  -0.002344  -0.000008
    42  H    0.000079  -0.049059  -0.005771   0.005035   0.000072   0.000022
    43  H   -0.000033  -0.074972   0.010200  -0.002932  -0.000148  -0.000085
    44  O   -0.000123  -0.043406   0.005609  -0.003222  -0.000010   0.000001
    45  H   -0.000110  -0.002314  -0.002708   0.006186   0.000062  -0.000039
              31         32         33         34         35         36
     1  C   -0.000000  -0.000001   0.000007   0.000000  -0.000000   0.000000
     2  H   -0.000000   0.000000  -0.000000   0.000000  -0.000000  -0.000000
     3  O    0.000000   0.000000  -0.000000  -0.000000   0.000000   0.000000
     4  H    0.000000   0.000000   0.000001   0.000000   0.000000   0.000000
     5  C    0.000000   0.000000  -0.000000  -0.000000   0.000000  -0.000000
     6  H    0.000000  -0.000000   0.000000  -0.000000   0.000000  -0.000000
     7  O    0.000000   0.000000   0.000000  -0.000000   0.000000   0.000000
     8  C   -0.000137  -0.000008  -0.000106   0.000005  -0.000001  -0.000000
     9  H    0.000010  -0.000001  -0.000931   0.000007  -0.000011   0.000000
    10  O   -0.000009  -0.000006   0.000112  -0.000004   0.000000   0.000000
    11  H    0.001828  -0.000107   0.000676  -0.000035  -0.000040   0.000006
    12  C    0.000232   0.000026   0.000047  -0.000030   0.000000  -0.000000
    13  H    0.000090  -0.000003  -0.000004   0.000002  -0.000000   0.000000
    14  O    0.000344  -0.000413   0.004617  -0.000158  -0.000012   0.000007
    15  C   -0.000020   0.000001   0.000060   0.000007   0.000000  -0.000000
    16  H   -0.000013   0.000001  -0.000132  -0.000014   0.000001   0.000000
    17  O    0.000000  -0.000000   0.000000  -0.000001   0.000000   0.000000
    18  H   -0.000027   0.000004  -0.000016  -0.000008   0.000000  -0.000000
    19  C   -0.000000  -0.000000   0.000000   0.000000  -0.000000  -0.000000
    20  H   -0.000000   0.000000  -0.000000   0.000000   0.000000  -0.000000
    21  H    0.000000  -0.000000   0.000000   0.000000  -0.000000  -0.000000
    22  O   -0.000000  -0.000000  -0.000000  -0.000000   0.000000  -0.000000
    23  H   -0.000000  -0.000000   0.000000  -0.000000   0.000000  -0.000000
    24  C   -0.044211   0.011845  -0.041002  -0.002671   0.003635  -0.000753
    25  H    0.008087  -0.000988  -0.004152   0.007425  -0.000303  -0.000033
    26  C   -0.000369  -0.000392  -0.055584  -0.001012   0.005686   0.001823
    27  H   -0.000110  -0.000034  -0.008987   0.004647  -0.000017   0.000013
    28  O    0.001464  -0.000276  -0.005753   0.000374  -0.000065  -0.000048
    29  C    0.244839  -0.050416   0.228653  -0.054085  -0.048758   0.011884
    30  H   -0.035014  -0.004157  -0.044969   0.011335   0.003778  -0.000868
    31  O    7.935286   0.325246  -0.034175   0.006372  -0.004196  -0.000545
    32  H    0.325246   0.437148  -0.006067  -0.001671   0.017416  -0.001028
    33  C   -0.034175  -0.006067   5.304988   0.387063   0.244288  -0.041894
    34  H    0.006372  -0.001671   0.387063   0.563156  -0.036301  -0.005324
    35  O   -0.004196   0.017416   0.244288  -0.036301   7.965352   0.324329
    36  H   -0.000545  -0.001028  -0.041894  -0.005324   0.324329   0.433643
    37  C    0.007185   0.002026   0.196538  -0.052653  -0.046524  -0.011418
    38  H   -0.000128  -0.000088  -0.051186   0.011072   0.007063  -0.001182
    39  O   -0.000018  -0.000028  -0.050414   0.001459  -0.001886   0.016514
    40  H    0.000006   0.000004   0.006816  -0.000726  -0.000105  -0.000616
    41  C    0.000009   0.000003   0.006316  -0.000355  -0.000104  -0.000078
    42  H   -0.000000   0.000000  -0.000233   0.000095  -0.000004  -0.000029
    43  H    0.000001  -0.000000   0.000049  -0.000063  -0.000017  -0.000001
    44  O   -0.000000  -0.000000  -0.000155   0.000003   0.000000   0.000000
    45  H   -0.000000   0.000000   0.000116   0.000001  -0.000000  -0.000000
              37         38         39         40         41         42
     1  C   -0.000007  -0.000004   0.000000  -0.000000  -0.000010  -0.000000
     2  H    0.000000   0.000000   0.000000  -0.000000  -0.000003  -0.000000
     3  O    0.000000  -0.000000  -0.000000   0.000000  -0.000001  -0.000000
     4  H   -0.000003  -0.000004  -0.000000  -0.000000  -0.000017  -0.000003
     5  C   -0.000000  -0.000001  -0.000000  -0.000000   0.000032   0.000001
     6  H   -0.000000  -0.000000   0.000000  -0.000000  -0.000005  -0.000000
     7  O   -0.000000  -0.000000   0.000000  -0.000000  -0.000085  -0.000001
     8  C   -0.000206  -0.000029   0.000000  -0.000001   0.000076  -0.000018
     9  H    0.001508   0.000634   0.000013   0.000005   0.000525   0.000234
    10  O   -0.000065  -0.000126  -0.000000   0.000000  -0.000004  -0.000000
    11  H   -0.000060  -0.000090   0.000001  -0.000000   0.000011  -0.000000
    12  C    0.000156  -0.000035   0.000000  -0.000000   0.000128   0.000005
    13  H    0.000005   0.000002   0.000000  -0.000000  -0.000012  -0.000000
    14  O   -0.000305  -0.000025   0.000000  -0.000000  -0.000112   0.000005
    15  C   -0.000098   0.000002  -0.000000  -0.000000   0.000020  -0.000023
    16  H    0.000968   0.000044  -0.000004   0.000001  -0.001928   0.000065
    17  O    0.000000  -0.000000   0.000000   0.000000   0.000004   0.000000
    18  H   -0.000001  -0.000000  -0.000000   0.000000   0.000005  -0.000000
    19  C   -0.000000   0.000000  -0.000000   0.000000   0.000006   0.000000
    20  H    0.000000  -0.000000  -0.000000   0.000000  -0.000000   0.000000
    21  H   -0.000002   0.000000   0.000000  -0.000000  -0.000048  -0.000006
    22  O    0.000000  -0.000000  -0.000000   0.000000   0.000000   0.000000
    23  H   -0.000000  -0.000000  -0.000000   0.000000   0.000000   0.000000
    24  C   -0.007534   0.000218  -0.000127  -0.000016   0.006129  -0.000112
    25  H   -0.000369   0.000191  -0.000000   0.000018   0.000688   0.000079
    26  C    0.099779  -0.048229  -0.055396  -0.003529   0.225212  -0.049059
    27  H   -0.056834   0.009328   0.006986  -0.001482  -0.027191  -0.005771
    28  O   -0.034418   0.002560   0.001978  -0.000103  -0.038182   0.005035
    29  C   -0.064521  -0.000447   0.004110  -0.000428  -0.002344   0.000072
    30  H   -0.001084   0.006765  -0.000274  -0.000014  -0.000008   0.000022
    31  O    0.007185  -0.000128  -0.000018   0.000006   0.000009  -0.000000
    32  H    0.002026  -0.000088  -0.000028   0.000004   0.000003   0.000000
    33  C    0.196538  -0.051186  -0.050414   0.006816   0.006316  -0.000233
    34  H   -0.052653   0.011072   0.001459  -0.000726  -0.000355   0.000095
    35  O   -0.046524   0.007063  -0.001886  -0.000105  -0.000104  -0.000004
    36  H   -0.011418  -0.001182   0.016514  -0.000616  -0.000078  -0.000029
    37  C    5.423704   0.391556   0.223776  -0.030916  -0.038531  -0.000835
    38  H    0.391556   0.553551  -0.032413  -0.010868  -0.007918   0.000786
    39  O    0.223776  -0.032413   7.982534   0.320543   0.003923   0.008231
    40  H   -0.030916  -0.010868   0.320543   0.441553   0.004327   0.002105
    41  C   -0.038531  -0.007918   0.003923   0.004327   4.867689   0.400712
    42  H   -0.000835   0.000786   0.008231   0.002105   0.400712   0.552165
    43  H    0.003538   0.007177  -0.000283  -0.000805   0.417008  -0.037415
    44  O    0.004437  -0.000052   0.000010  -0.000024   0.286213  -0.028111
    45  H   -0.001400  -0.000289   0.000012   0.000021  -0.046514   0.008006
              43         44         45
     1  C    0.000102  -0.000011  -0.000343
     2  H   -0.000003  -0.000001   0.000105
     3  O   -0.000003   0.000000  -0.000027
     4  H   -0.000017  -0.000006   0.000146
     5  C   -0.000006   0.000070  -0.000967
     6  H   -0.000002  -0.000006   0.000311
     7  O   -0.000059  -0.000061   0.005085
     8  C   -0.000084  -0.000122   0.000793
     9  H   -0.000656   0.000668   0.003656
    10  O    0.000004   0.000000  -0.000001
    11  H    0.000001   0.000000  -0.000008
    12  C   -0.000009  -0.000000  -0.002031
    13  H   -0.000002  -0.000004   0.000098
    14  O    0.000007   0.000004  -0.000018
    15  C   -0.000147  -0.002452   0.002794
    16  H    0.001023   0.011743   0.002732
    17  O    0.000000   0.000005  -0.000192
    18  H   -0.000000  -0.000007  -0.000013
    19  C   -0.000004  -0.000080   0.000197
    20  H   -0.000000  -0.000007   0.000023
    21  H    0.000011   0.000340   0.001689
    22  O    0.000000   0.000000  -0.000026
    23  H    0.000000   0.000000  -0.000014
    24  C   -0.000960  -0.000821   0.000419
    25  H   -0.000033  -0.000123  -0.000110
    26  C   -0.074972  -0.043406  -0.002314
    27  H    0.010200   0.005609  -0.002708
    28  O   -0.002932  -0.003222   0.006186
    29  C   -0.000148  -0.000010   0.000062
    30  H   -0.000085   0.000001  -0.000039
    31  O    0.000001  -0.000000  -0.000000
    32  H   -0.000000  -0.000000   0.000000
    33  C    0.000049  -0.000155   0.000116
    34  H   -0.000063   0.000003   0.000001
    35  O   -0.000017   0.000000  -0.000000
    36  H   -0.000001   0.000000  -0.000000
    37  C    0.003538   0.004437  -0.001400
    38  H    0.007177  -0.000052  -0.000289
    39  O   -0.000283   0.000010   0.000012
    40  H   -0.000805  -0.000024   0.000021
    41  C    0.417008   0.286213  -0.046514
    42  H   -0.037415  -0.028111   0.008006
    43  H    0.598503  -0.036852  -0.015158
    44  O   -0.036852   7.874346   0.320993
    45  H   -0.015158   0.320993   0.461136
 Mulliken charges:
               1
     1  C    0.228861
     2  H    0.149480
     3  O   -0.371306
     4  H    0.246410
     5  C   -0.096633
     6  H    0.167769
     7  O   -0.409377
     8  C    0.006726
     9  H    0.138292
    10  O   -0.403991
    11  H    0.269376
    12  C   -0.111518
    13  H    0.195835
    14  O   -0.410919
    15  C    0.058672
    16  H    0.142690
    17  O   -0.416364
    18  H    0.267758
    19  C    0.005951
    20  H    0.154957
    21  H    0.121878
    22  O   -0.414639
    23  H    0.257552
    24  C    0.222972
    25  H    0.162885
    26  C   -0.026645
    27  H    0.171894
    28  O   -0.420361
    29  C    0.044477
    30  H    0.147532
    31  O   -0.412026
    32  H    0.271964
    33  C   -0.034588
    34  H    0.162088
    35  O   -0.433201
    36  H    0.275599
    37  C   -0.007392
    38  H    0.162163
    39  O   -0.429248
    40  H    0.274234
    41  C   -0.055585
    42  H    0.143997
    43  H    0.133095
    44  O   -0.388908
    45  H    0.257594
 Sum of Mulliken charges =  -0.00000
 Mulliken charges with hydrogens summed into heavy atoms:
               1
     1  C    0.378340
     3  O   -0.124896
     5  C    0.071135
     7  O   -0.409377
     8  C    0.145018
    10  O   -0.134615
    12  C    0.084317
    14  O   -0.410919
    15  C    0.201363
    17  O   -0.148606
    19  C    0.282786
    22  O   -0.157087
    24  C    0.385857
    26  C    0.145250
    28  O   -0.420361
    29  C    0.192009
    31  O   -0.140062
    33  C    0.127500
    35  O   -0.157602
    37  C    0.154771
    39  O   -0.155014
    41  C    0.221507
    44  O   -0.131315
 Electronic spatial extent (au):  <R**2>=           7744.2905
 Charge=             -0.0000 electrons
 Dipole moment (field-independent basis, Debye):
    X=             -6.6785    Y=              1.8466    Z=              0.9931  Tot=              6.9999
 Quadrupole moment (field-independent basis, Debye-Ang):
   XX=           -145.1071   YY=           -142.6022   ZZ=           -139.7507
   XY=            -11.3483   XZ=             -3.7715   YZ=             10.1951
 Traceless Quadrupole moment (field-independent basis, Debye-Ang):
   XX=             -2.6205   YY=             -0.1155   ZZ=              2.7360
   XY=            -11.3483   XZ=             -3.7715   YZ=             10.1951
 Octapole moment (field-independent basis, Debye-Ang**2):
  XXX=           -191.6471  YYY=            -15.3209  ZZZ=             -4.9904  XYY=            -27.6747
  XXY=             -7.6448  XXZ=             33.6345  XZZ=            -31.0909  YZZ=             34.6798
  YYZ=             14.5778  XYZ=             -0.6859
 Hexadecapole moment (field-independent basis, Debye-Ang**3):
 XXXX=          -6643.5165 YYYY=          -1977.6153 ZZZZ=          -1241.1429 XXXY=           -180.0329
 XXXZ=             53.7270 YYYX=            -61.9905 YYYZ=             50.0996 ZZZX=            -23.5463
 ZZZY=             81.3638 XXYY=          -1307.3278 XXZZ=          -1289.0675 YYZZ=           -558.8732
 XXYZ=            118.9513 YYXZ=            -60.6434 ZZXY=             14.6782
 N-N= 2.370886040075D+03 E-N=-7.788777431707D+03  KE= 1.294079284032D+03
 No NMR shielding tensors so no spin-rotation constants.
 Leave Link  601 at Fri Apr 14 20:00:35 2023, MaxMem=   524288000 cpu:              17.8 elap:               3.0
 (Enter /dragofs/sw/campus/0.2/software/gaussian/16.gaussian/gaussian/g16_legacy/l9999.exe)
 1\1\GINC-DRAGO31070219\FOpt\RM062X\6-311G(d,p)\C12H22O11\JRAMOS\14-Apr
 -2023\0\\#p opt=modredundant m062x/6-311g(d,p)\\Conformer number 00006
 . Energy MM = 189.220 kcal/mol\\0,1\C,0.1785596701,1.2390320901,-0.666
 9031305\H,-0.7657958833,1.1841586252,-0.1117657243\O,-0.0816301988,1.9
 450262608,-1.8206067071\H,0.6940164589,1.8932506913,-2.3875627578\C,1.
 3201734271,1.4151815884,1.4071888908\H,0.344776292,1.3656472545,1.9123
 08002\O,1.1523062833,1.9407658632,0.0947972624\C,0.7306382752,-0.15993
 4823,-0.9338526191\H,1.6508608285,-0.0316601024,-1.5122912568\O,-0.211
 606088,-0.9142521044,-1.6632228051\H,-0.1192348528,-1.8346399108,-1.39
 47697971\C,1.0269477533,-0.8281678919,0.4058596601\H,0.0672987415,-0.9
 571492858,0.9198226284\O,1.494645295,-2.1743375392,0.2956077488\C,1.90
 68061862,0.0123039513,1.3237260063\H,2.9239002502,0.0674242524,0.91676
 01957\O,1.9231182376,-0.5299785321,2.6256076346\H,2.0502882362,-1.4803
 060938,2.5405162606\C,2.2109045706,2.3923536481,2.1473122388\H,2.34710
 7425,2.049834465,3.1731048363\H,3.1933592295,2.4143730868,1.6530857809
 \O,1.6237467401,3.6698005068,2.1865361295\H,1.3754648611,3.8784435531,
 1.2799357123\C,2.6663956753,-2.5220900661,-0.3952093745\H,3.3442270031
 ,-3.0057173091,0.324786475\C,4.5626306791,-1.6515491731,-1.5340729056\
 H,5.2313801995,-2.0972303393,-0.7847119067\O,3.293536162,-1.3878901178
 ,-0.9480283615\C,2.3487608561,-3.4956829626,-1.5240079534\H,1.69595510
 67,-2.9753185373,-2.242398358\O,1.7297307215,-4.6339274355,-0.99013032
 83\H,1.7348378862,-5.2998777512,-1.6862985445\C,3.651490581,-3.8615233
 346,-2.2172809643\H,4.2977453406,-4.3758928586,-1.4895843908\O,3.32582
 57283,-4.7294108799,-3.2796356202\H,4.1498834706,-4.958598604,-3.72115
 74758\C,4.378675763,-2.621579701,-2.7016327931\H,3.76564784,-2.1435544
 982,-3.4775957794\O,5.6181559072,-3.0617129954,-3.2306397045\H,5.93767
 19358,-2.4233302386,-3.8718504988\C,5.1029912313,-0.2994806307,-1.9700
 626628\H,6.1342959297,-0.4167750218,-2.308172078\H,4.4985907534,0.0630
 680758,-2.8143482499\O,5.1174441145,0.6271147578,-0.9144237731\H,4.202
 0753768,0.7898900674,-0.6650389412\\Version=EM64L-G16RevA.03\State=1-A
 \HF=-1297.8074677\RMSD=4.576e-09\RMSF=5.835e-04\Dipole=1.5173257,-1.54
 70984,-1.6995784\Quadrupole=0.899142,-5.9586216,5.0594796,-1.2333198,-
 9.1225309,-4.9774686\PG=C01 [X(C12H22O11)]\\@


 ON A TOMBSTONE, "HERE LIES LESTER MOORE,
 FOUR SLUGS FROM A 44, NO LES, NO MORE".
 Job cpu time:       0 days 22 hours 43 minutes 29.4 seconds.
 Elapsed time:       0 days  4 hours  7 minutes 50.1 seconds.
 File lengths (MBytes):  RWF=    189 Int=      0 D2E=      0 Chk=     24 Scr=      1
 Normal termination of Gaussian 16 at Fri Apr 14 20:00:35 2023.
