 Entering Gaussian System, Link 0=g16
 Input=dimer_13b_00007_gaussian.com
 Output=dimer_13b_00007_gaussian.log
 Initial command:
 /dragofs/sw/campus/0.2/software/gaussian/16.gaussian/gaussian/g16_legacy/l1.exe "/lustre/scratch-global/iem/jramos/Gau-2323116.inp" -scrdir="/lustre/scratch-global/iem/jramos/"
 Entering Link 1 = /dragofs/sw/campus/0.2/software/gaussian/16.gaussian/gaussian/g16_legacy/l1.exe PID=   2323117.
  
 Copyright (c) 1988,1990,1992,1993,1995,1998,2003,2009,2016,
            Gaussian, Inc.  All Rights Reserved.
  
 This is part of the Gaussian(R) 16 program.  It is based on
 the Gaussian(R) 09 system (copyright 2009, Gaussian, Inc.),
 the Gaussian(R) 03 system (copyright 2003, Gaussian, Inc.),
 the Gaussian(R) 98 system (copyright 1998, Gaussian, Inc.),
 the Gaussian(R) 94 system (copyright 1995, Gaussian, Inc.),
 the Gaussian 92(TM) system (copyright 1992, Gaussian, Inc.),
 the Gaussian 90(TM) system (copyright 1990, Gaussian, Inc.),
 the Gaussian 88(TM) system (copyright 1988, Gaussian, Inc.),
 the Gaussian 86(TM) system (copyright 1986, Carnegie Mellon
 University), and the Gaussian 82(TM) system (copyright 1983,
 Carnegie Mellon University). Gaussian is a federally registered
 trademark of Gaussian, Inc.
  
 This software contains proprietary and confidential information,
 including trade secrets, belonging to Gaussian, Inc.
  
 This software is provided under written license and may be
 used, copied, transmitted, or stored only in accord with that
 written license.
  
 The following legend is applicable only to US Government
 contracts under FAR:
  
                    RESTRICTED RIGHTS LEGEND
  
 Use, reproduction and disclosure by the US Government is
 subject to restrictions as set forth in subparagraphs (a)
 and (c) of the Commercial Computer Software - Restricted
 Rights clause in FAR 52.227-19.
  
 Gaussian, Inc.
 340 Quinnipiac St., Bldg. 40, Wallingford CT 06492
  
  
 ---------------------------------------------------------------
 Warning -- This program may not be used in any manner that
 competes with the business of Gaussian, Inc. or will provide
 assistance to any competitor of Gaussian, Inc.  The licensee
 of this program is prohibited from giving any competitor of
 Gaussian, Inc. access to this program.  By using this program,
 the user acknowledges that Gaussian, Inc. is engaged in the
 business of creating and licensing software in the field of
 computational chemistry and represents and warrants to the
 licensee that it is not a competitor of Gaussian, Inc. and that
 it will not use this program in any manner prohibited above.
 ---------------------------------------------------------------
  

 Cite this work as:
 Gaussian 16, Revision A.03,
 M. J. Frisch, G. W. Trucks, H. B. Schlegel, G. E. Scuseria, 
 M. A. Robb, J. R. Cheeseman, G. Scalmani, V. Barone, 
 G. A. Petersson, H. Nakatsuji, X. Li, M. Caricato, A. V. Marenich, 
 J. Bloino, B. G. Janesko, R. Gomperts, B. Mennucci, H. P. Hratchian, 
 J. V. Ortiz, A. F. Izmaylov, J. L. Sonnenberg, D. Williams-Young, 
 F. Ding, F. Lipparini, F. Egidi, J. Goings, B. Peng, A. Petrone, 
 T. Henderson, D. Ranasinghe, V. G. Zakrzewski, J. Gao, N. Rega, 
 G. Zheng, W. Liang, M. Hada, M. Ehara, K. Toyota, R. Fukuda, 
 J. Hasegawa, M. Ishida, T. Nakajima, Y. Honda, O. Kitao, H. Nakai, 
 T. Vreven, K. Throssell, J. A. Montgomery, Jr., J. E. Peralta, 
 F. Ogliaro, M. J. Bearpark, J. J. Heyd, E. N. Brothers, K. N. Kudin, 
 V. N. Staroverov, T. A. Keith, R. Kobayashi, J. Normand, 
 K. Raghavachari, A. P. Rendell, J. C. Burant, S. S. Iyengar, 
 J. Tomasi, M. Cossi, J. M. Millam, M. Klene, C. Adamo, R. Cammi, 
 J. W. Ochterski, R. L. Martin, K. Morokuma, O. Farkas, 
 J. B. Foresman, and D. J. Fox, Gaussian, Inc., Wallingford CT, 2016.
 
 ******************************************
 Gaussian 16:  EM64L-G16RevA.03 25-Dec-2016
                14-Apr-2023 
 ******************************************
 %chk=dimer_13b_00007_gaussian.chk
 %nproc=8
 Will use up to    8 processors via shared memory.
 %mem=4000Mb
 -------------------------------------
 #p opt=modredundant m062x/6-311g(d,p)
 -------------------------------------
 1/18=120,19=15,26=3,38=1/1,3;
 2/9=110,12=2,17=6,18=5,40=1/2;
 3/5=4,6=6,7=101,11=2,25=1,30=1,71=1,74=-55/1,2,3;
 4//1;
 5/5=2,38=5/2;
 6/7=2,8=2,9=2,10=2,28=1/1;
 7//1,2,3,16;
 1/18=20,19=15,26=3/3(2);
 2/9=110/2;
 99//99;
 2/9=110/2;
 3/5=4,6=6,7=101,11=2,25=1,30=1,71=1,74=-55/1,2,3;
 4/5=5,16=3,69=1/1;
 5/5=2,38=5/2;
 7//1,2,3,16;
 1/18=20,19=15,26=3/3(-5);
 2/9=110/2;
 6/7=2,8=2,9=2,10=2,19=2,28=1/1;
 99/9=1/99;
 Leave Link    1 at Fri Apr 14 15:52:35 2023, MaxMem=   524288000 cpu:               0.6 elap:               0.1
 (Enter /dragofs/sw/campus/0.2/software/gaussian/16.gaussian/gaussian/g16_legacy/l101.exe)
 ----------------------------------------------------
 Conformer number 00007. Energy MM = 179.962 kcal/mol
 ----------------------------------------------------
 Symbolic Z-matrix:
 Charge =  0 Multiplicity = 1
 C                     0.2456    1.1069   -0.7237 
 H                    -0.6409    1.3986   -0.1482 
 O                     0.0515    1.6028   -2.0548 
 H                     0.8963    1.4484   -2.5175 
 C                     1.5305    1.3388    1.2416 
 H                     0.5923    1.5943    1.7651 
 O                     1.4127    1.7001   -0.154 
 C                     0.3802   -0.4185   -0.8034 
 H                     1.1318   -0.6361   -1.5812 
 O                    -0.8324   -1.0332   -1.2547 
 H                    -1.0846   -0.5792   -2.0789 
 C                     0.8209   -0.9901    0.558 
 H                    -0.0946   -1.13      1.1475 
 O                     1.3266   -2.3359    0.3635 
 C                     1.8187   -0.1674    1.3923 
 H                     2.8553   -0.413     1.1224 
 O                     1.714    -0.5204    2.7907 
 H                     2.1579   -1.3863    2.8894 
 C                     2.6578    2.1902    1.8651 
 H                     2.769     1.9748    2.931 
 H                     3.6183    1.9938    1.3828 
 O                     2.3473    3.5747    1.7082 
 H                     2.1501    3.7226    0.7598 
 C                     2.5552   -2.5072   -0.3119 
 H                     3.2301   -3.0124    0.3889 
 C                     4.4913   -1.4574   -1.3351 
 H                     5.1642   -1.8735   -0.5671 
 O                     3.189    -1.2861   -0.7458 
 C                     2.3342   -3.4076   -1.5485 
 H                     1.6568   -2.9339   -2.275 
 O                     1.7552   -4.668    -1.2149 
 H                     0.8042   -4.5023   -0.9902 
 C                     3.6968   -3.6818   -2.2154 
 H                     4.3306   -4.3061   -1.5801 
 O                     3.4992   -4.4248   -3.4307 
 H                     3.0698   -5.2566   -3.1353 
 C                     4.4053   -2.3652   -2.57 
 H                     3.8413   -1.8643   -3.3684 
 O                     5.7251   -2.6069   -3.0728 
 H                     5.6059   -2.8186   -4.0114 
 C                     5.0271   -0.0676   -1.7269 
 H                     6.0857   -0.146    -2.032 
 H                     4.4582    0.3725   -2.5585 
 O                     4.9656    0.8236   -0.6236 
 H                     4.0782    1.2408   -0.6408 
 
 The following ModRedundant input section has been read:
 D      12      14      24      28 F                                           
 D       8      12      14      24 F                                           
 
 ITRead=  0  0  0  0  0  0  0  0  0  0  0  0  0  0  0  0  0  0  0  0
 ITRead=  0  0  0  0  0  0  0  0  0  0  0  0  0  0  0  0  0  0  0  0
 ITRead=  0  0  0  0  0
 MicOpt= -1 -1 -1 -1 -1 -1 -1 -1 -1 -1 -1 -1 -1 -1 -1 -1 -1 -1 -1 -1
 MicOpt= -1 -1 -1 -1 -1 -1 -1 -1 -1 -1 -1 -1 -1 -1 -1 -1 -1 -1 -1 -1
 MicOpt= -1 -1 -1 -1 -1
 NAtoms=     45 NQM=       45 NQMF=       0 NMMI=      0 NMMIF=      0
                NMic=       0 NMicF=      0.
                    Isotopes and Nuclear Properties:
 (Nuclear quadrupole moments (NQMom) in fm**2, nuclear magnetic moments (NMagM)
  in nuclear magnetons)

  Atom         1           2           3           4           5           6           7           8           9          10
 IAtWgt=          12           1          16           1          12           1          16          12           1          16
 AtmWgt=  12.0000000   1.0078250  15.9949146   1.0078250  12.0000000   1.0078250  15.9949146  12.0000000   1.0078250  15.9949146
 NucSpn=           0           1           0           1           0           1           0           0           1           0
 AtZEff=  -0.0000000  -0.0000000  -0.0000000  -0.0000000  -0.0000000  -0.0000000  -0.0000000  -0.0000000  -0.0000000  -0.0000000
 NQMom=    0.0000000   0.0000000   0.0000000   0.0000000   0.0000000   0.0000000   0.0000000   0.0000000   0.0000000   0.0000000
 NMagM=    0.0000000   2.7928460   0.0000000   2.7928460   0.0000000   2.7928460   0.0000000   0.0000000   2.7928460   0.0000000
 AtZNuc=   6.0000000   1.0000000   8.0000000   1.0000000   6.0000000   1.0000000   8.0000000   6.0000000   1.0000000   8.0000000

  Atom        11          12          13          14          15          16          17          18          19          20
 IAtWgt=           1          12           1          16          12           1          16           1          12           1
 AtmWgt=   1.0078250  12.0000000   1.0078250  15.9949146  12.0000000   1.0078250  15.9949146   1.0078250  12.0000000   1.0078250
 NucSpn=           1           0           1           0           0           1           0           1           0           1
 AtZEff=  -0.0000000  -0.0000000  -0.0000000  -0.0000000  -0.0000000  -0.0000000  -0.0000000  -0.0000000  -0.0000000  -0.0000000
 NQMom=    0.0000000   0.0000000   0.0000000   0.0000000   0.0000000   0.0000000   0.0000000   0.0000000   0.0000000   0.0000000
 NMagM=    2.7928460   0.0000000   2.7928460   0.0000000   0.0000000   2.7928460   0.0000000   2.7928460   0.0000000   2.7928460
 AtZNuc=   1.0000000   6.0000000   1.0000000   8.0000000   6.0000000   1.0000000   8.0000000   1.0000000   6.0000000   1.0000000

  Atom        21          22          23          24          25          26          27          28          29          30
 IAtWgt=           1          16           1          12           1          12           1          16          12           1
 AtmWgt=   1.0078250  15.9949146   1.0078250  12.0000000   1.0078250  12.0000000   1.0078250  15.9949146  12.0000000   1.0078250
 NucSpn=           1           0           1           0           1           0           1           0           0           1
 AtZEff=  -0.0000000  -0.0000000  -0.0000000  -0.0000000  -0.0000000  -0.0000000  -0.0000000  -0.0000000  -0.0000000  -0.0000000
 NQMom=    0.0000000   0.0000000   0.0000000   0.0000000   0.0000000   0.0000000   0.0000000   0.0000000   0.0000000   0.0000000
 NMagM=    2.7928460   0.0000000   2.7928460   0.0000000   2.7928460   0.0000000   2.7928460   0.0000000   0.0000000   2.7928460
 AtZNuc=   1.0000000   8.0000000   1.0000000   6.0000000   1.0000000   6.0000000   1.0000000   8.0000000   6.0000000   1.0000000

  Atom        31          32          33          34          35          36          37          38          39          40
 IAtWgt=          16           1          12           1          16           1          12           1          16           1
 AtmWgt=  15.9949146   1.0078250  12.0000000   1.0078250  15.9949146   1.0078250  12.0000000   1.0078250  15.9949146   1.0078250
 NucSpn=           0           1           0           1           0           1           0           1           0           1
 AtZEff=  -0.0000000  -0.0000000  -0.0000000  -0.0000000  -0.0000000  -0.0000000  -0.0000000  -0.0000000  -0.0000000  -0.0000000
 NQMom=    0.0000000   0.0000000   0.0000000   0.0000000   0.0000000   0.0000000   0.0000000   0.0000000   0.0000000   0.0000000
 NMagM=    0.0000000   2.7928460   0.0000000   2.7928460   0.0000000   2.7928460   0.0000000   2.7928460   0.0000000   2.7928460
 AtZNuc=   8.0000000   1.0000000   6.0000000   1.0000000   8.0000000   1.0000000   6.0000000   1.0000000   8.0000000   1.0000000

  Atom        41          42          43          44          45
 IAtWgt=          12           1           1          16           1
 AtmWgt=  12.0000000   1.0078250   1.0078250  15.9949146   1.0078250
 NucSpn=           0           1           1           0           1
 AtZEff=  -0.0000000  -0.0000000  -0.0000000  -0.0000000  -0.0000000
 NQMom=    0.0000000   0.0000000   0.0000000   0.0000000   0.0000000
 NMagM=    0.0000000   2.7928460   2.7928460   0.0000000   2.7928460
 AtZNuc=   6.0000000   1.0000000   1.0000000   8.0000000   1.0000000
 Leave Link  101 at Fri Apr 14 15:52:35 2023, MaxMem=   524288000 cpu:               1.4 elap:               0.2
 (Enter /dragofs/sw/campus/0.2/software/gaussian/16.gaussian/gaussian/g16_legacy/l103.exe)

 GradGradGradGradGradGradGradGradGradGradGradGradGradGradGradGradGradGrad
 Berny optimization.
 Initialization pass.
                           ----------------------------
                           !    Initial Parameters    !
                           ! (Angstroms and Degrees)  !
 --------------------------                            --------------------------
 ! Name  Definition              Value          Derivative Info.                !
 --------------------------------------------------------------------------------
 ! R1    R(1,2)                  1.0964         estimate D2E/DX2                !
 ! R2    R(1,3)                  1.4337         estimate D2E/DX2                !
 ! R3    R(1,7)                  1.4278         estimate D2E/DX2                !
 ! R4    R(1,8)                  1.5334         estimate D2E/DX2                !
 ! R5    R(3,4)                  0.9755         estimate D2E/DX2                !
 ! R6    R(5,6)                  1.1043         estimate D2E/DX2                !
 ! R7    R(5,7)                  1.4464         estimate D2E/DX2                !
 ! R8    R(5,15)                 1.5409         estimate D2E/DX2                !
 ! R9    R(5,19)                 1.5442         estimate D2E/DX2                !
 ! R10   R(8,9)                  1.1033         estimate D2E/DX2                !
 ! R11   R(8,10)                 1.4325         estimate D2E/DX2                !
 ! R12   R(8,12)                 1.5409         estimate D2E/DX2                !
 ! R13   R(10,11)                0.9742         estimate D2E/DX2                !
 ! R14   R(12,13)                1.0978         estimate D2E/DX2                !
 ! R15   R(12,14)                1.4508         estimate D2E/DX2                !
 ! R16   R(12,15)                1.539          estimate D2E/DX2                !
 ! R17   R(14,24)                1.4124         estimate D2E/DX2                !
 ! R18   R(15,16)                1.099          estimate D2E/DX2                !
 ! R19   R(15,17)                1.4461         estimate D2E/DX2                !
 ! R20   R(17,18)                0.978          estimate D2E/DX2                !
 ! R21   R(19,20)                1.0931         estimate D2E/DX2                !
 ! R22   R(19,21)                1.0926         estimate D2E/DX2                !
 ! R23   R(19,22)                1.4275         estimate D2E/DX2                !
 ! R24   R(22,23)                0.9799         estimate D2E/DX2                !
 ! R25   R(24,25)                1.0963         estimate D2E/DX2                !
 ! R26   R(24,28)                1.4426         estimate D2E/DX2                !
 ! R27   R(24,29)                1.5456         estimate D2E/DX2                !
 ! R28   R(26,27)                1.1026         estimate D2E/DX2                !
 ! R29   R(26,28)                1.4397         estimate D2E/DX2                !
 ! R30   R(26,37)                1.5351         estimate D2E/DX2                !
 ! R31   R(26,41)                1.5402         estimate D2E/DX2                !
 ! R32   R(29,30)                1.1005         estimate D2E/DX2                !
 ! R33   R(29,31)                1.4266         estimate D2E/DX2                !
 ! R34   R(29,33)                1.5416         estimate D2E/DX2                !
 ! R35   R(31,32)                0.9911         estimate D2E/DX2                !
 ! R36   R(33,34)                1.0932         estimate D2E/DX2                !
 ! R37   R(33,35)                1.4381         estimate D2E/DX2                !
 ! R38   R(33,37)                1.5366         estimate D2E/DX2                !
 ! R39   R(35,36)                0.9816         estimate D2E/DX2                !
 ! R40   R(37,38)                1.0984         estimate D2E/DX2                !
 ! R41   R(37,39)                1.4329         estimate D2E/DX2                !
 ! R42   R(39,40)                0.9695         estimate D2E/DX2                !
 ! R43   R(41,42)                1.1045         estimate D2E/DX2                !
 ! R44   R(41,43)                1.0995         estimate D2E/DX2                !
 ! R45   R(41,44)                1.4196         estimate D2E/DX2                !
 ! R46   R(44,45)                0.9807         estimate D2E/DX2                !
 ! A1    A(2,1,3)              106.6092         estimate D2E/DX2                !
 ! A2    A(2,1,7)              109.9343         estimate D2E/DX2                !
 ! A3    A(2,1,8)              111.279          estimate D2E/DX2                !
 ! A4    A(3,1,7)              109.7199         estimate D2E/DX2                !
 ! A5    A(3,1,8)              107.9217         estimate D2E/DX2                !
 ! A6    A(7,1,8)              111.2408         estimate D2E/DX2                !
 ! A7    A(1,3,4)              105.5684         estimate D2E/DX2                !
 ! A8    A(6,5,7)              109.2934         estimate D2E/DX2                !
 ! A9    A(6,5,15)             109.7967         estimate D2E/DX2                !
 ! A10   A(6,5,19)             107.5322         estimate D2E/DX2                !
 ! A11   A(7,5,15)             110.7174         estimate D2E/DX2                !
 ! A12   A(7,5,19)             108.139          estimate D2E/DX2                !
 ! A13   A(15,5,19)            111.2794         estimate D2E/DX2                !
 ! A14   A(1,7,5)              110.3519         estimate D2E/DX2                !
 ! A15   A(1,8,9)              107.0162         estimate D2E/DX2                !
 ! A16   A(1,8,10)             111.6511         estimate D2E/DX2                !
 ! A17   A(1,8,12)             110.3774         estimate D2E/DX2                !
 ! A18   A(9,8,10)             105.6606         estimate D2E/DX2                !
 ! A19   A(9,8,12)             110.7853         estimate D2E/DX2                !
 ! A20   A(10,8,12)            111.1786         estimate D2E/DX2                !
 ! A21   A(8,10,11)            106.6016         estimate D2E/DX2                !
 ! A22   A(8,12,13)            106.4506         estimate D2E/DX2                !
 ! A23   A(8,12,14)            108.9872         estimate D2E/DX2                !
 ! A24   A(8,12,15)            117.7806         estimate D2E/DX2                !
 ! A25   A(13,12,14)           104.1499         estimate D2E/DX2                !
 ! A26   A(13,12,15)           108.5236         estimate D2E/DX2                !
 ! A27   A(14,12,15)           110.0338         estimate D2E/DX2                !
 ! A28   A(12,14,24)           118.6735         estimate D2E/DX2                !
 ! A29   A(5,15,12)            110.3803         estimate D2E/DX2                !
 ! A30   A(5,15,16)            111.7681         estimate D2E/DX2                !
 ! A31   A(5,15,17)            108.6415         estimate D2E/DX2                !
 ! A32   A(12,15,16)           111.0357         estimate D2E/DX2                !
 ! A33   A(12,15,17)           110.2919         estimate D2E/DX2                !
 ! A34   A(16,15,17)           104.551          estimate D2E/DX2                !
 ! A35   A(15,17,18)           106.3109         estimate D2E/DX2                !
 ! A36   A(5,19,20)            111.0598         estimate D2E/DX2                !
 ! A37   A(5,19,21)            111.3725         estimate D2E/DX2                !
 ! A38   A(5,19,22)            109.3644         estimate D2E/DX2                !
 ! A39   A(20,19,21)           107.7935         estimate D2E/DX2                !
 ! A40   A(20,19,22)           108.6877         estimate D2E/DX2                !
 ! A41   A(21,19,22)           108.4835         estimate D2E/DX2                !
 ! A42   A(19,22,23)           107.2492         estimate D2E/DX2                !
 ! A43   A(14,24,25)           106.6014         estimate D2E/DX2                !
 ! A44   A(14,24,28)           115.0453         estimate D2E/DX2                !
 ! A45   A(14,24,29)           109.2001         estimate D2E/DX2                !
 ! A46   A(25,24,28)           108.1723         estimate D2E/DX2                !
 ! A47   A(25,24,29)           109.3311         estimate D2E/DX2                !
 ! A48   A(28,24,29)           108.3788         estimate D2E/DX2                !
 ! A49   A(27,26,28)           108.1703         estimate D2E/DX2                !
 ! A50   A(27,26,37)           111.7985         estimate D2E/DX2                !
 ! A51   A(27,26,41)           107.783          estimate D2E/DX2                !
 ! A52   A(28,26,37)           110.4248         estimate D2E/DX2                !
 ! A53   A(28,26,41)           108.1468         estimate D2E/DX2                !
 ! A54   A(37,26,41)           110.3943         estimate D2E/DX2                !
 ! A55   A(24,28,26)           114.8241         estimate D2E/DX2                !
 ! A56   A(24,29,30)           111.4352         estimate D2E/DX2                !
 ! A57   A(24,29,31)           112.6838         estimate D2E/DX2                !
 ! A58   A(24,29,33)           108.8658         estimate D2E/DX2                !
 ! A59   A(30,29,31)           106.55           estimate D2E/DX2                !
 ! A60   A(30,29,33)           109.5751         estimate D2E/DX2                !
 ! A61   A(31,29,33)           107.6227         estimate D2E/DX2                !
 ! A62   A(29,31,32)           107.1418         estimate D2E/DX2                !
 ! A63   A(29,33,34)           111.2611         estimate D2E/DX2                !
 ! A64   A(29,33,35)           109.6351         estimate D2E/DX2                !
 ! A65   A(29,33,37)           110.7915         estimate D2E/DX2                !
 ! A66   A(34,33,35)           106.0053         estimate D2E/DX2                !
 ! A67   A(34,33,37)           110.8612         estimate D2E/DX2                !
 ! A68   A(35,33,37)           108.1211         estimate D2E/DX2                !
 ! A69   A(33,35,36)           104.0995         estimate D2E/DX2                !
 ! A70   A(26,37,33)           110.2971         estimate D2E/DX2                !
 ! A71   A(26,37,38)           110.1103         estimate D2E/DX2                !
 ! A72   A(26,37,39)           109.2954         estimate D2E/DX2                !
 ! A73   A(33,37,38)           108.7674         estimate D2E/DX2                !
 ! A74   A(33,37,39)           111.1705         estimate D2E/DX2                !
 ! A75   A(38,37,39)           107.1469         estimate D2E/DX2                !
 ! A76   A(37,39,40)           105.2658         estimate D2E/DX2                !
 ! A77   A(26,41,42)           109.8556         estimate D2E/DX2                !
 ! A78   A(26,41,43)           111.9376         estimate D2E/DX2                !
 ! A79   A(26,41,44)           110.7143         estimate D2E/DX2                !
 ! A80   A(42,41,43)           108.3854         estimate D2E/DX2                !
 ! A81   A(42,41,44)           107.5041         estimate D2E/DX2                !
 ! A82   A(43,41,44)           108.3078         estimate D2E/DX2                !
 ! A83   A(41,44,45)           107.0151         estimate D2E/DX2                !
 ! D1    D(2,1,3,4)            172.1856         estimate D2E/DX2                !
 ! D2    D(7,1,3,4)             53.1815         estimate D2E/DX2                !
 ! D3    D(8,1,3,4)            -68.1782         estimate D2E/DX2                !
 ! D4    D(2,1,7,5)             56.0124         estimate D2E/DX2                !
 ! D5    D(3,1,7,5)            172.9488         estimate D2E/DX2                !
 ! D6    D(8,1,7,5)            -67.7082         estimate D2E/DX2                !
 ! D7    D(2,1,8,9)            166.6935         estimate D2E/DX2                !
 ! D8    D(2,1,8,10)            51.5295         estimate D2E/DX2                !
 ! D9    D(2,1,8,12)           -72.6715         estimate D2E/DX2                !
 ! D10   D(3,1,8,9)             50.0554         estimate D2E/DX2                !
 ! D11   D(3,1,8,10)           -65.1086         estimate D2E/DX2                !
 ! D12   D(3,1,8,12)           170.6903         estimate D2E/DX2                !
 ! D13   D(7,1,8,9)            -70.3545         estimate D2E/DX2                !
 ! D14   D(7,1,8,10)           174.4814         estimate D2E/DX2                !
 ! D15   D(7,1,8,12)            50.2804         estimate D2E/DX2                !
 ! D16   D(6,5,7,1)            -53.6835         estimate D2E/DX2                !
 ! D17   D(15,5,7,1)            67.3838         estimate D2E/DX2                !
 ! D18   D(19,5,7,1)          -170.4618         estimate D2E/DX2                !
 ! D19   D(6,5,15,12)           70.9351         estimate D2E/DX2                !
 ! D20   D(6,5,15,16)         -164.9626         estimate D2E/DX2                !
 ! D21   D(6,5,15,17)          -50.1139         estimate D2E/DX2                !
 ! D22   D(7,5,15,12)          -49.8339         estimate D2E/DX2                !
 ! D23   D(7,5,15,16)           74.2685         estimate D2E/DX2                !
 ! D24   D(7,5,15,17)         -170.8829         estimate D2E/DX2                !
 ! D25   D(19,5,15,12)        -170.1323         estimate D2E/DX2                !
 ! D26   D(19,5,15,16)         -46.0299         estimate D2E/DX2                !
 ! D27   D(19,5,15,17)          68.8187         estimate D2E/DX2                !
 ! D28   D(6,5,19,20)           60.4787         estimate D2E/DX2                !
 ! D29   D(6,5,19,21)         -179.3667         estimate D2E/DX2                !
 ! D30   D(6,5,19,22)          -59.4726         estimate D2E/DX2                !
 ! D31   D(7,5,19,20)          178.3909         estimate D2E/DX2                !
 ! D32   D(7,5,19,21)          -61.4546         estimate D2E/DX2                !
 ! D33   D(7,5,19,22)           58.4396         estimate D2E/DX2                !
 ! D34   D(15,5,19,20)         -59.8002         estimate D2E/DX2                !
 ! D35   D(15,5,19,21)          60.3543         estimate D2E/DX2                !
 ! D36   D(15,5,19,22)        -179.7515         estimate D2E/DX2                !
 ! D37   D(1,8,10,11)           52.0493         estimate D2E/DX2                !
 ! D38   D(9,8,10,11)          -63.9449         estimate D2E/DX2                !
 ! D39   D(12,8,10,11)         175.7992         estimate D2E/DX2                !
 ! D40   D(1,8,12,13)           85.3459         estimate D2E/DX2                !
 ! D41   D(1,8,12,14)         -162.8671         estimate D2E/DX2                !
 ! D42   D(1,8,12,15)          -36.6572         estimate D2E/DX2                !
 ! D43   D(9,8,12,13)         -156.3012         estimate D2E/DX2                !
 ! D44   D(9,8,12,14)          -44.5142         estimate D2E/DX2                !
 ! D45   D(9,8,12,15)           81.6957         estimate D2E/DX2                !
 ! D46   D(10,8,12,13)         -39.1264         estimate D2E/DX2                !
 ! D47   D(10,8,12,14)          72.6606         estimate D2E/DX2                !
 ! D48   D(10,8,12,15)        -161.1295         estimate D2E/DX2                !
 ! D49   D(8,12,14,24)          69.9211         Frozen                          !
 ! D50   D(13,12,14,24)       -176.7756         estimate D2E/DX2                !
 ! D51   D(15,12,14,24)        -60.6292         estimate D2E/DX2                !
 ! D52   D(8,12,15,5)           36.7169         estimate D2E/DX2                !
 ! D53   D(8,12,15,16)         -87.806          estimate D2E/DX2                !
 ! D54   D(8,12,15,17)         156.7777         estimate D2E/DX2                !
 ! D55   D(13,12,15,5)         -84.219          estimate D2E/DX2                !
 ! D56   D(13,12,15,16)        151.258          estimate D2E/DX2                !
 ! D57   D(13,12,15,17)         35.8418         estimate D2E/DX2                !
 ! D58   D(14,12,15,5)         162.4156         estimate D2E/DX2                !
 ! D59   D(14,12,15,16)         37.8926         estimate D2E/DX2                !
 ! D60   D(14,12,15,17)        -77.5236         estimate D2E/DX2                !
 ! D61   D(12,14,24,25)        119.9125         estimate D2E/DX2                !
 ! D62   D(12,14,24,28)          0.0098         Frozen                          !
 ! D63   D(12,14,24,29)       -122.0796         estimate D2E/DX2                !
 ! D64   D(5,15,17,18)        -163.1547         estimate D2E/DX2                !
 ! D65   D(12,15,17,18)         75.742          estimate D2E/DX2                !
 ! D66   D(16,15,17,18)        -43.6879         estimate D2E/DX2                !
 ! D67   D(5,19,22,23)         -52.1529         estimate D2E/DX2                !
 ! D68   D(20,19,22,23)       -173.55           estimate D2E/DX2                !
 ! D69   D(21,19,22,23)         69.5003         estimate D2E/DX2                !
 ! D70   D(14,24,28,26)        175.1297         estimate D2E/DX2                !
 ! D71   D(25,24,28,26)         56.0977         estimate D2E/DX2                !
 ! D72   D(29,24,28,26)        -62.3391         estimate D2E/DX2                !
 ! D73   D(14,24,29,30)         63.5066         estimate D2E/DX2                !
 ! D74   D(14,24,29,31)        -56.2142         estimate D2E/DX2                !
 ! D75   D(14,24,29,33)       -175.5275         estimate D2E/DX2                !
 ! D76   D(25,24,29,30)        179.7879         estimate D2E/DX2                !
 ! D77   D(25,24,29,31)         60.0671         estimate D2E/DX2                !
 ! D78   D(25,24,29,33)        -59.2461         estimate D2E/DX2                !
 ! D79   D(28,24,29,30)        -62.5132         estimate D2E/DX2                !
 ! D80   D(28,24,29,31)        177.7661         estimate D2E/DX2                !
 ! D81   D(28,24,29,33)         58.4528         estimate D2E/DX2                !
 ! D82   D(27,26,28,24)        -62.9823         estimate D2E/DX2                !
 ! D83   D(37,26,28,24)         59.652          estimate D2E/DX2                !
 ! D84   D(41,26,28,24)       -179.4593         estimate D2E/DX2                !
 ! D85   D(27,26,37,33)         67.6244         estimate D2E/DX2                !
 ! D86   D(27,26,37,38)       -172.3278         estimate D2E/DX2                !
 ! D87   D(27,26,37,39)        -54.8864         estimate D2E/DX2                !
 ! D88   D(28,26,37,33)        -52.8613         estimate D2E/DX2                !
 ! D89   D(28,26,37,38)         67.1865         estimate D2E/DX2                !
 ! D90   D(28,26,37,39)       -175.3721         estimate D2E/DX2                !
 ! D91   D(41,26,37,33)       -172.4005         estimate D2E/DX2                !
 ! D92   D(41,26,37,38)        -52.3528         estimate D2E/DX2                !
 ! D93   D(41,26,37,39)         65.0886         estimate D2E/DX2                !
 ! D94   D(27,26,41,42)         54.2672         estimate D2E/DX2                !
 ! D95   D(27,26,41,43)        174.7291         estimate D2E/DX2                !
 ! D96   D(27,26,41,44)        -64.3166         estimate D2E/DX2                !
 ! D97   D(28,26,41,42)        170.9952         estimate D2E/DX2                !
 ! D98   D(28,26,41,43)        -68.543          estimate D2E/DX2                !
 ! D99   D(28,26,41,44)         52.4113         estimate D2E/DX2                !
 ! D100  D(37,26,41,42)        -68.0971         estimate D2E/DX2                !
 ! D101  D(37,26,41,43)         52.3647         estimate D2E/DX2                !
 ! D102  D(37,26,41,44)        173.319          estimate D2E/DX2                !
 ! D103  D(24,29,31,32)         73.1713         estimate D2E/DX2                !
 ! D104  D(30,29,31,32)        -49.3363         estimate D2E/DX2                !
 ! D105  D(33,29,31,32)       -166.7962         estimate D2E/DX2                !
 ! D106  D(24,29,33,34)         67.8544         estimate D2E/DX2                !
 ! D107  D(24,29,33,35)       -175.2125         estimate D2E/DX2                !
 ! D108  D(24,29,33,37)        -55.9576         estimate D2E/DX2                !
 ! D109  D(30,29,33,34)       -170.0459         estimate D2E/DX2                !
 ! D110  D(30,29,33,35)        -53.1127         estimate D2E/DX2                !
 ! D111  D(30,29,33,37)         66.1422         estimate D2E/DX2                !
 ! D112  D(31,29,33,34)        -54.5677         estimate D2E/DX2                !
 ! D113  D(31,29,33,35)         62.3655         estimate D2E/DX2                !
 ! D114  D(31,29,33,37)       -178.3796         estimate D2E/DX2                !
 ! D115  D(29,33,35,36)        -60.6331         estimate D2E/DX2                !
 ! D116  D(34,33,35,36)         59.5571         estimate D2E/DX2                !
 ! D117  D(37,33,35,36)        178.4825         estimate D2E/DX2                !
 ! D118  D(29,33,37,26)         53.0725         estimate D2E/DX2                !
 ! D119  D(29,33,37,38)        -67.7815         estimate D2E/DX2                !
 ! D120  D(29,33,37,39)        174.4754         estimate D2E/DX2                !
 ! D121  D(34,33,37,26)        -70.9684         estimate D2E/DX2                !
 ! D122  D(34,33,37,38)        168.1776         estimate D2E/DX2                !
 ! D123  D(34,33,37,39)         50.4344         estimate D2E/DX2                !
 ! D124  D(35,33,37,26)        173.2347         estimate D2E/DX2                !
 ! D125  D(35,33,37,38)         52.3808         estimate D2E/DX2                !
 ! D126  D(35,33,37,39)        -65.3624         estimate D2E/DX2                !
 ! D127  D(26,37,39,40)       -155.3872         estimate D2E/DX2                !
 ! D128  D(33,37,39,40)         82.626          estimate D2E/DX2                !
 ! D129  D(38,37,39,40)        -36.0954         estimate D2E/DX2                !
 ! D130  D(26,41,44,45)        -88.0807         estimate D2E/DX2                !
 ! D131  D(42,41,44,45)        151.9181         estimate D2E/DX2                !
 ! D132  D(43,41,44,45)         35.0009         estimate D2E/DX2                !
 --------------------------------------------------------------------------------
 Trust Radius=3.00D-01 FncErr=1.00D-07 GrdErr=1.00D-06 EigMax=2.50D+02 EigMin=1.00D-04
 Number of steps in this run=    270 maximum allowed number of steps=    270.
 GradGradGradGradGradGradGradGradGradGradGradGradGradGradGradGradGradGrad

 Leave Link  103 at Fri Apr 14 15:52:35 2023, MaxMem=   524288000 cpu:               0.2 elap:               0.1
 (Enter /dragofs/sw/campus/0.2/software/gaussian/16.gaussian/gaussian/g16_legacy/l202.exe)
                          Input orientation:                          
 ---------------------------------------------------------------------
 Center     Atomic      Atomic             Coordinates (Angstroms)
 Number     Number       Type             X           Y           Z
 ---------------------------------------------------------------------
      1          6           0        0.245600    1.106900   -0.723700
      2          1           0       -0.640900    1.398600   -0.148200
      3          8           0        0.051500    1.602800   -2.054800
      4          1           0        0.896300    1.448400   -2.517500
      5          6           0        1.530500    1.338800    1.241600
      6          1           0        0.592300    1.594300    1.765100
      7          8           0        1.412700    1.700100   -0.154000
      8          6           0        0.380200   -0.418500   -0.803400
      9          1           0        1.131800   -0.636100   -1.581200
     10          8           0       -0.832400   -1.033200   -1.254700
     11          1           0       -1.084600   -0.579200   -2.078900
     12          6           0        0.820900   -0.990100    0.558000
     13          1           0       -0.094600   -1.130000    1.147500
     14          8           0        1.326600   -2.335900    0.363500
     15          6           0        1.818700   -0.167400    1.392300
     16          1           0        2.855300   -0.413000    1.122400
     17          8           0        1.714000   -0.520400    2.790700
     18          1           0        2.157900   -1.386300    2.889400
     19          6           0        2.657800    2.190200    1.865100
     20          1           0        2.769000    1.974800    2.931000
     21          1           0        3.618300    1.993800    1.382800
     22          8           0        2.347300    3.574700    1.708200
     23          1           0        2.150100    3.722600    0.759800
     24          6           0        2.555200   -2.507200   -0.311900
     25          1           0        3.230100   -3.012400    0.388900
     26          6           0        4.491300   -1.457400   -1.335100
     27          1           0        5.164200   -1.873500   -0.567100
     28          8           0        3.189000   -1.286100   -0.745800
     29          6           0        2.334200   -3.407600   -1.548500
     30          1           0        1.656800   -2.933900   -2.275000
     31          8           0        1.755200   -4.668000   -1.214900
     32          1           0        0.804200   -4.502300   -0.990200
     33          6           0        3.696800   -3.681800   -2.215400
     34          1           0        4.330600   -4.306100   -1.580100
     35          8           0        3.499200   -4.424800   -3.430700
     36          1           0        3.069800   -5.256600   -3.135300
     37          6           0        4.405300   -2.365200   -2.570000
     38          1           0        3.841300   -1.864300   -3.368400
     39          8           0        5.725100   -2.606900   -3.072800
     40          1           0        5.605900   -2.818600   -4.011400
     41          6           0        5.027100   -0.067600   -1.726900
     42          1           0        6.085700   -0.146000   -2.032000
     43          1           0        4.458200    0.372500   -2.558500
     44          8           0        4.965600    0.823600   -0.623600
     45          1           0        4.078200    1.240800   -0.640800
 ---------------------------------------------------------------------
                    Distance matrix (angstroms):
                    1          2          3          4          5
     1  C    0.000000
     2  H    1.096436   0.000000
     3  O    1.433673   2.038686   0.000000
     4  H    1.938492   2.824721   0.975509   0.000000
     5  C    2.359481   2.578778   3.622622   3.813798   0.000000
     6  H    2.559665   2.284688   3.858001   4.295854   1.104333
     7  O    1.427784   2.075623   2.339952   2.432315   1.446414
     8  C    1.533400   2.184899   2.399937   2.586467   2.931436
     9  H    2.135113   3.055480   2.530616   2.297228   3.468053
    10  O    2.454399   2.678557   2.893084   3.277408   4.176266
    11  H    2.539475   2.799315   2.460168   2.868361   4.641464
    12  C    2.524111   2.888160   3.760563   3.925642   2.528758
    13  H    2.936128   2.893285   4.212394   4.589363   2.957157
    14  O    3.768745   4.251986   4.794519   4.775589   3.783656
    15  C    2.928471   3.297746   4.259002   4.329915   1.540911
    16  H    3.539593   4.137600   4.692477   4.533361   2.199570
    17  O    4.141897   4.226730   5.545336   5.720297   2.426934
    18  H    4.788260   4.981562   6.149533   6.233917   3.245773
    19  C    3.700558   3.944798   4.743781   4.781248   1.544163
    20  H    4.525222   4.630432   5.690465   5.785348   2.189167
    21  H    4.074192   4.564976   4.969108   4.787388   2.192686
    22  O    4.052322   4.136541   4.829002   4.948039   2.425722
    23  H    3.559463   3.743677   4.101176   4.181470   2.509689
    24  C    4.308776   5.049468   5.118429   4.823214   4.272597
    25  H    5.207087   5.893220   6.113529   5.813133   4.748545
    26  C    4.997541   5.992073   5.440093   4.771349   4.819176
    27  H    5.753254   6.676923   6.359058   5.749265   5.176296
    28  O    3.793487   4.715175   4.461292   3.984079   3.686527
    29  C    5.042148   5.823368   5.529120   5.156283   5.564073
    30  H    4.552591   5.345396   4.817377   4.454405   5.535196
    31  O    5.989127   6.609295   6.552172   6.312276   6.493576
    32  H    5.643242   6.133343   6.242770   6.144262   6.294989
    33  C    6.088317   6.992812   6.421916   5.852608   6.469168
    34  H    6.835292   7.701282   7.311028   6.766639   6.904162
    35  O    6.965161   7.863029   7.078962   6.488721   7.676279
    36  H    7.367907   8.184360   7.571591   7.075507   8.063870
    37  C    5.724282   6.745031   5.913208   5.182604   6.042548
    38  H    5.362045   6.411421   5.301784   4.513429   6.070564
    39  O    7.023924   8.069899   7.137761   6.330176   7.195642
    40  H    7.412917   8.469451   7.363995   6.528350   7.841356
    41  C    5.024799   6.063684   5.258740   4.470661   4.797517
    42  H    6.114587   7.154134   6.282547   5.450476   5.802666
    43  H    4.653153   5.732648   4.602864   3.721072   4.893457
    44  O    4.729554   5.655924   5.177245   4.531714   3.942628
    45  H    3.835834   4.747364   4.283078   3.699944   3.169197
                    6          7          8          9         10
     6  H    0.000000
     7  O    2.089783   0.000000
     8  C    3.270098   2.444635   0.000000
     9  H    4.057520   2.752024   1.103279   0.000000
    10  O    4.248849   3.704449   1.432455   2.030363   0.000000
    11  H    4.723604   3.890624   1.948939   2.272305   0.974180
    12  C    2.861551   2.845057   1.540894   2.190468   2.453801
    13  H    2.876642   3.460538   2.130183   3.032128   2.514813
    14  O    4.236762   4.069953   2.435929   2.590198   2.996144
    15  C    2.178675   2.458340   2.636936   3.087590   3.845068
    16  H    3.092489   2.859280   3.136057   3.213982   4.431070
    17  O    2.604232   3.700359   3.834966   4.412012   4.807533
    18  H    3.549525   4.398121   4.211131   4.647789   5.122513
    19  C    2.152066   2.422238   4.371918   4.711012   5.683745
    20  H    2.498425   3.381159   5.037856   5.464172   6.287943
    21  H    3.076106   2.704198   4.591727   4.678071   5.993986
    22  O    2.646743   2.802747   5.111092   5.479820   6.334194
    23  H    2.822593   2.338652   4.767059   5.051285   5.964155
    24  C    4.998921   4.362524   3.055301   2.671742   3.812792
    25  H    5.483940   5.079896   4.033835   3.732420   4.808592
    26  C    5.841773   4.565368   4.273542   3.467180   5.341179
    27  H    6.194115   5.197598   5.005948   4.338180   6.094104
    28  O    4.619976   3.524608   2.940307   2.313539   4.061354
    29  C    6.247653   5.374234   3.648014   3.021266   3.968810
    30  H    6.161182   5.102174   3.181596   2.457004   3.293902
    31  O    7.032008   6.464945   4.485332   4.096220   4.461953
    32  H    6.693662   6.288026   4.109999   3.924806   3.844876
    33  C    7.302022   6.199301   4.862377   4.032087   5.334012
    34  H    7.744674   6.828055   5.596638   4.868390   6.121628
    35  O    8.466166   7.252906   5.716757   4.835233   5.916138
    36  H    8.779906   7.747890   6.006573   5.245959   6.049870
    37  C    7.000693   5.596372   4.807489   3.831881   5.562170
    38  H    6.990761   5.379165   4.544092   3.470439   5.196338
    39  O    8.209811   6.757695   6.205419   5.216064   6.984470
    40  H    8.830505   7.271940   6.584807   5.539562   7.227638
    41  C    5.884167   4.320031   4.750754   3.939262   5.957273
    42  H    6.901018   5.363944   5.842640   4.998454   7.017936
    43  H    5.927183   4.101123   4.509561   3.610724   5.627285
    44  O    5.042382   3.689427   4.754054   4.212570   6.120686
    45  H    4.250272   2.748240   4.056466   3.617786   5.446278
                   11         12         13         14         15
    11  H    0.000000
    12  C    3.279178   0.000000
    13  H    3.419523   1.097826   0.000000
    14  O    3.855541   1.450772   2.022044   0.000000
    15  C    4.544003   1.538992   2.155746   2.450099   0.000000
    16  H    5.079248   2.188693   3.035890   2.571069   1.098956
    17  O    5.616816   2.450142   2.518482   3.055719   1.446061
    18  H    5.987422   2.716610   2.858962   2.823645   1.960123
    19  C    6.101661   3.898336   4.372000   4.951008   2.546744
    20  H    6.817056   4.268121   4.584851   5.220604   2.803514
    21  H    6.381298   4.172457   4.857892   5.003715   2.812372
    22  O    6.585966   4.948763   5.330240   6.146970   3.792430
    23  H    6.084980   4.900718   5.360664   6.127041   3.954995
    24  C    4.481921   2.462948   3.323848   1.412433   2.986870
    25  H    5.534179   3.150006   3.895194   2.020299   3.330599
    26  C    5.693429   4.156204   5.225033   3.697611   4.030583
    27  H    6.558068   4.572800   5.581006   3.975802   4.235847
    28  O    4.532165   2.719450   3.793545   2.408560   2.775011
    29  C    4.468709   3.545663   4.284267   2.412373   4.406012
    30  H    3.619163   3.535955   4.246759   2.725494   4.596610
    31  O    5.052647   4.188441   4.638980   2.848462   5.201627
    32  H    4.488156   3.838327   4.092678   2.607431   5.049443
    33  C    5.701451   4.817447   5.674107   3.752335   5.375292
    34  H    6.592646   5.280655   6.091782   4.084518   5.680989
    35  O    6.134103   5.905945   6.688125   4.845580   6.649125
    36  H    6.344532   6.074622   6.736812   4.879635   6.925631
    37  C    5.793960   4.952091   5.966123   4.252608   5.217341
    38  H    5.251551   5.030274   6.035218   4.524732   5.443771
    39  O    7.174358   6.312522   7.339010   5.588238   6.414689
    40  H    7.315207   6.864332   7.871551   6.138824   7.111380
    41  C    6.143168   4.874822   5.968474   4.817536   4.475846
    42  H    7.183527   5.927792   7.019515   5.760479   5.471159
    43  H    5.644323   4.979880   6.059697   5.067587   4.781974
    44  O    6.378924   4.675920   5.706047   4.919261   3.866382
    45  H    5.659950   4.126020   5.121618   4.623062   3.349905
                   16         17         18         19         20
    16  H    0.000000
    17  O    2.024185   0.000000
    18  H    2.134472   0.978045   0.000000
    19  C    2.714270   3.015766   3.753724   0.000000
    20  H    2.996677   2.712698   3.416455   1.093117   0.000000
    21  H    2.538240   3.453946   3.978403   1.092587   1.765954
    22  O    4.062386   4.282840   5.103198   1.427539   2.057365
    23  H    4.210935   4.724171   5.534990   1.956450   2.855162
    24  C    2.555964   3.779037   3.415053   5.178361   5.536283
    25  H    2.726789   3.778527   3.169592   5.438174   5.616676
    26  C    3.131545   5.060987   4.826615   5.187291   5.739854
    27  H    3.212241   5.000958   4.606799   5.358292   5.725653
    28  O    2.088978   3.907525   3.779932   4.379913   4.932416
    29  C    4.046342   5.248736   4.879723   6.564507   7.016067
    30  H    4.397006   5.611557   5.414535   6.663245   7.241185
    31  O    4.977772   5.766205   5.270389   7.572053   7.895763
    32  H    5.039094   5.565830   5.156865   7.508537   7.822344
    33  C    4.747008   6.243956   5.804870   7.225675   7.703465
    34  H    4.963491   6.346811   5.763878   7.541192   7.889127
    35  O    6.102448   7.558908   7.139694   8.515379   9.053138
    36  H    6.452479   7.706313   7.218573   8.979342   9.443708
    37  C    4.455042   6.275626   5.984488   6.593598   7.195421
    38  H    4.821385   6.653269   6.497875   6.725263   7.454593
    39  O    5.536122   7.404258   7.054262   7.536800   8.110248
    40  H    6.301477   8.166834   7.846096   8.265145   8.900652
    41  C    3.599240   5.620531   5.592987   4.859394   5.564750
    42  H    4.522943   6.519998   6.417642   5.691724   6.334798
    43  H    4.090883   6.077980   6.169633   5.110158   5.962833
    44  O    3.005172   4.902722   5.010789   3.658847   4.334224
    45  H    2.709135   4.523987   4.801200   3.032892   3.874341
                   21         22         23         24         25
    21  H    0.000000
    22  O    2.054403   0.000000
    23  H    2.352125   0.979911   0.000000
    24  C    4.925565   6.411984   6.334276   0.000000
    25  H    5.118650   6.775675   6.831119   1.096284   0.000000
    26  C    4.478827   6.259428   6.058236   2.428477   2.642125
    27  H    4.598687   6.541773   6.493212   2.696958   2.439625
    28  O    3.933571   5.509805   5.332281   1.442587   2.066239
    29  C    6.278260   7.704465   7.496792   1.545555   2.170792
    30  H    6.442764   7.661889   7.332281   2.200672   3.094802
    31  O    7.389098   8.765683   8.628879   2.474766   2.736515
    32  H    7.466566   8.654505   8.516039   2.739802   3.163338
    33  C    6.720539   8.358982   8.128298   2.511224   2.729154
    34  H    6.998206   8.766607   8.642322   2.827794   2.600331
    35  O    8.023864   9.577430   9.260696   3.780905   4.081254
    36  H    8.560513  10.098186   9.830752   3.974368   4.181162
    37  C    5.936740   7.603997   7.296218   2.922679   3.248854
    38  H    6.124424   7.588585   7.149521   3.377805   3.976054
    39  O    6.742212   8.513499   8.217787   4.204851   4.286353
    40  H    7.497142   9.176414   8.803079   4.805210   5.004460
    41  C    3.988022   5.678696   5.369024   3.750222   4.046933
    42  H    4.725216   6.465937   6.184591   4.582405   4.715025
    43  H    4.343719   5.737135   5.249915   4.118409   4.653272
    44  O    2.685186   4.456606   4.271421   4.123277   4.330359
    45  H    2.207595   3.736429   3.440724   4.058966   4.457495
                   26         27         28         29         30
    26  C    0.000000
    27  H    1.102614   0.000000
    28  O    1.439654   2.068426   0.000000
    29  C    2.915802   3.365339   2.423999   0.000000
    30  H    3.331344   4.042676   2.720539   1.100484   0.000000
    31  O    4.220029   4.455351   3.703118   1.426583   2.034846
    32  H    4.794276   5.108738   4.011352   1.962388   2.199435
    33  C    2.520737   2.853087   2.856040   1.541629   2.173593
    34  H    2.863729   2.763802   3.334622   2.189501   3.084643
    35  O    3.765802   4.181096   4.142022   2.436103   2.636828
    36  H    4.437939   4.735771   4.635600   2.545161   2.851600
    37  C    1.535081   2.197568   2.443675   2.533676   2.822179
    38  H    2.173103   3.097972   2.763664   2.822262   2.666760
    39  O    2.421407   2.670396   3.686631   3.803001   4.158663
    40  H    3.202777   3.598821   4.342131   4.137248   4.315527
    41  C    1.540173   2.150630   2.413692   4.294082   4.458140
    42  H    2.178888   2.445271   3.368235   4.994553   5.238949
    43  H    2.201440   3.083606   2.765448   4.452037   4.342867
    44  O    2.436012   2.704992   2.760810   5.067816   5.272010
    45  H    2.816556   3.299044   2.680844   5.047086   5.095283
                   31         32         33         34         35
    31  O    0.000000
    32  H    0.991134   0.000000
    33  C    2.396539   3.246763   0.000000
    34  H    2.626219   3.580778   1.093188   0.000000
    35  O    2.830274   3.636629   1.438071   2.032249   0.000000
    36  H    2.400533   3.209886   1.928559   2.216239   0.981599
    37  C    3.763272   4.475588   1.536603   2.180040   2.409102
    38  H    4.104888   4.673206   2.157219   3.065912   2.584003
    39  O    4.843556   5.669658   2.450417   2.657078   2.896115
    40  H    5.105740   5.917670   2.759600   3.122542   2.712061
    41  C    5.668435   6.167834   3.882109   4.297854   4.921647
    42  H    6.314219   6.925095   4.271108   4.537733   5.191770
    43  H    5.875212   6.290863   4.139420   4.781511   4.969356
    44  O    6.388582   6.768815   4.943916   5.256609   6.129914
    45  H    6.374938   6.619997   5.182357   5.631526   6.341751
                   36         37         38         39         40
    36  H    0.000000
    37  C    3.234705   0.000000
    38  H    3.486724   1.098380   0.000000
    39  O    3.751724   1.432864   2.046347   0.000000
    40  H    3.625355   1.929934   2.106644   0.969534   0.000000
    41  C    5.721917   2.525157   2.707171   2.957481   3.622423
    42  H    6.035823   2.835143   3.126636   2.696169   3.360212
    43  H    5.826416   2.738235   2.457596   3.278165   3.689343
    44  O    6.846278   3.777678   4.002847   4.282961   5.015256
    45  H    7.032468   4.102687   4.139755   4.840630   5.493045
                   41         42         43         44         45
    41  C    0.000000
    42  H    1.104476   0.000000
    43  H    1.099497   1.787401   0.000000
    44  O    1.419609   2.044099   2.050557   0.000000
    45  H    1.947289   2.808684   2.139140   0.980730   0.000000
 Stoichiometry    C12H22O11
 Framework group  C1[X(C12H22O11)]
 Deg. of freedom   129
 Full point group                 C1      NOp   1
 Largest Abelian subgroup         C1      NOp   1
 Largest concise Abelian subgroup C1      NOp   1
                         Standard orientation:                         
 ---------------------------------------------------------------------
 Center     Atomic      Atomic             Coordinates (Angstroms)
 Number     Number       Type             X           Y           Z
 ---------------------------------------------------------------------
      1          6           0        2.244331   -1.070206    1.511409
      2          1           0        3.077332   -1.771422    1.382656
      3          8           0        2.029969   -0.943315    2.923276
      4          1           0        1.376830   -0.225975    3.025499
      5          6           0        2.968434    0.061150   -0.428399
      6          1           0        3.764835   -0.699094   -0.513986
      7          8           0        2.588581    0.201107    0.960211
      8          6           0        0.955366   -1.616389    0.885655
      9          1           0        0.125909   -0.990854    1.257049
     10          8           0        0.670093   -2.945253    1.338057
     11          1           0        0.699577   -2.920226    2.311469
     12          6           0        1.038589   -1.557609   -0.651866
     13          1           0        1.549001   -2.475712   -0.970912
     14          8           0       -0.297700   -1.685208   -1.202128
     15          6           0        1.757024   -0.353259   -1.285814
     16          1           0        1.062029    0.483785   -1.440876
     17          8           0        2.223191   -0.689028   -2.612856
     18          1           0        1.434881   -0.678816   -3.191678
     19          6           0        3.557243    1.407178   -0.903743
     20          1           0        3.887562    1.345960   -1.943958
     21          1           0        2.820367    2.210870   -0.834173
     22          8           0        4.677532    1.748409   -0.087420
     23          1           0        4.383774    1.695602    0.845930
     24          6           0       -1.206896   -0.618375   -1.028360
     25          1           0       -1.487982   -0.279696   -2.032415
     26          6           0       -1.579559    1.641379   -0.220810
     27          1           0       -1.755786    2.013340   -1.243721
     28          8           0       -0.687954    0.513861   -0.300488
     29          6           0       -2.463572   -1.136258   -0.292626
     30          1           0       -2.219411   -1.489455    0.720637
     31          8           0       -3.083492   -2.230506   -0.966018
     32          1           0       -2.504427   -3.023263   -0.829755
     33          6           0       -3.496696    0.004764   -0.206919
     34          1           0       -3.890226    0.258240   -1.194817
     35          8           0       -4.626887   -0.424170    0.572011
     36          1           0       -4.981293   -1.193333    0.075703
     37          6           0       -2.888748    1.241052    0.473625
     38          1           0       -2.699470    1.005854    1.529700
     39          8           0       -3.798206    2.347891    0.443766
     40          1           0       -4.397662    2.206000    1.192442
     41          6           0       -0.871959    2.757514    0.570187
     42          1           0       -1.460835    3.690065    0.511542
     43          1           0       -0.745627    2.493210    1.629941
     44          8           0        0.409544    3.026561    0.021867
     45          1           0        1.041919    2.416485    0.457460
 ---------------------------------------------------------------------
 Rotational constants (GHZ):           0.3604894           0.1838992           0.1588895
 Leave Link  202 at Fri Apr 14 15:52:36 2023, MaxMem=   524288000 cpu:               0.4 elap:               0.1
 (Enter /dragofs/sw/campus/0.2/software/gaussian/16.gaussian/gaussian/g16_legacy/l301.exe)
 Standard basis: 6-311G(d,p) (5D, 7F)
 Ernie: Thresh=  0.10000D-02 Tol=  0.10000D-05 Strict=F.
 There are   569 symmetry adapted cartesian basis functions of A   symmetry.
 There are   546 symmetry adapted basis functions of A   symmetry.
   546 basis functions,   912 primitive gaussians,   569 cartesian basis functions
    91 alpha electrons       91 beta electrons
       nuclear repulsion energy      2372.5143284312 Hartrees.
 IExCor= 4336 DFT=T Ex+Corr=M062X ExCW=0 ScaHFX=  0.540000
 ScaDFX=  1.000000  1.000000  1.000000  1.000000 ScalE2=  1.000000  1.000000
 IRadAn=      5 IRanWt=     -1 IRanGd=            0 ICorTp=0 IEmpDi=  4
 NAtoms=   45 NActive=   45 NUniq=   45 SFac= 1.00D+00 NAtFMM=   60 NAOKFM=F Big=F
 Integral buffers will be    131072 words long.
 Raffenetti 2 integral format.
 Two-electron integral symmetry is turned on.
 Leave Link  301 at Fri Apr 14 15:52:36 2023, MaxMem=   524288000 cpu:               0.6 elap:               0.1
 (Enter /dragofs/sw/campus/0.2/software/gaussian/16.gaussian/gaussian/g16_legacy/l302.exe)
 NPDir=0 NMtPBC=     1 NCelOv=     1 NCel=       1 NClECP=     1 NCelD=      1
         NCelK=      1 NCelE2=     1 NClLst=     1 CellRange=     0.0.
 One-electron integrals computed using PRISM.
 One-electron integral symmetry used in STVInt
 NBasis=   546 RedAO= T EigKep=  8.30D-04  NBF=   546
 NBsUse=   546 1.00D-06 EigRej= -1.00D+00 NBFU=   546
 Precomputing XC quadrature grid using
 IXCGrd= 4 IRadAn=           5 IRanWt=          -1 IRanGd=           0 AccXCQ= 0.00D+00.
 Generated NRdTot=       0 NPtTot=           0 NUsed=           0 NTot=          32
 NSgBfM=   566   562   562   562   566 MxSgAt=    45 MxSgA2=    45.
 Leave Link  302 at Fri Apr 14 15:52:37 2023, MaxMem=   524288000 cpu:               6.6 elap:               0.8
 (Enter /dragofs/sw/campus/0.2/software/gaussian/16.gaussian/gaussian/g16_legacy/l303.exe)
 DipDrv:  MaxL=1.
 Leave Link  303 at Fri Apr 14 15:52:37 2023, MaxMem=   524288000 cpu:               0.5 elap:               0.1
 (Enter /dragofs/sw/campus/0.2/software/gaussian/16.gaussian/gaussian/g16_legacy/l401.exe)
 ExpMin= 1.03D-01 ExpMax= 8.59D+03 ExpMxC= 1.30D+03 IAcc=3 IRadAn=         5 AccDes= 0.00D+00
 Harris functional with IExCor= 1009 and IRadAn=       5 diagonalized for initial guess.
 HarFok:  IExCor= 1009 AccDes= 0.00D+00 IRadAn=         5 IDoV= 1 UseB2=F ITyADJ=14
 ICtDFT=  3500011 ScaDFX=  1.000000  1.000000  1.000000  1.000000
 FoFCou: FMM=F IPFlag=           0 FMFlag=      100000 FMFlg1=           0
         NFxFlg=           0 DoJE=T BraDBF=F KetDBF=T FulRan=T
         wScrn=  0.000000 ICntrl=       500 IOpCl=  0 I1Cent=   200000004 NGrid=           0
         NMat0=    1 NMatS0=      1 NMatT0=    0 NMatD0=    1 NMtDS0=    0 NMtDT0=    0
 Petite list used in FoFCou.
 Harris En= -1297.08388724848    
 JPrj=0 DoOrth=F DoCkMO=F.
 Leave Link  401 at Fri Apr 14 15:52:42 2023, MaxMem=   524288000 cpu:              40.9 elap:               5.2
 (Enter /dragofs/sw/campus/0.2/software/gaussian/16.gaussian/gaussian/g16_legacy/l502.exe)
 Integral symmetry usage will be decided dynamically.
 Closed shell SCF:
 Using DIIS extrapolation, IDIIS=  1040.
 NGot=   524288000 LenX=   523630196 LenY=   523305866
 Requested convergence on RMS density matrix=1.00D-08 within 128 cycles.
 Requested convergence on MAX density matrix=1.00D-06.
 Requested convergence on             energy=1.00D-06.
 No special actions if energy rises.
 Fock matrices will be formed incrementally for  20 cycles.
 Integral accuracy reduced to 1.0D-05 until final iterations.

 Cycle   1  Pass 0  IDiag  1:
 FoFJK:  IHMeth= 1 ICntrl=       0 DoSepK=F KAlg= 0 I1Cent=           0 FoldK=F
 IRaf= 780000000 NMat=       1 IRICut=       1 DoRegI=T DoRafI=F ISym2E= 0 IDoP0=0 IntGTp=1.
 FoFCou: FMM=F IPFlag=           0 FMFlag=      100000 FMFlg1=           0
         NFxFlg=           0 DoJE=F BraDBF=F KetDBF=F FulRan=T
         wScrn=  0.000000 ICntrl=         0 IOpCl=  0 I1Cent=           0 NGrid=           0
         NMat0=    1 NMatS0=      1 NMatT0=    0 NMatD0=    1 NMtDS0=    0 NMtDT0=    0
 Symmetry not used in FoFCou.
 E= -1297.30521359113    
 DIIS: error= 1.92D-02 at cycle   1 NSaved=   1.
 NSaved= 1 IEnMin= 1 EnMin= -1297.30521359113     IErMin= 1 ErrMin= 1.92D-02
 ErrMax= 1.92D-02  0.00D+00 EMaxC= 1.00D-01 BMatC= 8.40D-01 BMatP= 8.40D-01
 IDIUse=3 WtCom= 8.08D-01 WtEn= 1.92D-01
 Coeff-Com:  0.100D+01
 Coeff-En:   0.100D+01
 Coeff:      0.100D+01
 Gap=     0.385 Goal=   None    Shift=    0.000
 GapD=    0.385 DampG=1.000 DampE=0.500 DampFc=0.5000 IDamp=-1.
 Damping current iteration by 5.00D-01
 RMSDP=2.56D-03 MaxDP=1.91D-01              OVMax= 1.08D-01

 Cycle   2  Pass 0  IDiag  1:
 RMSU=  1.28D-03    CP:  1.01D+00
 E= -1297.53944781198     Delta-E=       -0.234234220854 Rises=F Damp=T
 DIIS: error= 6.49D-03 at cycle   2 NSaved=   2.
 NSaved= 2 IEnMin= 2 EnMin= -1297.53944781198     IErMin= 2 ErrMin= 6.49D-03
 ErrMax= 6.49D-03  0.00D+00 EMaxC= 1.00D-01 BMatC= 7.01D-02 BMatP= 8.40D-01
 IDIUse=3 WtCom= 9.35D-01 WtEn= 6.49D-02
 Coeff-Com: -0.730D-01 0.107D+01
 Coeff-En:   0.000D+00 0.100D+01
 Coeff:     -0.683D-01 0.107D+01
 Gap=     0.380 Goal=   None    Shift=    0.000
 RMSDP=4.70D-04 MaxDP=1.78D-02 DE=-2.34D-01 OVMax= 5.60D-02

 Cycle   3  Pass 0  IDiag  1:
 RMSU=  4.57D-04    CP:  1.01D+00  9.14D-01
 E= -1297.77173669417     Delta-E=       -0.232288882190 Rises=F Damp=F
 DIIS: error= 4.22D-03 at cycle   3 NSaved=   3.
 NSaved= 3 IEnMin= 3 EnMin= -1297.77173669417     IErMin= 3 ErrMin= 4.22D-03
 ErrMax= 4.22D-03  0.00D+00 EMaxC= 1.00D-01 BMatC= 2.25D-02 BMatP= 7.01D-02
 IDIUse=3 WtCom= 9.58D-01 WtEn= 4.22D-02
 Coeff-Com: -0.110D+00 0.374D+00 0.736D+00
 Coeff-En:   0.000D+00 0.000D+00 0.100D+01
 Coeff:     -0.105D+00 0.358D+00 0.747D+00
 Gap=     0.361 Goal=   None    Shift=    0.000
 RMSDP=2.85D-04 MaxDP=1.51D-02 DE=-2.32D-01 OVMax= 1.49D-02

 Cycle   4  Pass 0  IDiag  1:
 RMSU=  2.04D-04    CP:  1.02D+00  1.02D+00  6.81D-01
 E= -1297.78501280753     Delta-E=       -0.013276113352 Rises=F Damp=F
 DIIS: error= 1.35D-03 at cycle   4 NSaved=   4.
 NSaved= 4 IEnMin= 4 EnMin= -1297.78501280753     IErMin= 4 ErrMin= 1.35D-03
 ErrMax= 1.35D-03  0.00D+00 EMaxC= 1.00D-01 BMatC= 3.37D-03 BMatP= 2.25D-02
 IDIUse=3 WtCom= 9.86D-01 WtEn= 1.35D-02
 Coeff-Com: -0.405D-01 0.969D-01 0.359D+00 0.585D+00
 Coeff-En:   0.000D+00 0.000D+00 0.972D-01 0.903D+00
 Coeff:     -0.400D-01 0.956D-01 0.355D+00 0.589D+00
 Gap=     0.354 Goal=   None    Shift=    0.000
 RMSDP=1.11D-04 MaxDP=5.57D-03 DE=-1.33D-02 OVMax= 5.28D-03

 Cycle   5  Pass 0  IDiag  1:
 RMSU=  3.91D-05    CP:  1.01D+00  1.00D+00  7.91D-01  5.72D-01
 E= -1297.78787918823     Delta-E=       -0.002866380702 Rises=F Damp=F
 DIIS: error= 1.82D-04 at cycle   5 NSaved=   5.
 NSaved= 5 IEnMin= 5 EnMin= -1297.78787918823     IErMin= 5 ErrMin= 1.82D-04
 ErrMax= 1.82D-04  0.00D+00 EMaxC= 1.00D-01 BMatC= 7.46D-05 BMatP= 3.37D-03
 IDIUse=3 WtCom= 9.98D-01 WtEn= 1.82D-03
 Coeff-Com: -0.100D-01 0.204D-01 0.100D+00 0.215D+00 0.675D+00
 Coeff-En:   0.000D+00 0.000D+00 0.000D+00 0.000D+00 0.100D+01
 Coeff:     -0.100D-01 0.203D-01 0.998D-01 0.214D+00 0.676D+00
 Gap=     0.352 Goal=   None    Shift=    0.000
 RMSDP=1.95D-05 MaxDP=9.17D-04 DE=-2.87D-03 OVMax= 1.18D-03

 Cycle   6  Pass 0  IDiag  1:
 RMSU=  1.34D-05    CP:  1.01D+00  1.00D+00  7.94D-01  6.18D-01  7.41D-01
 E= -1297.78792331148     Delta-E=       -0.000044123251 Rises=F Damp=F
 DIIS: error= 1.09D-04 at cycle   6 NSaved=   6.
 NSaved= 6 IEnMin= 6 EnMin= -1297.78792331148     IErMin= 6 ErrMin= 1.09D-04
 ErrMax= 1.09D-04  0.00D+00 EMaxC= 1.00D-01 BMatC= 1.56D-05 BMatP= 7.46D-05
 IDIUse=3 WtCom= 9.99D-01 WtEn= 1.09D-03
 Coeff-Com: -0.129D-02 0.110D-02 0.174D-01 0.555D-01 0.350D+00 0.577D+00
 Coeff-En:   0.000D+00 0.000D+00 0.000D+00 0.000D+00 0.891D-01 0.911D+00
 Coeff:     -0.129D-02 0.110D-02 0.174D-01 0.555D-01 0.350D+00 0.577D+00
 Gap=     0.353 Goal=   None    Shift=    0.000
 RMSDP=6.06D-06 MaxDP=4.05D-04 DE=-4.41D-05 OVMax= 3.97D-04

 Initial convergence to 1.0D-05 achieved.  Increase integral accuracy.
 Cycle   7  Pass 1  IDiag  1:
 E= -1297.78796995254     Delta-E=       -0.000046641065 Rises=F Damp=F
 DIIS: error= 2.68D-05 at cycle   1 NSaved=   1.
 NSaved= 1 IEnMin= 1 EnMin= -1297.78796995254     IErMin= 1 ErrMin= 2.68D-05
 ErrMax= 2.68D-05  0.00D+00 EMaxC= 1.00D-01 BMatC= 9.32D-07 BMatP= 9.32D-07
 IDIUse=1 WtCom= 1.00D+00 WtEn= 0.00D+00
 Coeff-Com:  0.100D+01
 Coeff:      0.100D+01
 Gap=     0.353 Goal=   None    Shift=    0.000
 RMSDP=6.06D-06 MaxDP=4.05D-04 DE=-4.66D-05 OVMax= 1.37D-04

 Cycle   8  Pass 1  IDiag  1:
 RMSU=  1.04D-05    CP:  1.00D+00
 E= -1297.78797067601     Delta-E=       -0.000000723467 Rises=F Damp=F
 DIIS: error= 1.39D-05 at cycle   2 NSaved=   2.
 NSaved= 2 IEnMin= 2 EnMin= -1297.78797067601     IErMin= 2 ErrMin= 1.39D-05
 ErrMax= 1.39D-05  0.00D+00 EMaxC= 1.00D-01 BMatC= 2.81D-07 BMatP= 9.32D-07
 IDIUse=1 WtCom= 1.00D+00 WtEn= 0.00D+00
 Coeff-Com:  0.295D+00 0.705D+00
 Coeff:      0.295D+00 0.705D+00
 Gap=     0.353 Goal=   None    Shift=    0.000
 RMSDP=1.14D-06 MaxDP=9.66D-05 DE=-7.23D-07 OVMax= 7.24D-05

 Cycle   9  Pass 1  IDiag  1:
 RMSU=  1.13D-06    CP:  1.00D+00  1.01D+00
 E= -1297.78797080779     Delta-E=       -0.000000131783 Rises=F Damp=F
 DIIS: error= 8.96D-06 at cycle   3 NSaved=   3.
 NSaved= 3 IEnMin= 3 EnMin= -1297.78797080779     IErMin= 3 ErrMin= 8.96D-06
 ErrMax= 8.96D-06  0.00D+00 EMaxC= 1.00D-01 BMatC= 1.04D-07 BMatP= 2.81D-07
 IDIUse=1 WtCom= 1.00D+00 WtEn= 0.00D+00
 Coeff-Com: -0.248D-01 0.372D+00 0.653D+00
 Coeff:     -0.248D-01 0.372D+00 0.653D+00
 Gap=     0.353 Goal=   None    Shift=    0.000
 RMSDP=5.33D-07 MaxDP=3.89D-05 DE=-1.32D-07 OVMax= 3.15D-05

 Cycle  10  Pass 1  IDiag  1:
 RMSU=  3.03D-07    CP:  1.00D+00  1.04D+00  6.68D-01
 E= -1297.78797087945     Delta-E=       -0.000000071661 Rises=F Damp=F
 DIIS: error= 1.10D-06 at cycle   4 NSaved=   4.
 NSaved= 4 IEnMin= 4 EnMin= -1297.78797087945     IErMin= 4 ErrMin= 1.10D-06
 ErrMax= 1.10D-06  0.00D+00 EMaxC= 1.00D-01 BMatC= 2.30D-09 BMatP= 1.04D-07
 IDIUse=1 WtCom= 1.00D+00 WtEn= 0.00D+00
 Coeff-Com: -0.175D-01 0.124D+00 0.261D+00 0.633D+00
 Coeff:     -0.175D-01 0.124D+00 0.261D+00 0.633D+00
 Gap=     0.353 Goal=   None    Shift=    0.000
 RMSDP=1.05D-07 MaxDP=4.84D-06 DE=-7.17D-08 OVMax= 5.99D-06

 Cycle  11  Pass 1  IDiag  1:
 RMSU=  9.50D-08    CP:  1.00D+00  1.04D+00  6.88D-01  8.83D-01
 E= -1297.78797088121     Delta-E=       -0.000000001753 Rises=F Damp=F
 DIIS: error= 3.74D-07 at cycle   5 NSaved=   5.
 NSaved= 5 IEnMin= 5 EnMin= -1297.78797088121     IErMin= 5 ErrMin= 3.74D-07
 ErrMax= 3.74D-07  0.00D+00 EMaxC= 1.00D-01 BMatC= 2.14D-10 BMatP= 2.30D-09
 IDIUse=1 WtCom= 1.00D+00 WtEn= 0.00D+00
 Coeff-Com: -0.216D-02-0.136D-01-0.624D-02 0.211D+00 0.811D+00
 Coeff:     -0.216D-02-0.136D-01-0.624D-02 0.211D+00 0.811D+00
 Gap=     0.353 Goal=   None    Shift=    0.000
 RMSDP=3.34D-08 MaxDP=1.40D-06 DE=-1.75D-09 OVMax= 1.98D-06

 Cycle  12  Pass 1  IDiag  1:
 RMSU=  2.04D-08    CP:  1.00D+00  1.04D+00  6.93D-01  9.67D-01  9.62D-01
 E= -1297.78797088129     Delta-E=       -0.000000000080 Rises=F Damp=F
 DIIS: error= 1.20D-07 at cycle   6 NSaved=   6.
 NSaved= 6 IEnMin= 6 EnMin= -1297.78797088129     IErMin= 6 ErrMin= 1.20D-07
 ErrMax= 1.20D-07  0.00D+00 EMaxC= 1.00D-01 BMatC= 3.34D-11 BMatP= 2.14D-10
 IDIUse=1 WtCom= 1.00D+00 WtEn= 0.00D+00
 Coeff-Com:  0.692D-03-0.178D-01-0.274D-01 0.401D-01 0.366D+00 0.638D+00
 Coeff:      0.692D-03-0.178D-01-0.274D-01 0.401D-01 0.366D+00 0.638D+00
 Gap=     0.353 Goal=   None    Shift=    0.000
 RMSDP=1.24D-08 MaxDP=5.28D-07 DE=-8.05D-11 OVMax= 6.33D-07

 Cycle  13  Pass 1  IDiag  1:
 RMSU=  8.68D-09    CP:  1.00D+00  1.04D+00  6.95D-01  9.83D-01  1.03D+00
                    CP:  8.63D-01
 E= -1297.78797088144     Delta-E=       -0.000000000150 Rises=F Damp=F
 DIIS: error= 3.57D-08 at cycle   7 NSaved=   7.
 NSaved= 7 IEnMin= 7 EnMin= -1297.78797088144     IErMin= 7 ErrMin= 3.57D-08
 ErrMax= 3.57D-08  0.00D+00 EMaxC= 1.00D-01 BMatC= 2.58D-12 BMatP= 3.34D-11
 IDIUse=1 WtCom= 1.00D+00 WtEn= 0.00D+00
 Coeff-Com:  0.497D-03-0.606D-02-0.110D-01-0.460D-02 0.707D-01 0.261D+00
 Coeff-Com:  0.689D+00
 Coeff:      0.497D-03-0.606D-02-0.110D-01-0.460D-02 0.707D-01 0.261D+00
 Coeff:      0.689D+00
 Gap=     0.353 Goal=   None    Shift=    0.000
 RMSDP=3.45D-09 MaxDP=1.76D-07 DE=-1.50D-10 OVMax= 2.14D-07

 SCF Done:  E(RM062X) =  -1297.78797088     A.U. after   13 cycles
            NFock= 13  Conv=0.35D-08     -V/T= 2.0037
 KE= 1.292972739018D+03 PE=-7.792028944465D+03 EE= 2.828753906135D+03
 Leave Link  502 at Fri Apr 14 15:56:41 2023, MaxMem=   524288000 cpu:            1703.9 elap:             239.4
 (Enter /dragofs/sw/campus/0.2/software/gaussian/16.gaussian/gaussian/g16_legacy/l601.exe)
 Copying SCF densities to generalized density rwf, IOpCl= 0 IROHF=0.

 **********************************************************************

            Population analysis using the SCF density.

 **********************************************************************

 Orbital symmetries:
       Occupied  (A) (A) (A) (A) (A) (A) (A) (A) (A) (A) (A) (A)
                 (A) (A) (A) (A) (A) (A) (A) (A) (A) (A) (A) (A)
                 (A) (A) (A) (A) (A) (A) (A) (A) (A) (A) (A) (A)
                 (A) (A) (A) (A) (A) (A) (A) (A) (A) (A) (A) (A)
                 (A) (A) (A) (A) (A) (A) (A) (A) (A) (A) (A) (A)
                 (A) (A) (A) (A) (A) (A) (A) (A) (A) (A) (A) (A)
                 (A) (A) (A) (A) (A) (A) (A) (A) (A) (A) (A) (A)
                 (A) (A) (A) (A) (A) (A) (A)
       Virtual   (A) (A) (A) (A) (A) (A) (A) (A) (A) (A) (A) (A)
                 (A) (A) (A) (A) (A) (A) (A) (A) (A) (A) (A) (A)
                 (A) (A) (A) (A) (A) (A) (A) (A) (A) (A) (A) (A)
                 (A) (A) (A) (A) (A) (A) (A) (A) (A) (A) (A) (A)
                 (A) (A) (A) (A) (A) (A) (A) (A) (A) (A) (A) (A)
                 (A) (A) (A) (A) (A) (A) (A) (A) (A) (A) (A) (A)
                 (A) (A) (A) (A) (A) (A) (A) (A) (A) (A) (A) (A)
                 (A) (A) (A) (A) (A) (A) (A) (A) (A) (A) (A) (A)
                 (A) (A) (A) (A) (A) (A) (A) (A) (A) (A) (A) (A)
                 (A) (A) (A) (A) (A) (A) (A) (A) (A) (A) (A) (A)
                 (A) (A) (A) (A) (A) (A) (A) (A) (A) (A) (A) (A)
                 (A) (A) (A) (A) (A) (A) (A) (A) (A) (A) (A) (A)
                 (A) (A) (A) (A) (A) (A) (A) (A) (A) (A) (A) (A)
                 (A) (A) (A) (A) (A) (A) (A) (A) (A) (A) (A) (A)
                 (A) (A) (A) (A) (A) (A) (A) (A) (A) (A) (A) (A)
                 (A) (A) (A) (A) (A) (A) (A) (A) (A) (A) (A) (A)
                 (A) (A) (A) (A) (A) (A) (A) (A) (A) (A) (A) (A)
                 (A) (A) (A) (A) (A) (A) (A) (A) (A) (A) (A) (A)
                 (A) (A) (A) (A) (A) (A) (A) (A) (A) (A) (A) (A)
                 (A) (A) (A) (A) (A) (A) (A) (A) (A) (A) (A) (A)
                 (A) (A) (A) (A) (A) (A) (A) (A) (A) (A) (A) (A)
                 (A) (A) (A) (A) (A) (A) (A) (A) (A) (A) (A) (A)
                 (A) (A) (A) (A) (A) (A) (A) (A) (A) (A) (A) (A)
                 (A) (A) (A) (A) (A) (A) (A) (A) (A) (A) (A) (A)
                 (A) (A) (A) (A) (A) (A) (A) (A) (A) (A) (A) (A)
                 (A) (A) (A) (A) (A) (A) (A) (A) (A) (A) (A) (A)
                 (A) (A) (A) (A) (A) (A) (A) (A) (A) (A) (A) (A)
                 (A) (A) (A) (A) (A) (A) (A) (A) (A) (A) (A) (A)
                 (A) (A) (A) (A) (A) (A) (A) (A) (A) (A) (A) (A)
                 (A) (A) (A) (A) (A) (A) (A) (A) (A) (A) (A) (A)
                 (A) (A) (A) (A) (A) (A) (A) (A) (A) (A) (A) (A)
                 (A) (A) (A) (A) (A) (A) (A) (A) (A) (A) (A) (A)
                 (A) (A) (A) (A) (A) (A) (A) (A) (A) (A) (A) (A)
                 (A) (A) (A) (A) (A) (A) (A) (A) (A) (A) (A) (A)
                 (A) (A) (A) (A) (A) (A) (A) (A) (A) (A) (A) (A)
                 (A) (A) (A) (A) (A) (A) (A) (A) (A) (A) (A) (A)
                 (A) (A) (A) (A) (A) (A) (A) (A) (A) (A) (A) (A)
                 (A) (A) (A) (A) (A) (A) (A) (A) (A) (A) (A)
 The electronic state is 1-A.
 Alpha  occ. eigenvalues --  -19.66321 -19.66057 -19.65205 -19.65162 -19.63836
 Alpha  occ. eigenvalues --  -19.63512 -19.63356 -19.63097 -19.62738 -19.62641
 Alpha  occ. eigenvalues --  -19.60956 -10.66825 -10.66523 -10.61926 -10.61822
 Alpha  occ. eigenvalues --  -10.61569 -10.61394 -10.61047 -10.61014 -10.60747
 Alpha  occ. eigenvalues --  -10.60684 -10.60304 -10.58982  -1.22053  -1.21440
 Alpha  occ. eigenvalues --   -1.17157  -1.16768  -1.16124  -1.15724  -1.14921
 Alpha  occ. eigenvalues --   -1.14523  -1.14247  -1.13698  -1.12930  -0.90903
 Alpha  occ. eigenvalues --   -0.89969  -0.88063  -0.87226  -0.80391  -0.78206
 Alpha  occ. eigenvalues --   -0.76004  -0.73850  -0.71848  -0.70876  -0.69059
 Alpha  occ. eigenvalues --   -0.68824  -0.64324  -0.63157  -0.62560  -0.62058
 Alpha  occ. eigenvalues --   -0.60991  -0.60268  -0.59146  -0.58598  -0.57857
 Alpha  occ. eigenvalues --   -0.57536  -0.56993  -0.55294  -0.55021  -0.53787
 Alpha  occ. eigenvalues --   -0.53520  -0.52944  -0.52286  -0.51336  -0.50326
 Alpha  occ. eigenvalues --   -0.50167  -0.49124  -0.48661  -0.47340  -0.46921
 Alpha  occ. eigenvalues --   -0.46485  -0.46394  -0.44298  -0.43898  -0.43586
 Alpha  occ. eigenvalues --   -0.43159  -0.42699  -0.42126  -0.41659  -0.40891
 Alpha  occ. eigenvalues --   -0.40146  -0.39326  -0.38710  -0.37707  -0.37329
 Alpha  occ. eigenvalues --   -0.36671  -0.35808  -0.35244  -0.34683  -0.33957
 Alpha  occ. eigenvalues --   -0.32833
 Alpha virt. eigenvalues --    0.02458   0.04313   0.05106   0.06302   0.06581
 Alpha virt. eigenvalues --    0.07768   0.08298   0.08643   0.09521   0.10215
 Alpha virt. eigenvalues --    0.10715   0.11970   0.12239   0.12868   0.13305
 Alpha virt. eigenvalues --    0.14086   0.14251   0.14795   0.15792   0.15957
 Alpha virt. eigenvalues --    0.16797   0.16935   0.17777   0.18230   0.18802
 Alpha virt. eigenvalues --    0.19669   0.21200   0.21833   0.22419   0.22815
 Alpha virt. eigenvalues --    0.23190   0.23604   0.24820   0.25285   0.26077
 Alpha virt. eigenvalues --    0.26969   0.28516   0.29251   0.29988   0.30203
 Alpha virt. eigenvalues --    0.30923   0.31984   0.32727   0.33676   0.34618
 Alpha virt. eigenvalues --    0.36374   0.38598   0.39168   0.40349   0.40688
 Alpha virt. eigenvalues --    0.41485   0.42198   0.42289   0.42764   0.43217
 Alpha virt. eigenvalues --    0.43940   0.44855   0.45514   0.46214   0.47029
 Alpha virt. eigenvalues --    0.47672   0.48277   0.49188   0.49611   0.50262
 Alpha virt. eigenvalues --    0.51156   0.52240   0.52471   0.52882   0.53157
 Alpha virt. eigenvalues --    0.53921   0.54414   0.55122   0.55552   0.56244
 Alpha virt. eigenvalues --    0.56520   0.57055   0.58128   0.58226   0.58890
 Alpha virt. eigenvalues --    0.59779   0.60390   0.61033   0.61596   0.62158
 Alpha virt. eigenvalues --    0.62266   0.62954   0.63569   0.64058   0.64880
 Alpha virt. eigenvalues --    0.64982   0.65609   0.65755   0.66110   0.66991
 Alpha virt. eigenvalues --    0.67454   0.68949   0.69308   0.70384   0.71563
 Alpha virt. eigenvalues --    0.72699   0.73497   0.75589   0.77813   0.79180
 Alpha virt. eigenvalues --    0.81391   0.83120   0.84346   0.84592   0.85333
 Alpha virt. eigenvalues --    0.86468   0.87817   0.89390   0.89669   0.90453
 Alpha virt. eigenvalues --    0.90895   0.91397   0.92118   0.93071   0.94069
 Alpha virt. eigenvalues --    0.94632   0.96764   0.97170   0.97966   0.98410
 Alpha virt. eigenvalues --    0.98881   0.99448   1.00380   1.01747   1.03303
 Alpha virt. eigenvalues --    1.04015   1.05240   1.05558   1.07044   1.07871
 Alpha virt. eigenvalues --    1.08281   1.09048   1.09945   1.11431   1.11903
 Alpha virt. eigenvalues --    1.12969   1.13608   1.14908   1.15901   1.16875
 Alpha virt. eigenvalues --    1.18143   1.19189   1.20008   1.21553   1.22920
 Alpha virt. eigenvalues --    1.23818   1.25012   1.25356   1.27317   1.28293
 Alpha virt. eigenvalues --    1.29704   1.31377   1.32786   1.33081   1.34716
 Alpha virt. eigenvalues --    1.36260   1.38332   1.38732   1.39106   1.40348
 Alpha virt. eigenvalues --    1.40993   1.41338   1.42218   1.42798   1.43953
 Alpha virt. eigenvalues --    1.45137   1.45784   1.46431   1.46860   1.48883
 Alpha virt. eigenvalues --    1.49248   1.50073   1.50431   1.50856   1.51852
 Alpha virt. eigenvalues --    1.52001   1.53126   1.53656   1.54170   1.54527
 Alpha virt. eigenvalues --    1.55373   1.56539   1.56942   1.57605   1.58310
 Alpha virt. eigenvalues --    1.58584   1.59711   1.60153   1.60546   1.61806
 Alpha virt. eigenvalues --    1.62014   1.62701   1.63004   1.63756   1.64294
 Alpha virt. eigenvalues --    1.65819   1.66049   1.66703   1.66858   1.67948
 Alpha virt. eigenvalues --    1.69098   1.70644   1.71669   1.71905   1.72508
 Alpha virt. eigenvalues --    1.74003   1.74655   1.75814   1.76363   1.77800
 Alpha virt. eigenvalues --    1.78269   1.79348   1.80255   1.81431   1.81519
 Alpha virt. eigenvalues --    1.82478   1.83092   1.83822   1.85208   1.86862
 Alpha virt. eigenvalues --    1.86933   1.88762   1.88987   1.91298   1.91668
 Alpha virt. eigenvalues --    1.92178   1.94100   1.94993   1.95328   1.96490
 Alpha virt. eigenvalues --    1.97581   1.99118   1.99782   2.00487   2.01546
 Alpha virt. eigenvalues --    2.01754   2.04555   2.04799   2.05902   2.06585
 Alpha virt. eigenvalues --    2.07246   2.07968   2.08724   2.09117   2.09580
 Alpha virt. eigenvalues --    2.10673   2.12458   2.13253   2.13921   2.14510
 Alpha virt. eigenvalues --    2.15327   2.15820   2.16524   2.16809   2.18840
 Alpha virt. eigenvalues --    2.19562   2.20217   2.20890   2.21957   2.22911
 Alpha virt. eigenvalues --    2.23808   2.28821   2.29411   2.31750   2.33247
 Alpha virt. eigenvalues --    2.33985   2.35262   2.39798   2.41032   2.41507
 Alpha virt. eigenvalues --    2.44721   2.47161   2.48643   2.49881   2.50681
 Alpha virt. eigenvalues --    2.53264   2.53614   2.54115   2.54558   2.55653
 Alpha virt. eigenvalues --    2.56815   2.57195   2.59362   2.59535   2.60404
 Alpha virt. eigenvalues --    2.60984   2.62152   2.63526   2.65601   2.66700
 Alpha virt. eigenvalues --    2.68186   2.73446   2.75137   2.76055   2.77552
[...]
    31  O   -0.000000  -0.000000   0.000000   0.000000  -0.000000  -0.040289
    32  H    0.000000   0.000000  -0.000000  -0.000000   0.000000  -0.012983
    33  C    0.000000   0.000000   0.000000  -0.000000   0.000000  -0.063719
    34  H    0.000000   0.000000   0.000000   0.000000  -0.000000  -0.001191
    35  O   -0.000000  -0.000000  -0.000000   0.000000   0.000000   0.006236
    36  H    0.000000  -0.000000   0.000000  -0.000000  -0.000000   0.001756
    37  C   -0.000000   0.000000  -0.000002   0.000000   0.000000  -0.003504
    38  H    0.000000   0.000000  -0.000000   0.000000  -0.000000   0.000725
    39  O   -0.000000  -0.000000   0.000000  -0.000000  -0.000000  -0.000307
    40  H    0.000000  -0.000000  -0.000000  -0.000000   0.000000  -0.000327
    41  C   -0.000009  -0.000001   0.000053   0.000000  -0.000000   0.004724
    42  H   -0.000000  -0.000000  -0.000000   0.000000  -0.000000  -0.000161
    43  H    0.000007   0.000000  -0.000025  -0.000000   0.000000  -0.000945
    44  O   -0.000016   0.000000   0.000265  -0.000000  -0.000000  -0.000599
    45  H    0.000232  -0.000052   0.000024   0.000001   0.000003   0.000225
              25         26         27         28         29         30
     1  C    0.000081   0.000016   0.000003   0.000208   0.000041   0.000675
     2  H   -0.000002  -0.000000  -0.000000  -0.000038  -0.000001  -0.000084
     3  O   -0.000000  -0.000001  -0.000000  -0.000000   0.000001  -0.000039
     4  H   -0.000000   0.000003  -0.000000  -0.000050  -0.000004  -0.000018
     5  C   -0.000078   0.000000  -0.000009   0.000568   0.000029  -0.000028
     6  H   -0.000012   0.000001   0.000000  -0.000050  -0.000006  -0.000002
     7  O   -0.000003  -0.000003  -0.000000  -0.000047  -0.000001  -0.000028
     8  C   -0.000397   0.000322  -0.000038  -0.003352  -0.000382   0.000052
     9  H    0.000632  -0.002064   0.000350   0.012998   0.000038  -0.003694
    10  O   -0.000060   0.000024   0.000001  -0.000050  -0.000447   0.013973
    11  H   -0.000012  -0.000001  -0.000001  -0.000092   0.000116  -0.000578
    12  C    0.001886  -0.001031   0.000111  -0.007722   0.000929  -0.003639
    13  H   -0.000209   0.000034   0.000002  -0.000133  -0.000674  -0.000373
    14  O   -0.039797   0.003308  -0.000140  -0.037801  -0.050930  -0.000503
    15  C    0.000192   0.001256  -0.000046  -0.005568   0.000634   0.000170
    16  H   -0.000683  -0.003955  -0.000611   0.007132  -0.000162  -0.000188
    17  O    0.000894  -0.000036  -0.000004  -0.000242   0.000002  -0.000007
    18  H   -0.002014  -0.000006  -0.000013   0.000243   0.000375  -0.000037
    19  C    0.000004   0.000001   0.000001  -0.000004   0.000000  -0.000000
    20  H   -0.000003   0.000001   0.000001  -0.000001  -0.000000   0.000000
    21  H    0.000003  -0.000012  -0.000004  -0.000136  -0.000000   0.000000
    22  O   -0.000000   0.000000  -0.000000   0.000000  -0.000000   0.000000
    23  H    0.000000   0.000000   0.000000   0.000000   0.000000   0.000000
    24  C    0.411233  -0.074274  -0.006935   0.202751   0.212607  -0.035153
    25  H    0.558705  -0.005783   0.007992  -0.038147  -0.074585   0.009234
    26  C   -0.005783   5.414222   0.384519   0.206481  -0.008150   0.001846
    27  H    0.007992   0.384519   0.551243  -0.039082  -0.000487   0.000205
    28  O   -0.038147   0.206481  -0.039082   8.226861  -0.033266   0.000379
    29  C   -0.074585  -0.008150  -0.000487  -0.033266   5.307040   0.373879
    30  H    0.009234   0.001846   0.000205   0.000379   0.373879   0.548552
    31  O    0.009428   0.000050  -0.000104   0.001990   0.236986  -0.034265
    32  H   -0.000462  -0.000018   0.000031   0.000400  -0.039633  -0.005598
    33  C   -0.004143  -0.023995  -0.012044  -0.005112   0.198305  -0.050181
    34  H    0.006936  -0.001318   0.005253   0.000482  -0.048275   0.010850
    35  O   -0.000203   0.003014  -0.000076  -0.000069  -0.039090   0.006644
    36  H   -0.000082  -0.000834  -0.000076  -0.000046  -0.010969  -0.001654
    37  C    0.000044   0.113402  -0.055151  -0.040298  -0.059908  -0.001968
    38  H    0.000193  -0.045945   0.010284   0.002526   0.000243   0.007318
    39  O   -0.000098  -0.046861   0.008446   0.001417   0.006493  -0.000086
    40  H   -0.000011   0.010739  -0.000654  -0.000242   0.001581  -0.000053
    41  C    0.000502   0.299797  -0.034686  -0.038491  -0.001046  -0.000159
    42  H    0.000087  -0.043646  -0.006005   0.004306  -0.000003   0.000012
    43  H   -0.000029  -0.055728   0.011642  -0.003458  -0.000052  -0.000139
    44  O   -0.000091  -0.039734   0.008440  -0.003172  -0.000006   0.000007
    45  H   -0.000149  -0.002839  -0.001168   0.006095   0.000079   0.000012
              31         32         33         34         35         36
     1  C   -0.000001   0.000021   0.000008   0.000000  -0.000000  -0.000000
     2  H   -0.000000   0.000002   0.000000   0.000000  -0.000000   0.000000
     3  O    0.000000  -0.000000  -0.000000  -0.000000   0.000000   0.000000
     4  H   -0.000000  -0.000000   0.000000   0.000000   0.000000   0.000000
     5  C    0.000000  -0.000006  -0.000001  -0.000000   0.000000   0.000000
     6  H    0.000000  -0.000001  -0.000000   0.000000  -0.000000   0.000000
     7  O    0.000000  -0.000000  -0.000000  -0.000000   0.000000   0.000000
     8  C   -0.000118  -0.000117  -0.000318  -0.000001  -0.000002   0.000001
     9  H    0.000021   0.000046  -0.000404   0.000006  -0.000020  -0.000001
    10  O   -0.000019   0.001007   0.000176  -0.000003  -0.000000  -0.000003
    11  H    0.000003  -0.000034  -0.000020  -0.000001  -0.000000   0.000001
    12  C    0.000522   0.000040   0.000132  -0.000030  -0.000001  -0.000003
    13  H    0.000110  -0.000074   0.000025   0.000000  -0.000000  -0.000000
    14  O   -0.003984   0.015174   0.005661  -0.000159  -0.000022  -0.000022
    15  C   -0.000030   0.000164   0.000087   0.000002   0.000000   0.000000
    16  H   -0.000012  -0.000008  -0.000164  -0.000015   0.000001  -0.000000
    17  O    0.000000  -0.000004   0.000000  -0.000000  -0.000000   0.000000
    18  H   -0.000043  -0.000020  -0.000019  -0.000010   0.000000   0.000000
    19  C   -0.000000   0.000000   0.000000   0.000000  -0.000000   0.000000
    20  H   -0.000000   0.000000   0.000000   0.000000  -0.000000  -0.000000
    21  H    0.000000  -0.000000   0.000000   0.000000  -0.000000   0.000000
    22  O    0.000000  -0.000000  -0.000000   0.000000   0.000000  -0.000000
    23  H   -0.000000   0.000000   0.000000  -0.000000   0.000000  -0.000000
    24  C   -0.040289  -0.012983  -0.063719  -0.001191   0.006236   0.001756
    25  H    0.009428  -0.000462  -0.004143   0.006936  -0.000203  -0.000082
    26  C    0.000050  -0.000018  -0.023995  -0.001318   0.003014  -0.000834
    27  H   -0.000104   0.000031  -0.012044   0.005253  -0.000076  -0.000076
    28  O    0.001990   0.000400  -0.005112   0.000482  -0.000069  -0.000046
    29  C    0.236986  -0.039633   0.198305  -0.048275  -0.039090  -0.010969
    30  H   -0.034265  -0.005598  -0.050181   0.010850   0.006644  -0.001654
    31  O    7.971748   0.325203  -0.045183   0.002387  -0.002383   0.015814
    32  H    0.325203   0.427899   0.011022  -0.000649  -0.000474  -0.000812
    33  C   -0.045183   0.011022   5.307945   0.380795   0.242045  -0.043431
    34  H    0.002387  -0.000649   0.380795   0.568851  -0.037222  -0.004276
    35  O   -0.002383  -0.000474   0.242045  -0.037222   7.966475   0.326539
    36  H    0.015814  -0.000812  -0.043431  -0.004276   0.326539   0.429549
    37  C    0.004052  -0.000674   0.214168  -0.055389  -0.049597   0.012451
    38  H   -0.000244  -0.000023  -0.054938   0.011334   0.003542  -0.000791
    39  O   -0.000015   0.000007  -0.031023   0.006476  -0.003724  -0.000451
    40  H   -0.000020   0.000005  -0.005533  -0.001407   0.015791  -0.000884
    41  C    0.000007  -0.000001   0.006181  -0.000671  -0.000054   0.000025
    42  H    0.000000  -0.000000   0.000363   0.000018  -0.000009   0.000004
    43  H    0.000000   0.000001  -0.000419  -0.000072  -0.000001  -0.000002
    44  O   -0.000000   0.000000  -0.000158  -0.000010   0.000000  -0.000000
    45  H   -0.000000  -0.000000   0.000085   0.000001  -0.000000   0.000000
              37         38         39         40         41         42
     1  C   -0.000006  -0.000012   0.000000   0.000000  -0.000001   0.000000
     2  H    0.000000  -0.000000   0.000000  -0.000000   0.000000   0.000000
     3  O    0.000000   0.000000  -0.000000   0.000000   0.000000   0.000000
     4  H    0.000000  -0.000003  -0.000000   0.000000   0.000004  -0.000000
     5  C    0.000003   0.000001  -0.000000   0.000000  -0.000025   0.000000
     6  H   -0.000000  -0.000000   0.000000  -0.000000   0.000001  -0.000000
     7  O    0.000000  -0.000000   0.000000  -0.000000   0.000007   0.000000
     8  C    0.000088  -0.000005   0.000000  -0.000000  -0.000062  -0.000007
     9  H    0.000501   0.000796   0.000006  -0.000002   0.000153   0.000040
    10  O   -0.000045  -0.000094  -0.000000   0.000000   0.000000  -0.000000
    11  H    0.000007  -0.000007   0.000000   0.000000   0.000001  -0.000000
    12  C   -0.000010   0.000000   0.000000   0.000000   0.000093   0.000006
    13  H   -0.000002  -0.000000   0.000000   0.000000   0.000001   0.000000
    14  O   -0.000600  -0.000059   0.000000   0.000001  -0.000122   0.000003
    15  C   -0.000086  -0.000017  -0.000000  -0.000000  -0.000301  -0.000031
    16  H    0.001023  -0.000068  -0.000002   0.000002   0.002939   0.000279
    17  O    0.000000   0.000000   0.000000   0.000000  -0.000003   0.000000
    18  H    0.000002   0.000000  -0.000000  -0.000000  -0.000002  -0.000001
    19  C   -0.000000   0.000000  -0.000000   0.000000  -0.000009  -0.000000
    20  H    0.000000   0.000000  -0.000000  -0.000000  -0.000001  -0.000000
    21  H   -0.000002  -0.000000   0.000000  -0.000000   0.000053  -0.000000
    22  O    0.000000   0.000000  -0.000000  -0.000000   0.000000   0.000000
    23  H    0.000000  -0.000000  -0.000000   0.000000  -0.000000  -0.000000
    24  C   -0.003504   0.000725  -0.000307  -0.000327   0.004724  -0.000161
    25  H    0.000044   0.000193  -0.000098  -0.000011   0.000502   0.000087
    26  C    0.113402  -0.045945  -0.046861   0.010739   0.299797  -0.043646
    27  H   -0.055151   0.010284   0.008446  -0.000654  -0.034686  -0.006005
    28  O   -0.040298   0.002526   0.001417  -0.000242  -0.038491   0.004306
    29  C   -0.059908   0.000243   0.006493   0.001581  -0.001046  -0.000003
    30  H   -0.001968   0.007318  -0.000086  -0.000053  -0.000159   0.000012
    31  O    0.004052  -0.000244  -0.000015  -0.000020   0.000007   0.000000
    32  H   -0.000674  -0.000023   0.000007   0.000005  -0.000001  -0.000000
    33  C    0.214168  -0.054938  -0.031023  -0.005533   0.006181   0.000363
    34  H   -0.055389   0.011334   0.006476  -0.001407  -0.000671   0.000018
    35  O   -0.049597   0.003542  -0.003724   0.015791  -0.000054  -0.000009
    36  H    0.012451  -0.000791  -0.000451  -0.000884   0.000025   0.000004
    37  C    5.366122   0.379615   0.222927  -0.046474  -0.047568  -0.003155
    38  H    0.379615   0.575865  -0.033657  -0.003791  -0.010654  -0.000012
    39  O    0.222927  -0.033657   7.964166   0.322306  -0.003838   0.014325
    40  H   -0.046474  -0.003791   0.322306   0.434476  -0.000239  -0.000339
    41  C   -0.047568  -0.010654  -0.003838  -0.000239   4.817968   0.405709
    42  H   -0.003155  -0.000012   0.014325  -0.000339   0.405709   0.523405
    43  H   -0.001153   0.006199  -0.000368  -0.000104   0.393055  -0.035805
    44  O    0.005542  -0.000001   0.000005   0.000010   0.273466  -0.029949
    45  H   -0.000678  -0.000049  -0.000022  -0.000001  -0.049648   0.006108
              43         44         45
     1  C    0.000023   0.000002  -0.000039
     2  H   -0.000001   0.000000  -0.000013
     3  O   -0.000004  -0.000000   0.000002
     4  H   -0.000015  -0.000000  -0.000013
     5  C   -0.000004  -0.000007   0.000756
     6  H    0.000000  -0.000001  -0.000049
     7  O   -0.000000   0.000001  -0.000388
     8  C    0.000011  -0.000031   0.000234
     9  H    0.000905  -0.000070  -0.000615
    10  O   -0.000000  -0.000000   0.000001
    11  H   -0.000004  -0.000000   0.000001
    12  C   -0.000111   0.000015   0.000071
    13  H    0.000000  -0.000001  -0.000032
    14  O   -0.000001   0.000001   0.000028
    15  C    0.000154  -0.000942   0.000638
    16  H   -0.000970   0.002692   0.005316
    17  O   -0.000001   0.000005   0.000056
    18  H    0.000003  -0.000000   0.000103
    19  C    0.000007  -0.000016   0.000232
    20  H    0.000000   0.000000  -0.000052
    21  H   -0.000025   0.000265   0.000024
    22  O   -0.000000  -0.000000   0.000001
    23  H    0.000000  -0.000000   0.000003
    24  C   -0.000945  -0.000599   0.000225
    25  H   -0.000029  -0.000091  -0.000149
    26  C   -0.055728  -0.039734  -0.002839
    27  H    0.011642   0.008440  -0.001168
    28  O   -0.003458  -0.003172   0.006095
    29  C   -0.000052  -0.000006   0.000079
    30  H   -0.000139   0.000007   0.000012
    31  O    0.000000  -0.000000  -0.000000
    32  H    0.000001   0.000000  -0.000000
    33  C   -0.000419  -0.000158   0.000085
    34  H   -0.000072  -0.000010   0.000001
    35  O   -0.000001   0.000000  -0.000000
    36  H   -0.000002  -0.000000   0.000000
    37  C   -0.001153   0.005542  -0.000678
    38  H    0.006199  -0.000001  -0.000049
    39  O   -0.000368   0.000005  -0.000022
    40  H   -0.000104   0.000010  -0.000001
    41  C    0.393055   0.273466  -0.049648
    42  H   -0.035805  -0.029949   0.006108
    43  H    0.602035  -0.035951  -0.003487
    44  O   -0.035951   7.880639   0.334826
    45  H   -0.003487   0.334826   0.444665
 Mulliken charges:
               1
     1  C    0.201051
     2  H    0.155460
     3  O   -0.400155
     4  H    0.255855
     5  C   -0.087126
     6  H    0.166811
     7  O   -0.404605
     8  C    0.007355
     9  H    0.149018
    10  O   -0.413541
    11  H    0.264751
    12  C   -0.049139
    13  H    0.185542
    14  O   -0.421297
    15  C    0.050910
    16  H    0.137398
    17  O   -0.415707
    18  H    0.268957
    19  C   -0.001080
    20  H    0.158835
    21  H    0.122452
    22  O   -0.411806
    23  H    0.255865
    24  C    0.209274
    25  H    0.159009
    26  C   -0.082800
    27  H    0.168812
    28  O   -0.418170
    29  C    0.028699
    30  H    0.164666
    31  O   -0.441613
    32  H    0.280571
    33  C   -0.026195
    34  H    0.157308
    35  O   -0.437339
    36  H    0.278199
    37  C    0.046321
    38  H    0.151728
    39  O   -0.426122
    40  H    0.275172
    41  C   -0.017103
    42  H    0.164460
    43  H    0.124812
    44  O   -0.395176
    45  H    0.259682
 Sum of Mulliken charges =  -0.00000
 Mulliken charges with hydrogens summed into heavy atoms:
               1
     1  C    0.356511
     3  O   -0.144300
     5  C    0.079686
     7  O   -0.404605
     8  C    0.156374
    10  O   -0.148790
    12  C    0.136402
    14  O   -0.421297
    15  C    0.188309
    17  O   -0.146750
    19  C    0.280207
    22  O   -0.155941
    24  C    0.368283
    26  C    0.086012
    28  O   -0.418170
    29  C    0.193366
    31  O   -0.161042
    33  C    0.131113
    35  O   -0.159141
    37  C    0.198049
    39  O   -0.150950
    41  C    0.272168
    44  O   -0.135494
 Electronic spatial extent (au):  <R**2>=           7876.1856
 Charge=              0.0000 electrons
 Dipole moment (field-independent basis, Debye):
    X=             -2.2888    Y=             -2.6116    Z=              1.0605  Tot=              3.6310
 Quadrupole moment (field-independent basis, Debye-Ang):
   XX=           -153.5651   YY=           -148.3560   ZZ=           -130.6620
   XY=             -1.7982   XZ=              4.4756   YZ=              1.3809
 Traceless Quadrupole moment (field-independent basis, Debye-Ang):
   XX=             -9.3708   YY=             -4.1616   ZZ=             13.5324
   XY=             -1.7982   XZ=              4.4756   YZ=              1.3809
 Octapole moment (field-independent basis, Debye-Ang**2):
  XXX=           -131.3810  YYY=            -69.1801  ZZZ=             20.5476  XYY=             -0.8604
  XXY=            -41.2194  XXZ=             12.8812  XZZ=             -5.6145  YZZ=              2.0975
  YYZ=             -2.9884  XYZ=             13.3406
 Hexadecapole moment (field-independent basis, Debye-Ang**3):
 XXXX=          -6860.7166 YYYY=          -2278.6433 ZZZZ=          -1075.1666 XXXY=           -111.5185
 XXXZ=            107.6959 YYYX=             75.8279 YYYZ=            -10.9396 ZZZX=             38.7285
 ZZZY=              5.4714 XXYY=          -1463.8439 XXZZ=          -1273.1446 YYZZ=           -536.9693
 XXYZ=             62.4775 YYXZ=             -9.9215 ZZXY=             16.9297
 N-N= 2.359069087233D+03 E-N=-7.765324027328D+03  KE= 1.294088217954D+03
 No NMR shielding tensors so no spin-rotation constants.
 Leave Link  601 at Fri Apr 14 17:28:03 2023, MaxMem=   524288000 cpu:               1.9 elap:               0.3
 (Enter /dragofs/sw/campus/0.2/software/gaussian/16.gaussian/gaussian/g16_legacy/l9999.exe)
 1\1\GINC-DRAGO31070239\FOpt\RM062X\6-311G(d,p)\C12H22O11\JRAMOS\14-Apr
 -2023\0\\#p opt=modredundant m062x/6-311g(d,p)\\Conformer number 00007
 . Energy MM = 179.962 kcal/mol\\0,1\C,-0.0037153699,1.1666858343,-0.58
 03912464\H,-0.9183453893,1.0298867782,0.0113520832\O,-0.3872363452,1.8
 112379543,-1.7508572205\H,0.4192416486,2.0853382328,-2.2023052255\C,1.
 2851271804,1.4432692779,1.3824764265\H,0.3786196051,1.2923630224,1.985
 5072419\O,0.9232662274,1.9727841244,0.106887942\C,0.6220421028,-0.1937
 839448,-0.8872074493\H,1.4885819164,-0.0231412973,-1.5422848251\O,-0.3
 172564808,-1.0498613989,-1.4919039762\H,-0.7251792356,-0.5531705806,-2
 .209569985\C,1.0816706734,-0.8227313942,0.4179832887\H,0.1837394001,-0
 .9636910478,1.0317451456\O,1.5476695704,-2.1568068618,0.2757696971\C,1
 .9992044106,0.1072461978,1.2032538663\H,2.923349226,0.2811529474,0.644
 8826657\O,2.2669502074,-0.4157957292,2.4839111\H,2.4198075378,-1.36100
 25242,2.3869200875\C,2.1524074718,2.4934740339,2.0456655384\H,2.444127
 2141,2.1445984231,3.0359567563\H,3.0597258676,2.6295962587,1.439654037
 \O,1.4470109402,3.7007698223,2.1992420719\H,1.0953961594,3.9221538619,
 1.3312182843\C,2.7482405736,-2.4933330886,-0.3761434436\H,3.382201372,
 -3.0351286674,0.3420980904\C,4.6713442244,-1.709872484,-1.4991168481\H
 ,5.2995177549,-2.2595522143,-0.7846106229\O,3.4310273617,-1.3657464773
 ,-0.8681038443\C,2.3726149701,-3.3960749185,-1.5485571587\H,1.72738853
 26,-2.8048746083,-2.2131236014\O,1.7174994275,-4.5637758472,-1.1128756
 347\H,0.9009454329,-4.285166423,-0.6847914846\C,3.6240735695,-3.818129
 0892,-2.2856805248\H,4.2546633956,-4.408971111,-1.6039525705\O,3.33165
 05736,-4.5620873559,-3.4486531504\H,2.7530100519,-5.2849061416,-3.1843
 07619\C,4.403094578,-2.589524845,-2.715102957\H,3.7899274231,-2.027593
 2041,-3.4355760944\O,5.6448586687,-2.9427831423,-3.2763054813\H,5.4691
 16711,-3.6329126798,-3.9248448851\C,5.3556208229,-0.4070144279,-1.8517
 432993\H,6.2865697975,-0.6319999165,-2.3710905089\H,4.7035766776,0.159
 0173119,-2.531461123\O,5.6776402999,0.3366723467,-0.6998164799\H,4.862
 5132422,0.4696849927,-0.2086470633\\Version=EM64L-G16RevA.03\State=1-A
 \HF=-1297.8170312\RMSD=4.709e-09\RMSF=1.423e-03\Dipole=-0.5979452,-0.8
 967768,-0.937519\Quadrupole=-2.5374123,0.0649155,2.4724967,-0.6463298,
 1.6022738,-9.1824728\PG=C01 [X(C12H22O11)]\\@


  THE LARGE PRINT GIVETH,
  AND THE SMALL PRINT TAKETH AWAY.

                     -- TOM WAITS
 Job cpu time:       0 days 11 hours 21 minutes  6.6 seconds.
 Elapsed time:       0 days  1 hours 35 minutes 26.6 seconds.
 File lengths (MBytes):  RWF=    189 Int=      0 D2E=      0 Chk=     24 Scr=      1
 Normal termination of Gaussian 16 at Fri Apr 14 17:28:03 2023.
