 Entering Gaussian System, Link 0=/opt/g16/g16
 Input=03-IsoP_166_gaussian.com
 Output=03-IsoP_166_gaussian.log
 Initial command:
 /opt/g16/l1.exe "/tmp/Gau-2626732.inp" -scrdir="/tmp/"
 Entering Link 1 = /opt/g16/l1.exe PID=   2626737.
  
 Copyright (c) 1988,1990,1992,1993,1995,1998,2003,2009,2016,
            Gaussian, Inc.  All Rights Reserved.
  
 This is part of the Gaussian(R) 16 program.  It is based on
 the Gaussian(R) 09 system (copyright 2009, Gaussian, Inc.),
 the Gaussian(R) 03 system (copyright 2003, Gaussian, Inc.),
 the Gaussian(R) 98 system (copyright 1998, Gaussian, Inc.),
 the Gaussian(R) 94 system (copyright 1995, Gaussian, Inc.),
 the Gaussian 92(TM) system (copyright 1992, Gaussian, Inc.),
 the Gaussian 90(TM) system (copyright 1990, Gaussian, Inc.),
 the Gaussian 88(TM) system (copyright 1988, Gaussian, Inc.),
 the Gaussian 86(TM) system (copyright 1986, Carnegie Mellon
 University), and the Gaussian 82(TM) system (copyright 1983,
 Carnegie Mellon University). Gaussian is a federally registered
 trademark of Gaussian, Inc.
  
 This software contains proprietary and confidential information,
 including trade secrets, belonging to Gaussian, Inc.
  
 This software is provided under written license and may be
 used, copied, transmitted, or stored only in accord with that
 written license.
  
 The following legend is applicable only to US Government
 contracts under FAR:
  
                    RESTRICTED RIGHTS LEGEND
  
 Use, reproduction and disclosure by the US Government is
 subject to restrictions as set forth in subparagraphs (a)
 and (c) of the Commercial Computer Software - Restricted
 Rights clause in FAR 52.227-19.
  
 Gaussian, Inc.
 340 Quinnipiac St., Bldg. 40, Wallingford CT 06492
  
  
 ---------------------------------------------------------------
 Warning -- This program may not be used in any manner that
 competes with the business of Gaussian, Inc. or will provide
 assistance to any competitor of Gaussian, Inc.  The licensee
 of this program is prohibited from giving any competitor of
 Gaussian, Inc. access to this program.  By using this program,
 the user acknowledges that Gaussian, Inc. is engaged in the
 business of creating and licensing software in the field of
 computational chemistry and represents and warrants to the
 licensee that it is not a competitor of Gaussian, Inc. and that
 it will not use this program in any manner prohibited above.
 ---------------------------------------------------------------
  

 Cite this work as:
 Gaussian 16, Revision A.03,
 M. J. Frisch, G. W. Trucks, H. B. Schlegel, G. E. Scuseria, 
 M. A. Robb, J. R. Cheeseman, G. Scalmani, V. Barone, 
 G. A. Petersson, H. Nakatsuji, X. Li, M. Caricato, A. V. Marenich, 
 J. Bloino, B. G. Janesko, R. Gomperts, B. Mennucci, H. P. Hratchian, 
 J. V. Ortiz, A. F. Izmaylov, J. L. Sonnenberg, D. Williams-Young, 
 F. Ding, F. Lipparini, F. Egidi, J. Goings, B. Peng, A. Petrone, 
 T. Henderson, D. Ranasinghe, V. G. Zakrzewski, J. Gao, N. Rega, 
 G. Zheng, W. Liang, M. Hada, M. Ehara, K. Toyota, R. Fukuda, 
 J. Hasegawa, M. Ishida, T. Nakajima, Y. Honda, O. Kitao, H. Nakai, 
 T. Vreven, K. Throssell, J. A. Montgomery, Jr., J. E. Peralta, 
 F. Ogliaro, M. J. Bearpark, J. J. Heyd, E. N. Brothers, K. N. Kudin, 
 V. N. Staroverov, T. A. Keith, R. Kobayashi, J. Normand, 
 K. Raghavachari, A. P. Rendell, J. C. Burant, S. S. Iyengar, 
 J. Tomasi, M. Cossi, J. M. Millam, M. Klene, C. Adamo, R. Cammi, 
 J. W. Ochterski, R. L. Martin, K. Morokuma, O. Farkas, 
 J. B. Foresman, and D. J. Fox, Gaussian, Inc., Wallingford CT, 2016.
 
 ******************************************
 Gaussian 16:  ES64L-G16RevA.03 25-Dec-2016
                26-Jul-2021 
 ******************************************
 %chk=03-IsoP_166_gaussian.chk
 %nproc=1
 Will use up to    1 processors via shared memory.
 %mem=1000Mb
 ----------
 #p opt pm3
 ----------
 1/18=20,19=15,26=1,38=1/1,3;
 2/9=110,12=2,17=6,18=5,40=1/2;
 3/5=2,25=1,41=800000,71=1/1,2,3;
 4/35=1/1;
 5/5=2,35=1,38=5/2;
 6/7=2,8=2,9=2,10=2,28=1/1;
 7//1,2,3,16;
 1/18=20,19=15,26=1/3(2);
 2/9=110/2;
 99//99;
 2/9=110/2;
 3/5=2,25=1,41=800000,71=1,135=20/1,2,3;
 4/5=5,16=3,35=1/1;
 5/5=2,35=1,38=5/2;
 7//1,2,3,16;
 1/18=20,19=15,26=1/3(-5);
 2/9=110/2;
 6/7=2,8=2,9=2,10=2,19=2,28=1/1;
 99/9=1/99;
 Leave Link    1 at Mon Jul 26 19:32:14 2021, MaxMem=   131072000 cpu:               0.0 elap:               0.0
 (Enter /opt/g16/l101.exe)
 -------------------------------------------------
 Conformer number 166. Energy MM = 23.242 kcal/mol
 -------------------------------------------------
 Symbolic Z-matrix:
 Charge =  0 Multiplicity = 1
 C                    -0.8549    0.8312   -0.0216 
 H                    -0.8725    0.5456    1.037 
 H                    -0.8468    1.9295   -0.0167 
 C                    -2.1079    0.3501   -0.7239 
 C                    -2.5413    1.1862   -1.9007 
 H                    -3.4553    0.8036   -2.3672 
 H                    -2.738     2.2154   -1.5832 
 H                    -1.7607    1.2012   -2.6678 
 C                    -2.8272   -0.725    -0.3455 
 H                    -3.7278   -0.9735   -0.9063 
 C                    -2.529    -1.6721    0.7737 
 H                    -2.5471   -2.6996    0.396 
 H                    -1.5503   -1.5115    1.2313 
 H                    -3.2938   -1.5815    1.5508 
 C                     2.2146   -1.3013    1.3198 
 H                     2.2189   -1.3533    2.4139 
 H                     3.0096   -1.9518    0.9411 
 H                     1.2577   -1.7106    0.9883 
 C                     2.4473    0.1148    0.8699 
 C                     3.6719    0.7604    1.4641 
 H                     3.5922    0.7929    2.5556 
 H                     3.8141    1.787     1.1105 
 H                     4.5675    0.1901    1.1967 
 C                     1.654     0.7975    0.0213 
 H                     1.9149    1.8287   -0.2172 
 C                     0.4203    0.3004   -0.6841 
 H                     0.4718    0.639    -1.7267 
 H                     0.3979   -0.7933   -0.7317 
 
 ITRead=  0  0  0  0  0  0  0  0  0  0  0  0  0  0  0  0  0  0  0  0
 ITRead=  0  0  0  0  0  0  0  0
 MicOpt= -1 -1 -1 -1 -1 -1 -1 -1 -1 -1 -1 -1 -1 -1 -1 -1 -1 -1 -1 -1
 MicOpt= -1 -1 -1 -1 -1 -1 -1 -1
 NAtoms=     28 NQM=       28 NQMF=       0 NMMI=      0 NMMIF=      0
                NMic=       0 NMicF=      0.
                    Isotopes and Nuclear Properties:
 (Nuclear quadrupole moments (NQMom) in fm**2, nuclear magnetic moments (NMagM)
  in nuclear magnetons)

  Atom         1           2           3           4           5           6           7           8           9          10
 IAtWgt=          12           1           1          12          12           1           1           1          12           1
 AtmWgt=  12.0000000   1.0078250   1.0078250  12.0000000  12.0000000   1.0078250   1.0078250   1.0078250  12.0000000   1.0078250
 NucSpn=           0           1           1           0           0           1           1           1           0           1
 AtZEff=  -0.0000000  -0.0000000  -0.0000000  -0.0000000  -0.0000000  -0.0000000  -0.0000000  -0.0000000  -0.0000000  -0.0000000
 NQMom=    0.0000000   0.0000000   0.0000000   0.0000000   0.0000000   0.0000000   0.0000000   0.0000000   0.0000000   0.0000000
 NMagM=    0.0000000   2.7928460   2.7928460   0.0000000   0.0000000   2.7928460   2.7928460   2.7928460   0.0000000   2.7928460
 AtZNuc=   6.0000000   1.0000000   1.0000000   6.0000000   6.0000000   1.0000000   1.0000000   1.0000000   6.0000000   1.0000000

  Atom        11          12          13          14          15          16          17          18          19          20
 IAtWgt=          12           1           1           1          12           1           1           1          12          12
 AtmWgt=  12.0000000   1.0078250   1.0078250   1.0078250  12.0000000   1.0078250   1.0078250   1.0078250  12.0000000  12.0000000
 NucSpn=           0           1           1           1           0           1           1           1           0           0
 AtZEff=  -0.0000000  -0.0000000  -0.0000000  -0.0000000  -0.0000000  -0.0000000  -0.0000000  -0.0000000  -0.0000000  -0.0000000
 NQMom=    0.0000000   0.0000000   0.0000000   0.0000000   0.0000000   0.0000000   0.0000000   0.0000000   0.0000000   0.0000000
 NMagM=    0.0000000   2.7928460   2.7928460   2.7928460   0.0000000   2.7928460   2.7928460   2.7928460   0.0000000   0.0000000
 AtZNuc=   6.0000000   1.0000000   1.0000000   1.0000000   6.0000000   1.0000000   1.0000000   1.0000000   6.0000000   6.0000000

  Atom        21          22          23          24          25          26          27          28
 IAtWgt=           1           1           1          12           1          12           1           1
 AtmWgt=   1.0078250   1.0078250   1.0078250  12.0000000   1.0078250  12.0000000   1.0078250   1.0078250
 NucSpn=           1           1           1           0           1           0           1           1
 AtZEff=  -0.0000000  -0.0000000  -0.0000000  -0.0000000  -0.0000000  -0.0000000  -0.0000000  -0.0000000
 NQMom=    0.0000000   0.0000000   0.0000000   0.0000000   0.0000000   0.0000000   0.0000000   0.0000000
 NMagM=    2.7928460   2.7928460   2.7928460   0.0000000   2.7928460   0.0000000   2.7928460   2.7928460
 AtZNuc=   1.0000000   1.0000000   1.0000000   6.0000000   1.0000000   6.0000000   1.0000000   1.0000000
 Leave Link  101 at Mon Jul 26 19:32:14 2021, MaxMem=   131072000 cpu:               0.2 elap:               0.3
 (Enter /opt/g16/l103.exe)

 GradGradGradGradGradGradGradGradGradGradGradGradGradGradGradGradGradGrad
 Berny optimization.
 Initialization pass.
                           ----------------------------
                           !    Initial Parameters    !
                           ! (Angstroms and Degrees)  !
 --------------------------                            --------------------------
 ! Name  Definition              Value          Derivative Info.                !
 --------------------------------------------------------------------------------
 ! R1    R(1,2)                  1.0966         estimate D2E/DX2                !
 ! R2    R(1,3)                  1.0983         estimate D2E/DX2                !
 ! R3    R(1,4)                  1.5148         estimate D2E/DX2                !
 ! R4    R(1,26)                 1.5319         estimate D2E/DX2                !
 ! R5    R(4,5)                  1.5072         estimate D2E/DX2                !
 ! R6    R(4,9)                  1.3477         estimate D2E/DX2                !
 ! R7    R(5,6)                  1.0952         estimate D2E/DX2                !
 ! R8    R(5,7)                  1.0949         estimate D2E/DX2                !
 ! R9    R(5,8)                  1.0945         estimate D2E/DX2                !
 ! R10   R(9,10)                 1.0896         estimate D2E/DX2                !
 ! R11   R(9,11)                 1.4962         estimate D2E/DX2                !
 ! R12   R(11,12)                1.0949         estimate D2E/DX2                !
 ! R13   R(11,13)                1.0923         estimate D2E/DX2                !
 ! R14   R(11,14)                1.0941         estimate D2E/DX2                !
 ! R15   R(15,16)                1.0953         estimate D2E/DX2                !
 ! R16   R(15,17)                1.0948         estimate D2E/DX2                !
 ! R17   R(15,18)                1.0923         estimate D2E/DX2                !
 ! R18   R(15,19)                1.504          estimate D2E/DX2                !
 ! R19   R(19,20)                1.5065         estimate D2E/DX2                !
 ! R20   R(19,24)                1.3474         estimate D2E/DX2                !
 ! R21   R(20,21)                1.0949         estimate D2E/DX2                !
 ! R22   R(20,22)                1.0951         estimate D2E/DX2                !
 ! R23   R(20,23)                1.0949         estimate D2E/DX2                !
 ! R24   R(24,25)                1.0901         estimate D2E/DX2                !
 ! R25   R(24,26)                1.5056         estimate D2E/DX2                !
 ! R26   R(26,27)                1.0974         estimate D2E/DX2                !
 ! R27   R(26,28)                1.095          estimate D2E/DX2                !
 ! A1    A(2,1,3)              104.8474         estimate D2E/DX2                !
 ! A2    A(2,1,4)              110.5831         estimate D2E/DX2                !
 ! A3    A(2,1,26)             109.9134         estimate D2E/DX2                !
 ! A4    A(3,1,4)              109.0111         estimate D2E/DX2                !
 ! A5    A(3,1,26)             110.0152         estimate D2E/DX2                !
 ! A6    A(4,1,26)             112.2098         estimate D2E/DX2                !
 ! A7    A(1,4,5)              115.0651         estimate D2E/DX2                !
 ! A8    A(1,4,9)              124.3771         estimate D2E/DX2                !
 ! A9    A(5,4,9)              120.5475         estimate D2E/DX2                !
 ! A10   A(4,5,6)              112.2569         estimate D2E/DX2                !
 ! A11   A(4,5,7)              110.2854         estimate D2E/DX2                !
 ! A12   A(4,5,8)              110.4707         estimate D2E/DX2                !
 ! A13   A(6,5,7)              107.5768         estimate D2E/DX2                !
 ! A14   A(6,5,8)              107.545          estimate D2E/DX2                !
 ! A15   A(7,5,8)              108.5711         estimate D2E/DX2                !
 ! A16   A(4,9,10)             118.5896         estimate D2E/DX2                !
 ! A17   A(4,9,11)             127.4891         estimate D2E/DX2                !
 ! A18   A(10,9,11)            113.9135         estimate D2E/DX2                !
 ! A19   A(9,11,12)            109.4337         estimate D2E/DX2                !
 ! A20   A(9,11,13)            113.5095         estimate D2E/DX2                !
 ! A21   A(9,11,14)            109.8509         estimate D2E/DX2                !
 ! A22   A(12,11,13)           107.2969         estimate D2E/DX2                !
 ! A23   A(12,11,14)           108.1306         estimate D2E/DX2                !
 ! A24   A(13,11,14)           108.4581         estimate D2E/DX2                !
 ! A25   A(16,15,17)           108.328          estimate D2E/DX2                !
 ! A26   A(16,15,18)           106.7861         estimate D2E/DX2                !
 ! A27   A(16,15,19)           110.0535         estimate D2E/DX2                !
 ! A28   A(17,15,18)           107.9705         estimate D2E/DX2                !
 ! A29   A(17,15,19)           110.0982         estimate D2E/DX2                !
 ! A30   A(18,15,19)           113.4276         estimate D2E/DX2                !
 ! A31   A(15,19,20)           114.2861         estimate D2E/DX2                !
 ! A32   A(15,19,24)           125.0562         estimate D2E/DX2                !
 ! A33   A(20,19,24)           120.6549         estimate D2E/DX2                !
 ! A34   A(19,20,21)           110.2889         estimate D2E/DX2                !
 ! A35   A(19,20,22)           112.3305         estimate D2E/DX2                !
 ! A36   A(19,20,23)           110.2042         estimate D2E/DX2                !
 ! A37   A(21,20,22)           107.6697         estimate D2E/DX2                !
 ! A38   A(21,20,23)           108.5702         estimate D2E/DX2                !
 ! A39   A(22,20,23)           107.6512         estimate D2E/DX2                !
 ! A40   A(19,24,25)           118.436          estimate D2E/DX2                !
 ! A41   A(19,24,26)           127.6063         estimate D2E/DX2                !
 ! A42   A(25,24,26)           113.9504         estimate D2E/DX2                !
 ! A43   A(1,26,24)            111.4126         estimate D2E/DX2                !
 ! A44   A(1,26,27)            110.0609         estimate D2E/DX2                !
 ! A45   A(1,26,28)            110.3567         estimate D2E/DX2                !
 ! A46   A(24,26,27)           107.7461         estimate D2E/DX2                !
 ! A47   A(24,26,28)           111.5261         estimate D2E/DX2                !
 ! A48   A(27,26,28)           105.5362         estimate D2E/DX2                !
 ! D1    D(2,1,4,5)            151.415          estimate D2E/DX2                !
 ! D2    D(2,1,4,9)            -27.4169         estimate D2E/DX2                !
 ! D3    D(3,1,4,5)             36.6499         estimate D2E/DX2                !
 ! D4    D(3,1,4,9)           -142.182          estimate D2E/DX2                !
 ! D5    D(26,1,4,5)           -85.4707         estimate D2E/DX2                !
 ! D6    D(26,1,4,9)            95.6974         estimate D2E/DX2                !
 ! D7    D(2,1,26,24)          -56.9397         estimate D2E/DX2                !
 ! D8    D(2,1,26,27)         -176.3952         estimate D2E/DX2                !
 ! D9    D(2,1,26,28)           67.5242         estimate D2E/DX2                !
 ! D10   D(3,1,26,24)           58.0225         estimate D2E/DX2                !
 ! D11   D(3,1,26,27)          -61.433          estimate D2E/DX2                !
 ! D12   D(3,1,26,28)         -177.5136         estimate D2E/DX2                !
 ! D13   D(4,1,26,24)          179.5699         estimate D2E/DX2                !
 ! D14   D(4,1,26,27)           60.1144         estimate D2E/DX2                !
 ! D15   D(4,1,26,28)          -55.9662         estimate D2E/DX2                !
 ! D16   D(1,4,5,6)           -179.4404         estimate D2E/DX2                !
 ! D17   D(1,4,5,7)            -59.4974         estimate D2E/DX2                !
 ! D18   D(1,4,5,8)             60.5296         estimate D2E/DX2                !
 ! D19   D(9,4,5,6)             -0.5599         estimate D2E/DX2                !
 ! D20   D(9,4,5,7)            119.3832         estimate D2E/DX2                !
 ! D21   D(9,4,5,8)           -120.5899         estimate D2E/DX2                !
 ! D22   D(1,4,9,10)           178.6067         estimate D2E/DX2                !
 ! D23   D(1,4,9,11)            -2.4802         estimate D2E/DX2                !
 ! D24   D(5,4,9,10)            -0.1647         estimate D2E/DX2                !
 ! D25   D(5,4,9,11)           178.7484         estimate D2E/DX2                !
 ! D26   D(4,9,11,12)         -127.7491         estimate D2E/DX2                !
 ! D27   D(4,9,11,13)           -7.9273         estimate D2E/DX2                !
 ! D28   D(4,9,11,14)          113.6826         estimate D2E/DX2                !
 ! D29   D(10,9,11,12)          51.207          estimate D2E/DX2                !
 ! D30   D(10,9,11,13)         171.0288         estimate D2E/DX2                !
 ! D31   D(10,9,11,14)         -67.3614         estimate D2E/DX2                !
 ! D32   D(16,15,19,20)         52.7855         estimate D2E/DX2                !
 ! D33   D(16,15,19,24)       -126.6021         estimate D2E/DX2                !
 ! D34   D(17,15,19,20)        -66.5568         estimate D2E/DX2                !
 ! D35   D(17,15,19,24)        114.0556         estimate D2E/DX2                !
 ! D36   D(18,15,19,20)        172.3385         estimate D2E/DX2                !
 ! D37   D(18,15,19,24)         -7.0491         estimate D2E/DX2                !
 ! D38   D(15,19,20,21)        -60.2571         estimate D2E/DX2                !
 ! D39   D(15,19,20,22)        179.6308         estimate D2E/DX2                !
 ! D40   D(15,19,20,23)         59.6004         estimate D2E/DX2                !
 ! D41   D(24,19,20,21)        119.1601         estimate D2E/DX2                !
 ! D42   D(24,19,20,22)         -0.952          estimate D2E/DX2                !
 ! D43   D(24,19,20,23)       -120.9823         estimate D2E/DX2                !
 ! D44   D(15,19,24,25)        178.8302         estimate D2E/DX2                !
 ! D45   D(15,19,24,26)         -2.215          estimate D2E/DX2                !
 ! D46   D(20,19,24,25)         -0.5209         estimate D2E/DX2                !
 ! D47   D(20,19,24,26)        178.4339         estimate D2E/DX2                !
 ! D48   D(19,24,26,1)         103.3663         estimate D2E/DX2                !
 ! D49   D(19,24,26,27)       -135.8127         estimate D2E/DX2                !
 ! D50   D(19,24,26,28)        -20.4374         estimate D2E/DX2                !
 ! D51   D(25,24,26,1)         -77.6394         estimate D2E/DX2                !
 ! D52   D(25,24,26,27)         43.1816         estimate D2E/DX2                !
 ! D53   D(25,24,26,28)        158.5569         estimate D2E/DX2                !
 --------------------------------------------------------------------------------
 Trust Radius=3.00D-01 FncErr=1.00D-07 GrdErr=1.00D-07 EigMax=2.50D+02 EigMin=1.00D-04
 Number of steps in this run=    138 maximum allowed number of steps=    168.
 GradGradGradGradGradGradGradGradGradGradGradGradGradGradGradGradGradGrad

 Leave Link  103 at Mon Jul 26 19:32:14 2021, MaxMem=   131072000 cpu:               0.0 elap:               0.0
 (Enter /opt/g16/l202.exe)
                          Input orientation:                          
 ---------------------------------------------------------------------
 Center     Atomic      Atomic             Coordinates (Angstroms)
 Number     Number       Type             X           Y           Z
 ---------------------------------------------------------------------
      1          6           0       -0.854900    0.831200   -0.021600
      2          1           0       -0.872500    0.545600    1.037000
      3          1           0       -0.846800    1.929500   -0.016700
      4          6           0       -2.107900    0.350100   -0.723900
      5          6           0       -2.541300    1.186200   -1.900700
      6          1           0       -3.455300    0.803600   -2.367200
      7          1           0       -2.738000    2.215400   -1.583200
      8          1           0       -1.760700    1.201200   -2.667800
      9          6           0       -2.827200   -0.725000   -0.345500
     10          1           0       -3.727800   -0.973500   -0.906300
     11          6           0       -2.529000   -1.672100    0.773700
     12          1           0       -2.547100   -2.699600    0.396000
     13          1           0       -1.550300   -1.511500    1.231300
     14          1           0       -3.293800   -1.581500    1.550800
     15          6           0        2.214600   -1.301300    1.319800
     16          1           0        2.218900   -1.353300    2.413900
     17          1           0        3.009600   -1.951800    0.941100
     18          1           0        1.257700   -1.710600    0.988300
     19          6           0        2.447300    0.114800    0.869900
     20          6           0        3.671900    0.760400    1.464100
     21          1           0        3.592200    0.792900    2.555600
     22          1           0        3.814100    1.787000    1.110500
     23          1           0        4.567500    0.190100    1.196700
     24          6           0        1.654000    0.797500    0.021300
     25          1           0        1.914900    1.828700   -0.217200
     26          6           0        0.420300    0.300400   -0.684100
     27          1           0        0.471800    0.639000   -1.726700
     28          1           0        0.397900   -0.793300   -0.731700
 ---------------------------------------------------------------------
                    Distance matrix (angstroms):
                    1          2          3          4          5
     1  C    0.000000
     2  H    1.096591   0.000000
     3  H    1.098341   1.739576   0.000000
     4  C    1.514824   2.159908   2.141264   0.000000
     5  C    2.549703   3.438800   2.640697   1.507235   0.000000
     6  H    3.502097   4.280887   3.687380   2.172921   1.095172
     7  H    2.810813   3.624054   2.472306   2.148201   1.094874
     8  H    2.821303   3.865780   2.897234   2.150271   1.094534
     9  C    2.533108   2.710458   3.328132   1.347746   2.480539
    10  H    3.506165   3.773171   4.185565   2.099824   2.657239
    11  C    3.114743   2.780560   4.052907   2.551357   3.914390
    12  H    3.937573   3.707626   4.948728   3.278375   4.513791
    13  H    2.746194   2.174586   3.727318   2.756679   4.250775
    14  H    3.773830   3.263624   4.557629   3.211183   4.487680
    15  C    3.970987   3.608490   4.647200   5.058442   6.259222
    16  H    4.489092   3.880519   5.107162   5.609684   6.908280
    17  H    4.858625   4.617023   5.554610   5.853185   6.981072
    18  H    3.455969   3.103315   4.323109   4.301788   5.583025
    19  C    3.494642   3.351803   3.863973   4.831709   5.806053
    20  C    4.764896   4.569478   4.896755   6.193689   7.078633
    21  H    5.140051   4.722378   5.254837   6.591080   7.591648
    22  H    4.898445   4.848783   4.797382   6.363944   7.058286
    23  H    5.594433   5.453942   5.814851   6.948041   7.818001
    24  C    2.509493   2.734648   2.745336   3.861008   4.630952
    25  H    2.950433   3.314960   2.770803   4.315776   4.806735
    26  C    1.531924   2.166481   2.169086   2.529002   3.322022
    27  H    2.168972   3.074720   2.515591   2.782791   3.067324
    28  H    2.170887   2.556339   3.078010   2.754353   3.731471
                    6          7          8          9         10
     6  H    0.000000
     7  H    1.767019   0.000000
     8  H    1.766385   1.777660   0.000000
     9  C    2.611206   3.191522   3.200117   0.000000
    10  H    2.316586   3.406902   3.420773   1.089646   0.000000
    11  C    4.105164   4.550969   4.548633   1.496172   2.178890
    12  H    4.553297   5.301971   5.022105   2.127751   2.463627
    13  H    4.683793   4.818903   4.754576   2.176087   3.098433
    14  H    4.589718   4.954525   5.281136   2.132431   2.568143
    15  C    7.083244   6.732224   6.161694   5.340889   6.354140
    16  H    7.727075   7.299540   6.941640   5.785514   6.821379
    17  H    7.767368   7.534756   6.761755   6.101525   7.054255
    18  H    6.308165   6.163741   5.563846   4.408723   5.384054
    19  C    6.767123   6.108810   5.603825   5.477482   6.516989
    20  C    8.091830   7.244990   6.839594   6.907921   7.961204
    21  H    8.596588   7.695752   7.490271   7.206185   8.287781
    22  H    8.118229   7.097152   6.759964   7.248237   8.280586
    23  H    8.800175   8.074653   7.483502   7.609033   8.636468
    24  C    5.640028   4.886156   4.365136   4.746968   5.741137
    25  H    5.874724   4.864666   4.461976   5.387519   6.337764
    26  C    4.255151   3.801377   3.082737   3.422331   4.344989
    27  H    3.982392   3.578889   2.487126   3.827742   4.572729
    28  H    4.480190   4.428453   3.519385   3.248859   4.133323
                   11         12         13         14         15
    11  C    0.000000
    12  H    1.094870   0.000000
    13  H    1.092265   1.761510   0.000000
    14  H    1.094080   1.772363   1.773914   0.000000
    15  C    4.789307   5.048013   3.771802   5.520357   0.000000
    16  H    5.033333   5.347822   3.953535   5.584521   1.095343
    17  H    5.548184   5.633228   4.590291   6.343635   1.094801
    18  H    3.792971   3.975606   2.825518   4.587943   1.092280
    19  C    5.288273   5.752344   4.330851   6.025055   1.503961
    20  C    6.696631   7.196416   5.699745   7.349353   2.528864
    21  H    6.835238   7.385962   5.788725   7.352849   2.794755
    22  H    7.232823   7.816966   6.298530   7.878001   3.484222
    23  H    7.348948   7.720688   6.350127   8.066225   2.788470
    24  C    4.915539   5.478992   4.130753   5.699100   2.530877
    25  H    5.743321   6.386780   5.026201   6.471927   3.499870
    26  C    3.835923   4.355695   3.291657   4.725554   3.130586
    27  H    4.538500   4.976531   4.178912   5.463732   4.010396
    28  H    3.406650   3.684930   2.857388   4.411317   2.786954
                   16         17         18         19         20
    16  H    0.000000
    17  H    1.775542   0.000000
    18  H    1.756105   1.769056   0.000000
    19  C    2.142760   2.142915   2.182029   0.000000
    20  C    2.735152   2.840458   3.487204   1.506492   0.000000
    21  H    2.551902   3.237192   3.764815   2.147603   1.094888
    22  H    3.755662   3.828125   4.333973   2.173082   1.095062
    23  H    3.062610   2.660849   3.822416   2.146559   1.094917
    24  C    3.266433   3.200365   2.717114   1.347415   2.480921
    25  H    4.140076   4.102707   3.796286   2.098259   2.656141
    26  C    3.945540   3.797124   2.746321   2.560877   3.924190
    27  H    4.915912   4.502203   3.675525   3.304500   4.520684
    28  H    3.677559   3.310794   2.130515   2.754961   4.237287
                   21         22         23         24         25
    21  H    0.000000
    22  H    1.767990   0.000000
    23  H    1.777973   1.767804   0.000000
    24  C    3.190504   2.613714   3.199841   0.000000
    25  H    3.402152   2.317647   3.423508   1.090103   0.000000
    26  C    4.560610   4.116849   4.555090   1.505561   2.188042
    27  H    5.300818   4.531951   5.051983   2.116181   2.403438
    28  H    4.850353   4.660694   4.698017   2.162277   3.072602
                   26         27         28
    26  C    0.000000
    27  H    1.097414   0.000000
    28  H    1.094964   1.745557   0.000000
 Stoichiometry    C10H18
 Framework group  C1[X(C10H18)]
 Deg. of freedom    78
 Full point group                 C1      NOp   1
 Largest Abelian subgroup         C1      NOp   1
 Largest concise Abelian subgroup C1      NOp   1
                         Standard orientation:                         
 ---------------------------------------------------------------------
 Center     Atomic      Atomic             Coordinates (Angstroms)
 Number     Number       Type             X           Y           Z
 ---------------------------------------------------------------------
      1          6           0        0.793774   -0.586546    0.589144
      2          1           0        0.484612    0.235258    1.246083
      3          1           0        0.746051   -1.484362    1.220017
      4          6           0        2.220903   -0.386929    0.122082
      5          6           0        2.975680   -1.655007   -0.184587
      6          1           0        4.003281   -1.458157   -0.508144
      7          1           0        3.025291   -2.291727    0.704725
      8          1           0        2.478757   -2.212203   -0.984964
      9          6           0        2.820206    0.813884   -0.001625
     10          1           0        3.860325    0.846728   -0.324740
     11          6           0        2.215721    2.161932    0.234796
     12          1           0        2.388714    2.797228   -0.639969
     13          1           0        1.137409    2.131917    0.406222
     14          1           0        2.690797    2.635747    1.098980
     15          6           0       -2.465997    1.425950   -0.456081
     16          1           0       -2.815363    2.072722    0.355959
     17          1           0       -3.076467    1.626149   -1.342554
     18          1           0       -1.439635    1.725936   -0.678940
     19          6           0       -2.593420   -0.018274   -0.056232
     20          6           0       -3.965104   -0.407946    0.429727
     21          1           0       -4.237001    0.181203    1.311631
     22          1           0       -4.023663   -1.466006    0.705845
     23          1           0       -4.709034   -0.227455   -0.353112
     24          6           0       -1.596317   -0.923598   -0.097453
     25          1           0       -1.804044   -1.940167    0.236855
     26          6           0       -0.185934   -0.715583   -0.581459
     27          1           0        0.084168   -1.577184   -1.205162
     28          1           0       -0.111273    0.157075   -1.238605
 ---------------------------------------------------------------------
 Rotational constants (GHZ):           2.2180800           0.5802311           0.4854217
 Leave Link  202 at Mon Jul 26 19:32:14 2021, MaxMem=   131072000 cpu:               0.0 elap:               0.0
 (Enter /opt/g16/l301.exe)
 Standard basis: VSTO-6G (5D, 7F)
 Ernie: Thresh=  0.10000D-02 Tol=  0.10000D-05 Strict=F.
  NNHCO=     0 NNPyr=     0 NCTC=     0               EPep=         0.000000000
    EC=       248.196389941  ECS=         3.524635808   EG=         0.891744212
   EHC=         0.000000000  EAt=       -49.524085099  AtH=         4.217842293
 EPDDG=         0.000000000  ECC=       252.612769961 EAtT=        53.741927392
 There are    58 symmetry adapted cartesian basis functions of A   symmetry.
 There are    58 symmetry adapted basis functions of A   symmetry.
    58 basis functions,   348 primitive gaussians,    58 cartesian basis functions
    29 alpha electrons       29 beta electrons
       nuclear repulsion energy       306.3546973532 Hartrees.
 IExCor=    0 DFT=F Ex=HF Corr=None ExCW=0 ScaHFX=  1.000000
 ScaDFX=  1.000000  1.000000  1.000000  1.000000 ScalE2=  1.000000  1.000000
 IRadAn=      5 IRanWt=     -1 IRanGd=            0 ICorTp=0 IEmpDi=  4
 Integral buffers will be    131072 words long.
 Regular integral format.
 Two-electron integral symmetry is turned off.
 Leave Link  301 at Mon Jul 26 19:32:14 2021, MaxMem=   131072000 cpu:               0.0 elap:               0.1
 (Enter /opt/g16/l302.exe)
 Do NDO integrals.
 NPDir=0 NMtPBC=     1 NCelOv=     1 NCel=       1 NClECP=     1 NCelD=      1
         NCelK=      1 NCelE2=     1 NClLst=     1 CellRange=     0.0.
 One-electron integrals computed using PRISM.
 NBasis=    58 RedAO= F EigKep=  0.00D+00  NBF=    58
 NBsUse=    58 1.00D-04 EigRej=  0.00D+00 NBFU=    58
 Leave Link  302 at Mon Jul 26 19:32:15 2021, MaxMem=   131072000 cpu:               0.1 elap:               0.1
 (Enter /opt/g16/l303.exe)
 DipDrv:  MaxL=1.
 Leave Link  303 at Mon Jul 26 19:32:15 2021, MaxMem=   131072000 cpu:               0.0 elap:               0.0
 (Enter /opt/g16/l401.exe)
 Simple Huckel Guess.
 JPrj=0 DoOrth=F DoCkMO=F.
 Leave Link  401 at Mon Jul 26 19:32:15 2021, MaxMem=   131072000 cpu:               0.0 elap:               0.0
 (Enter /opt/g16/l502.exe)
 Keep J ints in memory in canonical form, NReq=866866.
 FoFCou: FMM=F IPFlag=           0 FMFlag=           0 FMFlg1=           0
         NFxFlg=           0 DoJE=F BraDBF=F KetDBF=F FulRan=T
         wScrn=  0.000000 ICntrl=       600 IOpCl=  2 I1Cent=           0 NGrid=           0
         NMat0=    1 NMatS0=    118 NMatT0=    0 NMatD0=    1 NMtDS0=    0 NMtDT0=    0
 Symmetry not used in FoFCou.
 Two-electron integral symmetry not used.
 Closed shell SCF:
 Using DIIS extrapolation, IDIIS=  1040.
 Overlap will be assumed to be unity.
 NGot=   131072000 LenX=   130997697 LenY=   130993892
 Requested convergence on RMS density matrix=1.00D-08 within 128 cycles.
 Requested convergence on MAX density matrix=1.00D-06.
 Requested convergence on             energy=1.00D-06.
 No special actions if energy rises.

 Cycle   1  Pass 1  IDiag  1:
 E= 0.216082953941168    
 DIIS: error= 2.74D-02 at cycle   1 NSaved=   1.
 NSaved= 1 IEnMin= 1 EnMin= 0.216082953941168     IErMin= 1 ErrMin= 2.74D-02
 ErrMax= 2.74D-02  0.00D+00 EMaxC= 1.00D-01 BMatC= 9.45D-02 BMatP= 9.45D-02
 IDIUse=3 WtCom= 7.26D-01 WtEn= 2.74D-01
 Coeff-Com:  0.100D+01
 Coeff-En:   0.100D+01
 Coeff:      0.100D+01
 GapD=    2.000 DampG=2.000 DampE=0.500 DampFc=1.0000 IDamp=-1.
 RMSDP=7.17D-03 MaxDP=8.49D-02              OVMax= 0.00D+00

 Cycle   2  Pass 1  IDiag  1:
 E=-0.406635811117440E-02 Delta-E=       -0.220149312052 Rises=F Damp=F
 DIIS: error= 7.94D-03 at cycle   2 NSaved=   2.
 NSaved= 2 IEnMin= 2 EnMin=-0.406635811117440E-02 IErMin= 2 ErrMin= 7.94D-03
 ErrMax= 7.94D-03  0.00D+00 EMaxC= 1.00D-01 BMatC= 6.07D-03 BMatP= 9.45D-02
 IDIUse=3 WtCom= 9.21D-01 WtEn= 7.94D-02
 Coeff-Com: -0.318D+00 0.132D+01
 Coeff-En:   0.000D+00 0.100D+01
 Coeff:     -0.292D+00 0.129D+01
 RMSDP=2.60D-03 MaxDP=2.88D-02 DE=-2.20D-01 OVMax= 0.00D+00

 Cycle   3  Pass 1  IDiag  3:
 E=-0.214401115010219E-01 Delta-E=       -0.017373753390 Rises=F Damp=F
 DIIS: error= 9.31D-04 at cycle   3 NSaved=   3.
 NSaved= 3 IEnMin= 3 EnMin=-0.214401115010219E-01 IErMin= 3 ErrMin= 9.31D-04
 ErrMax= 9.31D-04  0.00D+00 EMaxC= 1.00D-01 BMatC= 7.26D-05 BMatP= 6.07D-03
 IDIUse=3 WtCom= 9.91D-01 WtEn= 9.31D-03
 Coeff-Com:  0.108D+00-0.505D+00 0.140D+01
 Coeff-En:   0.000D+00 0.000D+00 0.100D+01
 Coeff:      0.107D+00-0.500D+00 0.139D+01
 Gap=     0.377 Goal=   None    Shift=    0.000
 RMSDP=4.23D-04 MaxDP=4.10D-03 DE=-1.74D-02 OVMax= 6.69D-03

 Cycle   4  Pass 1  IDiag  3:
 E=-0.217704834067831E-01 Delta-E=       -0.000330371906 Rises=F Damp=F
 DIIS: error= 1.89D-04 at cycle   4 NSaved=   4.
 NSaved= 4 IEnMin= 4 EnMin=-0.217704834067831E-01 IErMin= 4 ErrMin= 1.89D-04
 ErrMax= 1.89D-04  0.00D+00 EMaxC= 1.00D-01 BMatC= 3.12D-06 BMatP= 7.26D-05
 IDIUse=3 WtCom= 9.98D-01 WtEn= 1.89D-03
 Coeff-Com: -0.464D-01 0.223D+00-0.722D+00 0.155D+01
 Coeff-En:   0.000D+00 0.000D+00 0.000D+00 0.100D+01
 Coeff:     -0.463D-01 0.222D+00-0.721D+00 0.155D+01
 Gap=     0.377 Goal=   None    Shift=    0.000
 RMSDP=1.06D-04 MaxDP=1.14D-03 DE=-3.30D-04 OVMax= 7.43D-04

 Cycle   5  Pass 1  IDiag  3:
 E=-0.217881227979433E-01 Delta-E=       -0.000017639391 Rises=F Damp=F
 DIIS: error= 5.10D-05 at cycle   5 NSaved=   5.
 NSaved= 5 IEnMin= 5 EnMin=-0.217881227979433E-01 IErMin= 5 ErrMin= 5.10D-05
 ErrMax= 5.10D-05  0.00D+00 EMaxC= 1.00D-01 BMatC= 1.82D-07 BMatP= 3.12D-06
 IDIUse=1 WtCom= 1.00D+00 WtEn= 0.00D+00
 Coeff-Com:  0.121D-01-0.578D-01 0.196D+00-0.569D+00 0.142D+01
 Coeff:      0.121D-01-0.578D-01 0.196D+00-0.569D+00 0.142D+01
 Gap=     0.377 Goal=   None    Shift=    0.000
 RMSDP=2.69D-05 MaxDP=2.88D-04 DE=-1.76D-05 OVMax= 2.11D-04

 Cycle   6  Pass 1  IDiag  3:
 E=-0.217892581775345E-01 Delta-E=       -0.000001135380 Rises=F Damp=F
 DIIS: error= 1.73D-05 at cycle   6 NSaved=   6.
 NSaved= 6 IEnMin= 6 EnMin=-0.217892581775345E-01 IErMin= 6 ErrMin= 1.73D-05
 ErrMax= 1.73D-05  0.00D+00 EMaxC= 1.00D-01 BMatC= 1.63D-08 BMatP= 1.82D-07
 IDIUse=1 WtCom= 1.00D+00 WtEn= 0.00D+00
 Coeff-Com: -0.453D-02 0.217D-01-0.720D-01 0.214D+00-0.755D+00 0.160D+01
 Coeff:     -0.453D-02 0.217D-01-0.720D-01 0.214D+00-0.755D+00 0.160D+01
 Gap=     0.377 Goal=   None    Shift=    0.000
 RMSDP=9.51D-06 MaxDP=1.16D-04 DE=-1.14D-06 OVMax= 9.43D-05

 Cycle   7  Pass 1  IDiag  3:
 E=-0.217893707755934E-01 Delta-E=       -0.000000112598 Rises=F Damp=F
 DIIS: error= 4.13D-06 at cycle   7 NSaved=   7.
 NSaved= 7 IEnMin= 7 EnMin=-0.217893707755934E-01 IErMin= 7 ErrMin= 4.13D-06
 ErrMax= 4.13D-06  0.00D+00 EMaxC= 1.00D-01 BMatC= 1.03D-09 BMatP= 1.63D-08
 IDIUse=1 WtCom= 1.00D+00 WtEn= 0.00D+00
 Coeff-Com:  0.112D-02-0.533D-02 0.174D-01-0.542D-01 0.254D+00-0.770D+00
 Coeff-Com:  0.156D+01
 Coeff:      0.112D-02-0.533D-02 0.174D-01-0.542D-01 0.254D+00-0.770D+00
 Coeff:      0.156D+01
 Gap=     0.377 Goal=   None    Shift=    0.000
 RMSDP=2.39D-06 MaxDP=3.17D-05 DE=-1.13D-07 OVMax= 3.03D-05

 Cycle   8  Pass 1  IDiag  3:
 E=-0.217893775859466E-01 Delta-E=       -0.000000006810 Rises=F Damp=F
 DIIS: error= 1.13D-06 at cycle   8 NSaved=   8.
 NSaved= 8 IEnMin= 8 EnMin=-0.217893775859466E-01 IErMin= 8 ErrMin= 1.13D-06
 ErrMax= 1.13D-06  0.00D+00 EMaxC= 1.00D-01 BMatC= 4.72D-11 BMatP= 1.03D-09
 IDIUse=1 WtCom= 1.00D+00 WtEn= 0.00D+00
 Coeff-Com: -0.114D-03 0.532D-03-0.165D-02 0.573D-02-0.435D-01 0.174D+00
 Coeff-Com: -0.522D+00 0.139D+01
 Coeff:     -0.114D-03 0.532D-03-0.165D-02 0.573D-02-0.435D-01 0.174D+00
 Coeff:     -0.522D+00 0.139D+01
 Gap=     0.377 Goal=   None    Shift=    0.000
 RMSDP=4.65D-07 MaxDP=7.63D-06 DE=-6.81D-09 OVMax= 7.00D-06

 Cycle   9  Pass 1  IDiag  3:
 E=-0.217893778905704E-01 Delta-E=       -0.000000000305 Rises=F Damp=F
 DIIS: error= 2.81D-07 at cycle   9 NSaved=   9.
 NSaved= 9 IEnMin= 9 EnMin=-0.217893778905704E-01 IErMin= 9 ErrMin= 2.81D-07
 ErrMax= 2.81D-07  0.00D+00 EMaxC= 1.00D-01 BMatC= 4.50D-12 BMatP= 4.72D-11
 IDIUse=1 WtCom= 1.00D+00 WtEn= 0.00D+00
 Coeff-Com:  0.356D-04-0.163D-03 0.458D-03-0.168D-02 0.171D-01-0.760D-01
 Coeff-Com:  0.251D+00-0.875D+00 0.168D+01
 Coeff:      0.356D-04-0.163D-03 0.458D-03-0.168D-02 0.171D-01-0.760D-01
 Coeff:      0.251D+00-0.875D+00 0.168D+01
 Gap=     0.377 Goal=   None    Shift=    0.000
 RMSDP=1.65D-07 MaxDP=2.49D-06 DE=-3.05D-10 OVMax= 2.36D-06

 Cycle  10  Pass 1  IDiag  3:
 E=-0.217893779217775E-01 Delta-E=       -0.000000000031 Rises=F Damp=F
 DIIS: error= 6.91D-08 at cycle  10 NSaved=  10.
 NSaved=10 IEnMin=10 EnMin=-0.217893779217775E-01 IErMin=10 ErrMin= 6.91D-08
 ErrMax= 6.91D-08  0.00D+00 EMaxC= 1.00D-01 BMatC= 2.46D-13 BMatP= 4.50D-12
 IDIUse=1 WtCom= 1.00D+00 WtEn= 0.00D+00
 Coeff-Com: -0.495D-05 0.211D-04-0.425D-04 0.251D-03-0.458D-02 0.225D-01
 Coeff-Com: -0.784D-01 0.309D+00-0.794D+00 0.155D+01
 Coeff:     -0.495D-05 0.211D-04-0.425D-04 0.251D-03-0.458D-02 0.225D-01
 Coeff:     -0.784D-01 0.309D+00-0.794D+00 0.155D+01
 Gap=     0.377 Goal=   None    Shift=    0.000
 RMSDP=3.83D-08 MaxDP=4.90D-07 DE=-3.12D-11 OVMax= 4.45D-07

 Cycle  11  Pass 1  IDiag  3:
 E=-0.217893779241081E-01 Delta-E=       -0.000000000002 Rises=F Damp=F
 DIIS: error= 1.15D-08 at cycle  11 NSaved=  11.
 NSaved=11 IEnMin=11 EnMin=-0.217893779241081E-01 IErMin=11 ErrMin= 1.15D-08
 ErrMax= 1.15D-08  0.00D+00 EMaxC= 1.00D-01 BMatC= 8.40D-15 BMatP= 2.46D-13
 IDIUse=1 WtCom= 1.00D+00 WtEn= 0.00D+00
 Coeff-Com:  0.712D-06-0.256D-05-0.386D-06-0.375D-04 0.131D-02-0.681D-02
 Coeff-Com:  0.244D-01-0.100D+00 0.278D+00-0.659D+00 0.146D+01
 Coeff:      0.712D-06-0.256D-05-0.386D-06-0.375D-04 0.131D-02-0.681D-02
 Coeff:      0.244D-01-0.100D+00 0.278D+00-0.659D+00 0.146D+01
 Gap=     0.377 Goal=   None    Shift=    0.000
 RMSDP=5.87D-09 MaxDP=8.06D-08 DE=-2.33D-12 OVMax= 4.76D-08

 Cycle  12  Pass 2  IDiag  1:
 SCF Done:  E(RPM3) = -0.217893779241E-01 A.U. after   12 cycles
            NFock= 11  Conv=0.59D-08     -V/T= 0.9997
 KE=-7.902611596944D+01 PE=-4.950041705587D+02 EE= 2.676537997971D+02
 Leave Link  502 at Mon Jul 26 19:32:15 2021, MaxMem=   131072000 cpu:               0.1 elap:               0.0
 (Enter /opt/g16/l601.exe)
 Copying SCF densities to generalized density rwf, IOpCl= 0 IROHF=0.

 **********************************************************************

            Population analysis using the SCF density.

 **********************************************************************

 Orbital symmetries:
       Occupied  (A) (A) (A) (A) (A) (A) (A) (A) (A) (A) (A) (A)
                 (A) (A) (A) (A) (A) (A) (A) (A) (A) (A) (A) (A)
                 (A) (A) (A) (A) (A)
       Virtual   (A) (A) (A) (A) (A) (A) (A) (A) (A) (A) (A) (A)
                 (A) (A) (A) (A) (A) (A) (A) (A) (A) (A) (A) (A)
                 (A) (A) (A) (A) (A)
 The electronic state is 1-A.
 Alpha  occ. eigenvalues --   -1.45723  -1.34915  -1.17708  -1.10953  -1.01303
 Alpha  occ. eigenvalues --   -0.94687  -0.86487  -0.80548  -0.66820  -0.64733
 Alpha  occ. eigenvalues --   -0.61258  -0.58348  -0.57688  -0.56148  -0.54970
 Alpha  occ. eigenvalues --   -0.53203  -0.51101  -0.50537  -0.49357  -0.48648
 Alpha  occ. eigenvalues --   -0.48323  -0.47417  -0.47361  -0.47126  -0.45566
 Alpha  occ. eigenvalues --   -0.43300  -0.42137  -0.35491  -0.34279
 Alpha virt. eigenvalues --    0.03401   0.04217   0.11786   0.12354   0.13188
 Alpha virt. eigenvalues --    0.13734   0.13963   0.14337   0.14868   0.15013
 Alpha virt. eigenvalues --    0.15513   0.15707   0.15859   0.16103   0.16397
 Alpha virt. eigenvalues --    0.16461   0.16582   0.16692   0.16910   0.16924
 Alpha virt. eigenvalues --    0.17087   0.17191   0.17847   0.17949   0.18174
 Alpha virt. eigenvalues --    0.20786   0.21043   0.22374   0.22420
          Condensed to atoms (all electrons):
               1          2          3          4          5          6
     1  C    4.050228   0.000000   0.000000   0.000000   0.000000   0.000000
     2  H    0.000000   0.943255   0.000000   0.000000   0.000000   0.000000
     3  H    0.000000   0.000000   0.947789   0.000000   0.000000   0.000000
     4  C    0.000000   0.000000   0.000000   4.127116   0.000000   0.000000
     5  C    0.000000   0.000000   0.000000   0.000000   4.066397   0.000000
     6  H    0.000000   0.000000   0.000000   0.000000   0.000000   0.960201
     7  H    0.000000   0.000000   0.000000   0.000000   0.000000   0.000000
     8  H    0.000000   0.000000   0.000000   0.000000   0.000000   0.000000
     9  C    0.000000   0.000000   0.000000   0.000000   0.000000   0.000000
    10  H    0.000000   0.000000   0.000000   0.000000   0.000000   0.000000
    11  C    0.000000   0.000000   0.000000   0.000000   0.000000   0.000000
    12  H    0.000000   0.000000   0.000000   0.000000   0.000000   0.000000
    13  H    0.000000   0.000000   0.000000   0.000000   0.000000   0.000000
    14  H    0.000000   0.000000   0.000000   0.000000   0.000000   0.000000
    15  C    0.000000   0.000000   0.000000   0.000000   0.000000   0.000000
    16  H    0.000000   0.000000   0.000000   0.000000   0.000000   0.000000
    17  H    0.000000   0.000000   0.000000   0.000000   0.000000   0.000000
    18  H    0.000000   0.000000   0.000000   0.000000   0.000000   0.000000
    19  C    0.000000   0.000000   0.000000   0.000000   0.000000   0.000000
    20  C    0.000000   0.000000   0.000000   0.000000   0.000000   0.000000
    21  H    0.000000   0.000000   0.000000   0.000000   0.000000   0.000000
    22  H    0.000000   0.000000   0.000000   0.000000   0.000000   0.000000
    23  H    0.000000   0.000000   0.000000   0.000000   0.000000   0.000000
    24  C    0.000000   0.000000   0.000000   0.000000   0.000000   0.000000
    25  H    0.000000   0.000000   0.000000   0.000000   0.000000   0.000000
    26  C    0.000000   0.000000   0.000000   0.000000   0.000000   0.000000
    27  H    0.000000   0.000000   0.000000   0.000000   0.000000   0.000000
    28  H    0.000000   0.000000   0.000000   0.000000   0.000000   0.000000
               7          8          9         10         11         12
     1  C    0.000000   0.000000   0.000000   0.000000   0.000000   0.000000
     2  H    0.000000   0.000000   0.000000   0.000000   0.000000   0.000000
     3  H    0.000000   0.000000   0.000000   0.000000   0.000000   0.000000
     4  C    0.000000   0.000000   0.000000   0.000000   0.000000   0.000000
     5  C    0.000000   0.000000   0.000000   0.000000   0.000000   0.000000
     6  H    0.000000   0.000000   0.000000   0.000000   0.000000   0.000000
     7  H    0.955870   0.000000   0.000000   0.000000   0.000000   0.000000
     8  H    0.000000   0.954720   0.000000   0.000000   0.000000   0.000000
     9  C    0.000000   0.000000   4.150890   0.000000   0.000000   0.000000
    10  H    0.000000   0.000000   0.000000   0.906215   0.000000   0.000000
    11  C    0.000000   0.000000   0.000000   0.000000   4.069165   0.000000
    12  H    0.000000   0.000000   0.000000   0.000000   0.000000   0.958422
    13  H    0.000000   0.000000   0.000000   0.000000   0.000000   0.000000
    14  H    0.000000   0.000000   0.000000   0.000000   0.000000   0.000000
    15  C    0.000000   0.000000   0.000000   0.000000   0.000000   0.000000
    16  H    0.000000   0.000000   0.000000   0.000000   0.000000   0.000000
    17  H    0.000000   0.000000   0.000000   0.000000   0.000000   0.000000
    18  H    0.000000   0.000000   0.000000   0.000000   0.000000   0.000000
    19  C    0.000000   0.000000   0.000000   0.000000   0.000000   0.000000
    20  C    0.000000   0.000000   0.000000   0.000000   0.000000   0.000000
    21  H    0.000000   0.000000   0.000000   0.000000   0.000000   0.000000
    22  H    0.000000   0.000000   0.000000   0.000000   0.000000   0.000000
    23  H    0.000000   0.000000   0.000000   0.000000   0.000000   0.000000
    24  C    0.000000   0.000000   0.000000   0.000000   0.000000   0.000000
    25  H    0.000000   0.000000   0.000000   0.000000   0.000000   0.000000
    26  C    0.000000   0.000000   0.000000   0.000000   0.000000   0.000000
    27  H    0.000000   0.000000   0.000000   0.000000   0.000000   0.000000
    28  H    0.000000   0.000000   0.000000   0.000000   0.000000   0.000000
              13         14         15         16         17         18
     1  C    0.000000   0.000000   0.000000   0.000000   0.000000   0.000000
     2  H    0.000000   0.000000   0.000000   0.000000   0.000000   0.000000
     3  H    0.000000   0.000000   0.000000   0.000000   0.000000   0.000000
     4  C    0.000000   0.000000   0.000000   0.000000   0.000000   0.000000
     5  C    0.000000   0.000000   0.000000   0.000000   0.000000   0.000000
     6  H    0.000000   0.000000   0.000000   0.000000   0.000000   0.000000
     7  H    0.000000   0.000000   0.000000   0.000000   0.000000   0.000000
     8  H    0.000000   0.000000   0.000000   0.000000   0.000000   0.000000
     9  C    0.000000   0.000000   0.000000   0.000000   0.000000   0.000000
    10  H    0.000000   0.000000   0.000000   0.000000   0.000000   0.000000
    11  C    0.000000   0.000000   0.000000   0.000000   0.000000   0.000000
    12  H    0.000000   0.000000   0.000000   0.000000   0.000000   0.000000
    13  H    0.955072   0.000000   0.000000   0.000000   0.000000   0.000000
    14  H    0.000000   0.955368   0.000000   0.000000   0.000000   0.000000
    15  C    0.000000   0.000000   4.068503   0.000000   0.000000   0.000000
    16  H    0.000000   0.000000   0.000000   0.956524   0.000000   0.000000
    17  H    0.000000   0.000000   0.000000   0.000000   0.954728   0.000000
    18  H    0.000000   0.000000   0.000000   0.000000   0.000000   0.953749
    19  C    0.000000   0.000000   0.000000   0.000000   0.000000   0.000000
    20  C    0.000000   0.000000   0.000000   0.000000   0.000000   0.000000
    21  H    0.000000   0.000000   0.000000   0.000000   0.000000   0.000000
    22  H    0.000000   0.000000   0.000000   0.000000   0.000000   0.000000
    23  H    0.000000   0.000000   0.000000   0.000000   0.000000   0.000000
    24  C    0.000000   0.000000   0.000000   0.000000   0.000000   0.000000
    25  H    0.000000   0.000000   0.000000   0.000000   0.000000   0.000000
    26  C    0.000000   0.000000   0.000000   0.000000   0.000000   0.000000
    27  H    0.000000   0.000000   0.000000   0.000000   0.000000   0.000000
    28  H    0.000000   0.000000   0.000000   0.000000   0.000000   0.000000
              19         20         21         22         23         24
     1  C    0.000000   0.000000   0.000000   0.000000   0.000000   0.000000
     2  H    0.000000   0.000000   0.000000   0.000000   0.000000   0.000000
     3  H    0.000000   0.000000   0.000000   0.000000   0.000000   0.000000
     4  C    0.000000   0.000000   0.000000   0.000000   0.000000   0.000000
     5  C    0.000000   0.000000   0.000000   0.000000   0.000000   0.000000
     6  H    0.000000   0.000000   0.000000   0.000000   0.000000   0.000000
     7  H    0.000000   0.000000   0.000000   0.000000   0.000000   0.000000
     8  H    0.000000   0.000000   0.000000   0.000000   0.000000   0.000000
     9  C    0.000000   0.000000   0.000000   0.000000   0.000000   0.000000
    10  H    0.000000   0.000000   0.000000   0.000000   0.000000   0.000000
    11  C    0.000000   0.000000   0.000000   0.000000   0.000000   0.000000
    12  H    0.000000   0.000000   0.000000   0.000000   0.000000   0.000000
    13  H    0.000000   0.000000   0.000000   0.000000   0.000000   0.000000
    14  H    0.000000   0.000000   0.000000   0.000000   0.000000   0.000000
    15  C    0.000000   0.000000   0.000000   0.000000   0.000000   0.000000
    16  H    0.000000   0.000000   0.000000   0.000000   0.000000   0.000000
    17  H    0.000000   0.000000   0.000000   0.000000   0.000000   0.000000
    18  H    0.000000   0.000000   0.000000   0.000000   0.000000   0.000000
    19  C    4.118484   0.000000   0.000000   0.000000   0.000000   0.000000
    20  C    0.000000   4.068606   0.000000   0.000000   0.000000   0.000000
    21  H    0.000000   0.000000   0.955661   0.000000   0.000000   0.000000
    22  H    0.000000   0.000000   0.000000   0.959039   0.000000   0.000000
    23  H    0.000000   0.000000   0.000000   0.000000   0.955780   0.000000
    24  C    0.000000   0.000000   0.000000   0.000000   0.000000   4.158753
    25  H    0.000000   0.000000   0.000000   0.000000   0.000000   0.000000
    26  C    0.000000   0.000000   0.000000   0.000000   0.000000   0.000000
    27  H    0.000000   0.000000   0.000000   0.000000   0.000000   0.000000
    28  H    0.000000   0.000000   0.000000   0.000000   0.000000   0.000000
              25         26         27         28
     1  C    0.000000   0.000000   0.000000   0.000000
     2  H    0.000000   0.000000   0.000000   0.000000
     3  H    0.000000   0.000000   0.000000   0.000000
     4  C    0.000000   0.000000   0.000000   0.000000
     5  C    0.000000   0.000000   0.000000   0.000000
     6  H    0.000000   0.000000   0.000000   0.000000
     7  H    0.000000   0.000000   0.000000   0.000000
     8  H    0.000000   0.000000   0.000000   0.000000
     9  C    0.000000   0.000000   0.000000   0.000000
    10  H    0.000000   0.000000   0.000000   0.000000
    11  C    0.000000   0.000000   0.000000   0.000000
    12  H    0.000000   0.000000   0.000000   0.000000
    13  H    0.000000   0.000000   0.000000   0.000000
    14  H    0.000000   0.000000   0.000000   0.000000
    15  C    0.000000   0.000000   0.000000   0.000000
    16  H    0.000000   0.000000   0.000000   0.000000
    17  H    0.000000   0.000000   0.000000   0.000000
    18  H    0.000000   0.000000   0.000000   0.000000
    19  C    0.000000   0.000000   0.000000   0.000000
    20  C    0.000000   0.000000   0.000000   0.000000
    21  H    0.000000   0.000000   0.000000   0.000000
    22  H    0.000000   0.000000   0.000000   0.000000
    23  H    0.000000   0.000000   0.000000   0.000000
    24  C    0.000000   0.000000   0.000000   0.000000
    25  H    0.904935   0.000000   0.000000   0.000000
    26  C    0.000000   4.052832   0.000000   0.000000
    27  H    0.000000   0.000000   0.948426   0.000000
    28  H    0.000000   0.000000   0.000000   0.943272
 Mulliken charges:
               1
     1  C   -0.050228
     2  H    0.056745
     3  H    0.052211
     4  C   -0.127116
     5  C   -0.066397
     6  H    0.039799
     7  H    0.044130
     8  H    0.045280
     9  C   -0.150890
    10  H    0.093785
    11  C   -0.069165
    12  H    0.041578
    13  H    0.044928
    14  H    0.044632
    15  C   -0.068503
    16  H    0.043476
    17  H    0.045272
    18  H    0.046251
    19  C   -0.118484
    20  C   -0.068606
    21  H    0.044339
    22  H    0.040961
    23  H    0.044220
    24  C   -0.158753
    25  H    0.095065
    26  C   -0.052832
    27  H    0.051574
    28  H    0.056728
 Sum of Mulliken charges =   0.00000
 Mulliken charges with hydrogens summed into heavy atoms:
               1
     1  C    0.058729
     4  C   -0.127116
     5  C    0.062812
     9  C   -0.057104
    11  C    0.061973
    15  C    0.066495
    19  C   -0.118484
    20  C    0.060914
    24  C   -0.063688
    26  C    0.055471
 Charge=              0.0000 electrons
 Dipole moment (field-independent basis, Debye):
    X=             -0.2306    Y=              0.1683    Z=              0.0023  Tot=              0.2855
 N-N= 3.063546973532D+02 E-N=-4.950041707908D+02  KE=-7.902611596944D+01
 Leave Link  601 at Mon Jul 26 19:32:15 2021, MaxMem=   131072000 cpu:               0.0 elap:               0.0
 (Enter /opt/g16/l701.exe)
 ... and contract with generalized density number  0.
 Compute integral first derivatives.
 Leave Link  701 at Mon Jul 26 19:32:15 2021, MaxMem=   131072000 cpu:               0.1 elap:               0.1
 (Enter /opt/g16/l702.exe)
 L702 exits ... SP integral derivatives will be done elsewhere.
 Leave Link  702 at Mon Jul 26 19:32:15 2021, MaxMem=   131072000 cpu:               0.0 elap:               0.0
 (Enter /opt/g16/l703.exe)
 Integral derivatives from FoFJK, PRISM(SPDF).
 Compute integral first derivatives, UseDBF=F ICtDFT=           0.
 Calling FoFJK, ICntrl=      2127 FMM=F ISym2X=0 I1Cent= 0 IOpClX= 0 NMat=1 NMatS=1 NMatT=0.
 FoFJK:  IHMeth= 9 ICntrl=    2127 DoSepK=F KAlg= 0 I1Cent=           0 FoldK=F
 IRaf=         0 NMat=       1 IRICut=       1 DoRegI=T DoRafI=F ISym2E= 0 IDoP0=3 IntGTp=3.
 FoFCou: FMM=F IPFlag=           0 FMFlag=      100000 FMFlg1=         800
         NFxFlg=           0 DoJE=F BraDBF=F KetDBF=F FulRan=T
         wScrn=  0.000000 ICntrl=      2127 IOpCl=  0 I1Cent=           0 NGrid=           0
         NMat0=    1 NMatS0=      1 NMatT0=    0 NMatD0=    1 NMtDS0=    0 NMtDT0=    0
 Symmetry not used in FoFCou.
 Leave Link  703 at Mon Jul 26 19:32:15 2021, MaxMem=   131072000 cpu:               0.0 elap:               0.0
 (Enter /opt/g16/l716.exe)
 Dipole        =-9.07301843D-02 6.61988548D-02 8.98974763D-04
 ***** Axes restored to original set *****
 -------------------------------------------------------------------
 Center     Atomic                   Forces (Hartrees/Bohr)
 Number     Number              X              Y              Z
 -------------------------------------------------------------------
      1        6          -0.006063410   -0.008472901   -0.011556494
      2        1          -0.000502865   -0.004467368    0.006931073
      3        1           0.000283062    0.006788885   -0.001320814
      4        6           0.002839609   -0.000886104    0.002378228
      5        6           0.002830920   -0.009884361    0.012782094
      6        1          -0.001592227   -0.000705013   -0.000823412
      7        1           0.000361381    0.002105613    0.000018851
      8        1           0.002213237    0.000746707   -0.001012650
      9        6           0.013281797    0.003753543    0.004804455
     10        1          -0.004830829   -0.000857242   -0.002684321
     11        6          -0.001853794    0.011601523   -0.013332029
     12        1          -0.000373564   -0.002361010   -0.000178718
     13        1           0.003649066    0.002019211    0.001726041
     14        1          -0.001176670    0.000049994    0.002022381
     15        6           0.002720330    0.015656329   -0.004371739
     16        1           0.001179809   -0.000226155    0.002157424
     17        1           0.001466601   -0.001233522   -0.000294723
     18        1          -0.004191208    0.000072907   -0.003539806
     19        6          -0.004318079   -0.001992393   -0.000161315
     20        6          -0.012690673   -0.005358466   -0.007122713
     21        1           0.000549100   -0.000491121    0.001837575
     22        1           0.000286424    0.001759231   -0.000556773
     23        1           0.001484583   -0.001167909    0.000448358
     24        6          -0.002243700   -0.012492319    0.003986737
     25        1           0.000926625    0.005196553   -0.000690128
     26        6           0.006466834    0.007469549    0.013398690
     27        1          -0.000476310    0.002277451   -0.007024906
     28        1          -0.000226048   -0.008901611    0.002178633
 -------------------------------------------------------------------
 Cartesian Forces:  Max     0.015656329 RMS     0.005407254
 Leave Link  716 at Mon Jul 26 19:32:15 2021, MaxMem=   131072000 cpu:               0.0 elap:               0.0
 (Enter /opt/g16/l103.exe)

 GradGradGradGradGradGradGradGradGradGradGradGradGradGradGradGradGradGrad
 Berny optimization.
 FormGI is forming the generalized inverse of G from B-inverse, IUseBI=4.
 Internal  Forces:  Max     0.018820241 RMS     0.004871288
 Search for a local minimum.
 Step number   1 out of a maximum of  138
 All quantities printed in internal units (Hartrees-Bohrs-Radians)
 RMS Force = .48713D-02 SwitMx=.10000D-02 MixMth= 1
 Mixed Optimization -- RFO/linear search
 Second derivative matrix not updated -- first step.
 ITU=  0
     Eigenvalues ---    0.00344   0.00570   0.00670   0.00680   0.00692
     Eigenvalues ---    0.00714   0.00817   0.01219   0.01286   0.01569
     Eigenvalues ---    0.01641   0.02780   0.02784   0.04018   0.04138
     Eigenvalues ---    0.05349   0.05399   0.06978   0.07035   0.07090
     Eigenvalues ---    0.07093   0.07268   0.07301   0.07347   0.07504
     Eigenvalues ---    0.09278   0.09362   0.12767   0.12843   0.15999
     Eigenvalues ---    0.15999   0.16000   0.16000   0.16000   0.16000
     Eigenvalues ---    0.16000   0.16000   0.16000   0.16000   0.16000
     Eigenvalues ---    0.16000   0.16000   0.16000   0.21859   0.21866
     Eigenvalues ---    0.22000   0.22000   0.24994   0.24997   0.24998
     Eigenvalues ---    0.24999   0.29246   0.30871   0.31630   0.31706
     Eigenvalues ---    0.31801   0.31965   0.32782   0.33866   0.33970
     Eigenvalues ---    0.34062   0.34202   0.34222   0.34234   0.34245
     Eigenvalues ---    0.34250   0.34254   0.34255   0.34256   0.34264
     Eigenvalues ---    0.34294   0.34345   0.34550   0.34552   0.34801
     Eigenvalues ---    0.34854   0.55504   0.55575
 RFO step:  Lambda=-9.52559719D-03 EMin= 3.43659440D-03
 Linear search not attempted -- first point.
 Iteration  1 RMS(Cart)=  0.14030013 RMS(Int)=  0.00237518
 Iteration  2 RMS(Cart)=  0.00421320 RMS(Int)=  0.00008857
 Iteration  3 RMS(Cart)=  0.00000537 RMS(Int)=  0.00008852
 Iteration  4 RMS(Cart)=  0.00000000 RMS(Int)=  0.00008852
 ITry= 1 IFail=0 DXMaxC= 5.49D-01 DCOld= 1.00D+10 DXMaxT= 3.00D-01 DXLimC= 3.00D+00 Rises=F
 Variable       Old X    -DE/DX   Delta X   Delta X   Delta X     New X
                                 (Linear)    (Quad)   (Total)
    R1        2.07226   0.00786   0.00000   0.02246   0.02246   2.09471
    R2        2.07556   0.00678   0.00000   0.01949   0.01949   2.09505
    R3        2.86260  -0.01711   0.00000  -0.05377  -0.05377   2.80883
    R4        2.89492  -0.00785   0.00000  -0.02599  -0.02599   2.86892
    R5        2.84826  -0.01395   0.00000  -0.04281  -0.04281   2.80545
    R6        2.54687  -0.01812   0.00000  -0.03209  -0.03209   2.51478
    R7        2.06957   0.00193   0.00000   0.00548   0.00548   2.07505
    R8        2.06901   0.00192   0.00000   0.00545   0.00545   2.07447
    R9        2.06837   0.00230   0.00000   0.00652   0.00652   2.07489
   R10        2.05913   0.00557   0.00000   0.01556   0.01556   2.07469
   R11        2.82736  -0.01441   0.00000  -0.04272  -0.04272   2.78463
   R12        2.06901   0.00228   0.00000   0.00649   0.00649   2.07549
   R13        2.06408   0.00429   0.00000   0.01208   0.01208   2.07616
   R14        2.06751   0.00226   0.00000   0.00641   0.00641   2.07392
   R15        2.06990   0.00217   0.00000   0.00617   0.00617   2.07607
   R16        2.06887   0.00190   0.00000   0.00539   0.00539   2.07427
   R17        2.06411   0.00472   0.00000   0.01329   0.01329   2.07740
   R18        2.84207  -0.01543   0.00000  -0.04687  -0.04687   2.79521
   R19        2.84686  -0.01281   0.00000  -0.03923  -0.03923   2.80763
   R20        2.54624  -0.01882   0.00000  -0.03329  -0.03329   2.51295
   R21        2.06904   0.00178   0.00000   0.00505   0.00505   2.07409
   R22        2.06937   0.00187   0.00000   0.00530   0.00530   2.07467
   R23        2.06909   0.00171   0.00000   0.00487   0.00487   2.07396
   R24        2.06000   0.00529   0.00000   0.01479   0.01479   2.07479
   R25        2.84510  -0.01614   0.00000  -0.04926  -0.04926   2.79583
   R26        2.07381   0.00735   0.00000   0.02106   0.02106   2.09487
   R27        2.06918   0.00880   0.00000   0.02501   0.02501   2.09419
    A1        1.82993   0.00053   0.00000   0.02064   0.02063   1.85056
    A2        1.93004   0.00084   0.00000  -0.00668  -0.00702   1.92302
    A3        1.91835   0.00084   0.00000  -0.00383  -0.00419   1.91416
    A4        1.90260   0.00176   0.00000   0.01086   0.01095   1.91355
    A5        1.92013   0.00132   0.00000   0.00922   0.00929   1.92942
    A6        1.95843  -0.00486   0.00000  -0.02668  -0.02686   1.93157
    A7        2.00826   0.00220   0.00000   0.00856   0.00852   2.01679
    A8        2.17079  -0.00497   0.00000  -0.01907  -0.01911   2.15168
    A9        2.10395   0.00278   0.00000   0.01080   0.01076   2.11471
   A10        1.95925   0.00027   0.00000   0.00364   0.00363   1.96289
   A11        1.92484   0.00051   0.00000   0.00232   0.00231   1.92715
   A12        1.92808  -0.00064   0.00000  -0.00512  -0.00513   1.92295
   A13        1.87757   0.00010   0.00000   0.00317   0.00315   1.88072
   A14        1.87702   0.00049   0.00000   0.00427   0.00428   1.88129
   A15        1.89492  -0.00075   0.00000  -0.00848  -0.00849   1.88643
   A16        2.06978   0.00457   0.00000   0.01971   0.01968   2.08946
   A17        2.22510  -0.00952   0.00000  -0.04144  -0.04146   2.18364
   A18        1.98817   0.00495   0.00000   0.02193   0.02191   2.01007
   A19        1.90998   0.00126   0.00000   0.00961   0.00961   1.91959
   A20        1.98111  -0.00191   0.00000  -0.01229  -0.01230   1.96882
   A21        1.91726   0.00069   0.00000   0.00289   0.00286   1.92012
   A22        1.87268   0.00069   0.00000   0.00613   0.00616   1.87884
   A23        1.88723  -0.00055   0.00000  -0.00120  -0.00124   1.88600
   A24        1.89295  -0.00015   0.00000  -0.00478  -0.00482   1.88813
   A25        1.89068  -0.00056   0.00000  -0.00260  -0.00261   1.88807
   A26        1.86377   0.00209   0.00000   0.01514   0.01518   1.87895
   A27        1.92080   0.00072   0.00000   0.00616   0.00617   1.92697
   A28        1.88444   0.00093   0.00000   0.00206   0.00199   1.88643
   A29        1.92158   0.00067   0.00000   0.00236   0.00232   1.92390
   A30        1.97968  -0.00371   0.00000  -0.02227  -0.02228   1.95741
   A31        1.99467   0.00344   0.00000   0.01327   0.01326   2.00793
   A32        2.18264  -0.00630   0.00000  -0.02425  -0.02427   2.15838
   A33        2.10583   0.00287   0.00000   0.01107   0.01106   2.11688
   A34        1.92490   0.00031   0.00000   0.00099   0.00099   1.92589
   A35        1.96054   0.00020   0.00000   0.00282   0.00281   1.96335
   A36        1.92343   0.00022   0.00000   0.00053   0.00053   1.92396
   A37        1.87919   0.00004   0.00000   0.00174   0.00173   1.88092
   A38        1.89491  -0.00092   0.00000  -0.00864  -0.00865   1.88626
   A39        1.87887   0.00010   0.00000   0.00218   0.00217   1.88104
   A40        2.06710   0.00596   0.00000   0.02609   0.02603   2.09313
   A41        2.22715  -0.01193   0.00000  -0.05192  -0.05197   2.17518
   A42        1.98881   0.00597   0.00000   0.02612   0.02606   2.01487
   A43        1.94452  -0.00391   0.00000  -0.02100  -0.02121   1.92331
   A44        1.92092   0.00079   0.00000   0.00845   0.00858   1.92951
   A45        1.92609   0.00043   0.00000  -0.00883  -0.00919   1.91689
   A46        1.88052   0.00224   0.00000   0.02000   0.02010   1.90062
   A47        1.94650   0.00048   0.00000  -0.00975  -0.01016   1.93634
   A48        1.84195   0.00028   0.00000   0.01417   0.01422   1.85618
    D1        2.64269   0.00128   0.00000   0.01297   0.01282   2.65551
    D2       -0.47851   0.00088   0.00000  -0.00392  -0.00395  -0.48246
    D3        0.63966  -0.00083   0.00000  -0.01438  -0.01446   0.62520
    D4       -2.48154  -0.00123   0.00000  -0.03128  -0.03123  -2.51278
    D5       -1.49175  -0.00050   0.00000  -0.01595  -0.01591  -1.50765
    D6        1.67023  -0.00090   0.00000  -0.03285  -0.03268   1.63756
    D7       -0.99379  -0.00031   0.00000  -0.00326  -0.00329  -0.99708
    D8       -3.07868  -0.00113   0.00000  -0.02036  -0.02030  -3.09898
    D9        1.17852  -0.00219   0.00000  -0.03742  -0.03727   1.14125
   D10        1.01268   0.00155   0.00000   0.02472   0.02465   1.03733
   D11       -1.07221   0.00073   0.00000   0.00762   0.00764  -1.06457
   D12       -3.09820  -0.00033   0.00000  -0.00944  -0.00934  -3.10753
   D13        3.13409   0.00142   0.00000   0.02695   0.02679  -3.12231
   D14        1.04919   0.00061   0.00000   0.00985   0.00978   1.05897
   D15       -0.97679  -0.00045   0.00000  -0.00721  -0.00719  -0.98399
   D16       -3.13183  -0.00032   0.00000  -0.01410  -0.01420   3.13716
   D17       -1.03843   0.00033   0.00000  -0.00608  -0.00617  -1.04460
   D18        1.05644  -0.00068   0.00000  -0.01843  -0.01852   1.03792
   D19       -0.00977  -0.00004   0.00000   0.00172   0.00180  -0.00797
   D20        2.08363   0.00062   0.00000   0.00974   0.00983   2.09346
   D21       -2.10469  -0.00039   0.00000  -0.00262  -0.00251  -2.10721
   D22        3.11727   0.00012   0.00000   0.00427   0.00422   3.12149
   D23       -0.04329   0.00048   0.00000   0.01853   0.01849  -0.02479
   D24       -0.00287  -0.00029   0.00000  -0.01345  -0.01341  -0.01629
   D25        3.11975   0.00007   0.00000   0.00081   0.00086   3.12061
   D26       -2.22964  -0.00014   0.00000  -0.00488  -0.00485  -2.23450
   D27       -0.13836   0.00037   0.00000   0.00162   0.00160  -0.13676
   D28        1.98414  -0.00064   0.00000  -0.01094  -0.01094   1.97319
   D29        0.89373   0.00021   0.00000   0.00884   0.00886   0.90259
   D30        2.98502   0.00072   0.00000   0.01534   0.01531   3.00033
   D31       -1.17568  -0.00029   0.00000   0.00278   0.00278  -1.17290
   D32        0.92128   0.00002   0.00000   0.00743   0.00742   0.92870
   D33       -2.20962  -0.00022   0.00000  -0.00260  -0.00254  -2.21216
   D34       -1.16164  -0.00015   0.00000   0.00532   0.00530  -1.15634
   D35        1.99065  -0.00039   0.00000  -0.00472  -0.00466   1.98599
   D36        3.00787   0.00072   0.00000   0.01629   0.01620   3.02408
   D37       -0.12303   0.00048   0.00000   0.00625   0.00625  -0.11678
   D38       -1.05168   0.00030   0.00000  -0.00089  -0.00096  -1.05265
   D39        3.13515  -0.00010   0.00000  -0.00566  -0.00573   3.12942
   D40        1.04022  -0.00051   0.00000  -0.01066  -0.01073   1.02950
   D41        2.07974   0.00047   0.00000   0.00842   0.00849   2.08823
   D42       -0.01662   0.00007   0.00000   0.00365   0.00373  -0.01289
   D43       -2.11154  -0.00034   0.00000  -0.00134  -0.00127  -2.11281
   D44        3.12118   0.00012   0.00000   0.00145   0.00139   3.12257
   D45       -0.03866   0.00065   0.00000   0.02292   0.02290  -0.01576
   D46       -0.00909  -0.00014   0.00000  -0.00918  -0.00915  -0.01825
   D47        3.11426   0.00039   0.00000   0.01230   0.01235   3.12661
   D48        1.80408  -0.00084   0.00000  -0.01980  -0.01966   1.78443
   D49       -2.37038  -0.00079   0.00000  -0.00917  -0.00919  -2.37957
   D50       -0.35670   0.00113   0.00000   0.01437   0.01429  -0.34241
   D51       -1.35506  -0.00033   0.00000   0.00091   0.00103  -1.35403
   D52        0.75366  -0.00027   0.00000   0.01154   0.01150   0.76516
   D53        2.76734   0.00165   0.00000   0.03508   0.03497   2.80231
         Item               Value     Threshold  Converged?
 Maximum Force            0.018820     0.000450     NO 
 RMS     Force            0.004871     0.000300     NO 
 Maximum Displacement     0.548992     0.001800     NO 
 RMS     Displacement     0.140130     0.001200     NO 
 Predicted change in Energy=-4.957406D-03
 Lowest energy point so far.  Saving SCF results.
 GradGradGradGradGradGradGradGradGradGradGradGradGradGradGradGradGradGrad

 Leave Link  103 at Mon Jul 26 19:32:15 2021, MaxMem=   131072000 cpu:               0.0 elap:               0.0
 (Enter /opt/g16/l202.exe)
                          Input orientation:                          
 ---------------------------------------------------------------------
 Center     Atomic      Atomic             Coordinates (Angstroms)
 Number     Number       Type             X           Y           Z
 ---------------------------------------------------------------------
      1          6           0       -0.836625    0.866218   -0.032433
      2          1           0       -0.842024    0.575034    1.037098
      3          1           0       -0.842438    1.974747   -0.047938
      4          6           0       -2.054819    0.350750   -0.710361
      5          6           0       -2.519717    1.139685   -1.878876
      6          1           0       -3.418432    0.712278   -2.342977
      7          1           0       -2.755772    2.168379   -1.576975
      8          1           0       -1.734007    1.181020   -2.644722
      9          6           0       -2.705421   -0.740020   -0.313036
     10          1           0       -3.611097   -1.057933   -0.845969
     11          6           0       -2.308077   -1.599947    0.815694
     12          1           0       -2.256586   -2.647446    0.489559
     13          1           0       -1.326804   -1.331625    1.230612
     14          1           0       -3.050871   -1.530335    1.620591
     15          6           0        2.036811   -1.281672    1.226697
     16          1           0        1.985601   -1.380410    2.319662
     17          1           0        2.817391   -1.959516    0.857818
     18          1           0        1.073153   -1.615422    0.816251
     19          6           0        2.350674    0.113592    0.849018
     20          6           0        3.560620    0.683377    1.496153
     21          1           0        3.443901    0.686783    2.587484
     22          1           0        3.761163    1.714644    1.177425
     23          1           0        4.443008    0.079000    1.249963
     24          6           0        1.621504    0.828554   -0.002744
     25          1           0        1.900995    1.866608   -0.225859
     26          6           0        0.416366    0.330519   -0.701669
     27          1           0        0.458346    0.650633   -1.762172
     28          1           0        0.393258   -0.777398   -0.710892
 ---------------------------------------------------------------------
                    Distance matrix (angstroms):
                    1          2          3          4          5
     1  C    0.000000
     2  H    1.108473   0.000000
     3  H    1.108652   1.771017   0.000000
     4  C    1.486369   2.138875   2.132144   0.000000
     5  C    2.513352   3.411215   2.619719   1.484579   0.000000
     6  H    3.468147   4.252249   3.673797   2.157679   1.098069
     7  H    2.786460   3.610340   2.456887   2.132165   1.097760
     8  H    2.780009   3.836489   2.858003   2.129324   1.097984
     9  C    2.480149   2.650373   3.303172   1.330763   2.453494
    10  H    3.473024   3.725626   4.183237   2.103516   2.662242
    11  C    2.994406   2.632276   3.958838   2.489619   3.848517
    12  H    3.825520   3.561624   4.863475   3.235691   4.474493
    13  H    2.581874   1.976818   3.577904   2.669788   4.147207
    14  H    3.657710   3.106775   4.466180   3.156570   4.433666
    15  C    3.802035   3.430888   4.529794   4.812321   6.022416
    16  H    4.306350   3.669359   4.986022   5.338815   6.654058
    17  H    4.704163   4.455042   5.449143   5.615598   6.751242
    18  H    3.244388   2.918008   4.160003   3.997572   5.269065
    19  C    3.391501   3.231350   3.803208   4.679346   5.675825
    20  C    4.658944   4.427837   4.841360   6.042557   6.969185
    21  H    5.021858   4.559093   5.193938   6.420640   7.464464
    22  H    4.829414   4.744232   4.770986   6.264950   7.008639
    23  H    5.489879   5.312525   5.763188   6.792531   7.706765
    24  C    2.458596   2.685984   2.717868   3.774171   4.557015
    25  H    2.921088   3.284414   2.751322   4.263922   4.775309
    26  C    1.518169   2.160241   2.171506   2.471283   3.265142
    27  H    2.171502   3.087488   2.526640   2.740845   3.020207
    28  H    2.162035   2.531889   3.088811   2.695515   3.677610
                    6          7          8          9         10
     6  H    0.000000
     7  H    1.773727   0.000000
     8  H    1.774277   1.777348   0.000000
     9  C    2.595808   3.171571   3.173452   0.000000
    10  H    2.326327   3.416875   3.431018   1.097878   0.000000
    11  C    4.068965   4.486154   4.476361   1.473563   2.180084
    12  H    4.545426   5.264211   4.975335   2.117519   2.478889
    13  H    4.617682   4.708983   4.636530   2.152540   3.099208
    14  H    4.568839   4.898162   5.222879   2.117273   2.573118
    15  C    6.817484   6.536993   5.939006   5.015269   6.020371
    16  H    7.437952   7.089308   6.711297   5.417277   6.438031
    17  H    7.501271   7.350365   6.545683   5.775770   6.711274
    18  H    5.964332   5.891124   5.261042   4.039707   5.001597
    19  C    6.620412   6.015262   5.479985   5.257673   6.307787
    20  C    7.965358   7.179564   6.739997   6.675514   7.742817
    21  H    8.449953   7.614051   7.377735   6.947153   8.037763
    22  H    8.058819   7.089643   6.714943   7.075561   8.132129
    23  H    8.666747   8.011212   7.385021   7.363002   8.399652
    24  C    5.557983   4.840855   4.285292   4.612915   5.625831
    25  H    5.840460   4.858194   4.419747   5.293503   6.270617
    26  C    4.188712   3.769131   3.020415   3.323047   4.262520
    27  H    3.920528   3.559269   2.422109   3.747443   4.507659
    28  H    4.405885   4.398191   3.478556   3.124339   4.016442
                   11         12         13         14         15
    11  C    0.000000
    12  H    1.098303   0.000000
    13  H    1.098659   1.773425   0.000000
    14  H    1.097473   1.777093   1.778757   0.000000
    15  C    4.375874   4.565300   3.363987   5.108962   0.000000
    16  H    4.554755   4.790700   3.487182   5.086967   1.098610
    17  H    5.138238   5.133624   4.208036   5.933170   1.097656
    18  H    3.381265   3.501280   2.451943   4.202591   1.099314
    19  C    4.964000   5.383251   3.969649   5.698641   1.479161
    20  C    6.333893   6.778458   5.293170   6.973364   2.501204
    21  H    6.438449   6.929208   5.354876   6.930552   2.776051
    22  H    6.924814   7.464201   5.930429   7.558445   3.457417
    23  H    6.970266   7.272983   5.939778   7.673692   2.764373
    24  C    4.691382   5.231111   3.857468   5.480024   2.477309
    25  H    5.551408   6.178510   4.771654   6.282481   3.469875
    26  C    3.667653   4.175161   3.087891   4.569179   2.990585
    27  H    4.400409   4.828920   4.009097   5.339878   3.893416
    28  H    3.210025   3.458299   2.652398   4.226671   2.590330
                   16         17         18         19         20
    16  H    0.000000
    17  H    1.778827   0.000000
    18  H    1.774271   1.778340   0.000000
    19  C    2.127937   2.125013   2.150029   0.000000
    20  C    2.723613   2.818642   3.454596   1.485734   0.000000
    21  H    2.543944   3.222911   3.749381   2.132125   1.097560
    22  H    3.746556   3.806876   4.294786   2.158864   1.097869
    23  H    3.051718   2.636656   3.796722   2.130684   1.097493
    24  C    3.225780   3.153418   2.635235   1.329796   2.455186
    25  H    4.126737   4.080853   3.727714   2.104908   2.668279
    26  C    3.810278   3.666221   2.553848   2.488622   3.852436
    27  H    4.808223   4.386607   3.487300   3.269194   4.499095
    28  H    3.476124   3.120044   1.869949   2.656815   4.127602
                   21         22         23         24         25
    21  H    0.000000
    22  H    1.773533   0.000000
    23  H    1.776676   1.773557   0.000000
    24  C    3.170254   2.599249   3.176790   0.000000
    25  H    3.418690   2.335064   3.440265   1.097930   0.000000
    26  C    4.484576   4.078537   4.481738   1.479491   2.188627
    27  H    5.275827   4.547741   5.027649   2.116643   2.433123
    28  H    4.725414   4.595520   4.580268   2.142230   3.082093
                   26         27         28
    26  C    0.000000
    27  H    1.108558   0.000000
[...]
    26  C    3.809882   4.057233   3.384942   4.838108   3.007133
    27  H    4.536422   4.756954   4.296904   5.559592   3.609217
    28  H    3.447855   3.401081   3.150134   4.537928   2.553275
                   16         17         18         19         20
    16  H    0.000000
    17  H    1.773344   0.000000
    18  H    1.777762   1.777198   0.000000
    19  C    2.139618   2.136197   2.156137   0.000000
    20  C    2.741850   2.834162   3.464774   1.488008   0.000000
    21  H    2.573221   3.244283   3.769273   2.138457   1.098621
    22  H    3.768149   3.821853   4.306547   2.163925   1.098031
    23  H    3.062761   2.654665   3.808600   2.138116   1.098528
    24  C    3.246145   3.171507   2.645433   1.339752   2.463880
    25  H    4.151197   4.096857   3.738715   2.113953   2.676318
    26  C    3.829252   3.684551   2.564102   2.502919   3.867271
    27  H    4.578581   4.018567   3.168981   3.124167   4.405444
    28  H    3.319346   3.235546   1.769047   2.649690   4.132928
                   21         22         23         24         25
    21  H    0.000000
    22  H    1.772193   0.000000
    23  H    1.772096   1.772324   0.000000
    24  C    3.181899   2.608570   3.193360   0.000000
    25  H    3.429820   2.345118   3.453201   1.098258   0.000000
    26  C    4.503381   4.094812   4.504915   1.486452   2.195863
    27  H    5.208133   4.557922   4.857058   2.118925   2.610002
    28  H    4.635522   4.617484   4.685030   2.151829   3.107864
                   26         27         28
    26  C    0.000000
    27  H    1.109307   0.000000
    28  H    1.113558   1.772330   0.000000
 Stoichiometry    C10H18
 Framework group  C1[X(C10H18)]
 Deg. of freedom    78
 Full point group                 C1      NOp   1
 RotChk:  IX=2 Diff= 4.49D-16
 Largest Abelian subgroup         C1      NOp   1
 Largest concise Abelian subgroup C1      NOp   1
                         Standard orientation:                         
 ---------------------------------------------------------------------
 Center     Atomic      Atomic             Coordinates (Angstroms)
 Number     Number       Type             X           Y           Z
 ---------------------------------------------------------------------
      1          6           0        0.883431   -0.517589    0.676795
      2          1           0        0.702314    0.355110    1.344436
      3          1           0        0.859708   -1.412895    1.329485
      4          6           0        2.231660   -0.396095    0.041223
      5          6           0        2.822975   -1.657882   -0.479530
      6          1           0        3.792775   -1.500165   -0.969836
      7          1           0        2.976970   -2.377155    0.336656
      8          1           0        2.153823   -2.129299   -1.213263
      9          6           0        2.892068    0.766675   -0.049384
     10          1           0        3.880921    0.797637   -0.525003
     11          6           0        2.385812    2.060248    0.457686
     12          1           0        2.118942    2.722656   -0.376554
     13          1           0        1.489201    1.937996    1.088459
     14          1           0        3.150287    2.570682    1.057542
     15          6           0       -2.626891    1.073988   -1.057133
     16          1           0       -3.015535    2.010332   -0.635406
     17          1           0       -3.262461    0.803189   -1.910782
     18          1           0       -1.613681    1.273618   -1.443179
     19          6           0       -2.630218   -0.007855   -0.038400
     20          6           0       -3.935511   -0.236630    0.638386
     21          1           0       -4.257277    0.666881    1.174203
     22          1           0       -3.897842   -1.057809    1.366342
     23          1           0       -4.714672   -0.480290   -0.096667
     24          6           0       -1.553062   -0.743527    0.267309
     25          1           0       -1.624161   -1.526464    1.034202
     26          6           0       -0.219585   -0.592825   -0.371962
     27          1           0       -0.052803   -1.455922   -1.048578
     28          1           0       -0.190584    0.310845   -1.022002
 ---------------------------------------------------------------------
 Rotational constants (GHZ):           2.2906589           0.5551381           0.4932905
 Leave Link  202 at Mon Jul 26 19:32:35 2021, MaxMem=   131072000 cpu:               0.0 elap:               0.0
 (Enter /opt/g16/l601.exe)
 Copying SCF densities to generalized density rwf, IOpCl= 0 IROHF=0.

 **********************************************************************

            Population analysis using the SCF density.

 **********************************************************************

 Orbital symmetries:
       Occupied  (A) (A) (A) (A) (A) (A) (A) (A) (A) (A) (A) (A)
                 (A) (A) (A) (A) (A) (A) (A) (A) (A) (A) (A) (A)
                 (A) (A) (A) (A) (A)
       Virtual   (A) (A) (A) (A) (A) (A) (A) (A) (A) (A) (A) (A)
                 (A) (A) (A) (A) (A) (A) (A) (A) (A) (A) (A) (A)
                 (A) (A) (A) (A) (A)
 The electronic state is 1-A.
 Alpha  occ. eigenvalues --   -1.47330  -1.36302  -1.17453  -1.11073  -1.01433
 Alpha  occ. eigenvalues --   -0.94486  -0.86190  -0.80100  -0.67510  -0.63998
 Alpha  occ. eigenvalues --   -0.61528  -0.59105  -0.57983  -0.56720  -0.55114
 Alpha  occ. eigenvalues --   -0.53262  -0.51103  -0.50837  -0.48766  -0.48376
 Alpha  occ. eigenvalues --   -0.48316  -0.47567  -0.47209  -0.46968  -0.45918
 Alpha  occ. eigenvalues --   -0.43156  -0.41918  -0.35260  -0.34220
 Alpha virt. eigenvalues --    0.03512   0.04208   0.12064   0.12661   0.13321
 Alpha virt. eigenvalues --    0.13446   0.14003   0.14195   0.14776   0.14925
 Alpha virt. eigenvalues --    0.15502   0.15731   0.15900   0.15948   0.16346
 Alpha virt. eigenvalues --    0.16358   0.16565   0.16615   0.16923   0.17017
 Alpha virt. eigenvalues --    0.17047   0.17164   0.17743   0.17935   0.18083
 Alpha virt. eigenvalues --    0.21018   0.21289   0.22409   0.22442
          Condensed to atoms (all electrons):
               1          2          3          4          5          6
     1  C    4.060711   0.000000   0.000000   0.000000   0.000000   0.000000
     2  H    0.000000   0.937240   0.000000   0.000000   0.000000   0.000000
     3  H    0.000000   0.000000   0.944613   0.000000   0.000000   0.000000
     4  C    0.000000   0.000000   0.000000   4.128516   0.000000   0.000000
     5  C    0.000000   0.000000   0.000000   0.000000   4.068412   0.000000
     6  H    0.000000   0.000000   0.000000   0.000000   0.000000   0.958721
     7  H    0.000000   0.000000   0.000000   0.000000   0.000000   0.000000
     8  H    0.000000   0.000000   0.000000   0.000000   0.000000   0.000000
     9  C    0.000000   0.000000   0.000000   0.000000   0.000000   0.000000
    10  H    0.000000   0.000000   0.000000   0.000000   0.000000   0.000000
    11  C    0.000000   0.000000   0.000000   0.000000   0.000000   0.000000
    12  H    0.000000   0.000000   0.000000   0.000000   0.000000   0.000000
    13  H    0.000000   0.000000   0.000000   0.000000   0.000000   0.000000
    14  H    0.000000   0.000000   0.000000   0.000000   0.000000   0.000000
    15  C    0.000000   0.000000   0.000000   0.000000   0.000000   0.000000
    16  H    0.000000   0.000000   0.000000   0.000000   0.000000   0.000000
    17  H    0.000000   0.000000   0.000000   0.000000   0.000000   0.000000
    18  H    0.000000   0.000000   0.000000   0.000000   0.000000   0.000000
    19  C    0.000000   0.000000   0.000000   0.000000   0.000000   0.000000
    20  C    0.000000   0.000000   0.000000   0.000000   0.000000   0.000000
    21  H    0.000000   0.000000   0.000000   0.000000   0.000000   0.000000
    22  H    0.000000   0.000000   0.000000   0.000000   0.000000   0.000000
    23  H    0.000000   0.000000   0.000000   0.000000   0.000000   0.000000
    24  C    0.000000   0.000000   0.000000   0.000000   0.000000   0.000000
    25  H    0.000000   0.000000   0.000000   0.000000   0.000000   0.000000
    26  C    0.000000   0.000000   0.000000   0.000000   0.000000   0.000000
    27  H    0.000000   0.000000   0.000000   0.000000   0.000000   0.000000
    28  H    0.000000   0.000000   0.000000   0.000000   0.000000   0.000000
               7          8          9         10         11         12
     1  C    0.000000   0.000000   0.000000   0.000000   0.000000   0.000000
     2  H    0.000000   0.000000   0.000000   0.000000   0.000000   0.000000
     3  H    0.000000   0.000000   0.000000   0.000000   0.000000   0.000000
     4  C    0.000000   0.000000   0.000000   0.000000   0.000000   0.000000
     5  C    0.000000   0.000000   0.000000   0.000000   0.000000   0.000000
     6  H    0.000000   0.000000   0.000000   0.000000   0.000000   0.000000
     7  H    0.955579   0.000000   0.000000   0.000000   0.000000   0.000000
     8  H    0.000000   0.954590   0.000000   0.000000   0.000000   0.000000
     9  C    0.000000   0.000000   4.149731   0.000000   0.000000   0.000000
    10  H    0.000000   0.000000   0.000000   0.901748   0.000000   0.000000
    11  C    0.000000   0.000000   0.000000   0.000000   4.080707   0.000000
    12  H    0.000000   0.000000   0.000000   0.000000   0.000000   0.954422
    13  H    0.000000   0.000000   0.000000   0.000000   0.000000   0.000000
    14  H    0.000000   0.000000   0.000000   0.000000   0.000000   0.000000
    15  C    0.000000   0.000000   0.000000   0.000000   0.000000   0.000000
    16  H    0.000000   0.000000   0.000000   0.000000   0.000000   0.000000
    17  H    0.000000   0.000000   0.000000   0.000000   0.000000   0.000000
    18  H    0.000000   0.000000   0.000000   0.000000   0.000000   0.000000
    19  C    0.000000   0.000000   0.000000   0.000000   0.000000   0.000000
    20  C    0.000000   0.000000   0.000000   0.000000   0.000000   0.000000
    21  H    0.000000   0.000000   0.000000   0.000000   0.000000   0.000000
    22  H    0.000000   0.000000   0.000000   0.000000   0.000000   0.000000
    23  H    0.000000   0.000000   0.000000   0.000000   0.000000   0.000000
    24  C    0.000000   0.000000   0.000000   0.000000   0.000000   0.000000
    25  H    0.000000   0.000000   0.000000   0.000000   0.000000   0.000000
    26  C    0.000000   0.000000   0.000000   0.000000   0.000000   0.000000
    27  H    0.000000   0.000000   0.000000   0.000000   0.000000   0.000000
    28  H    0.000000   0.000000   0.000000   0.000000   0.000000   0.000000
              13         14         15         16         17         18
     1  C    0.000000   0.000000   0.000000   0.000000   0.000000   0.000000
     2  H    0.000000   0.000000   0.000000   0.000000   0.000000   0.000000
     3  H    0.000000   0.000000   0.000000   0.000000   0.000000   0.000000
     4  C    0.000000   0.000000   0.000000   0.000000   0.000000   0.000000
     5  C    0.000000   0.000000   0.000000   0.000000   0.000000   0.000000
     6  H    0.000000   0.000000   0.000000   0.000000   0.000000   0.000000
     7  H    0.000000   0.000000   0.000000   0.000000   0.000000   0.000000
     8  H    0.000000   0.000000   0.000000   0.000000   0.000000   0.000000
     9  C    0.000000   0.000000   0.000000   0.000000   0.000000   0.000000
    10  H    0.000000   0.000000   0.000000   0.000000   0.000000   0.000000
    11  C    0.000000   0.000000   0.000000   0.000000   0.000000   0.000000
    12  H    0.000000   0.000000   0.000000   0.000000   0.000000   0.000000
    13  H    0.949917   0.000000   0.000000   0.000000   0.000000   0.000000
    14  H    0.000000   0.956794   0.000000   0.000000   0.000000   0.000000
    15  C    0.000000   0.000000   4.076865   0.000000   0.000000   0.000000
    16  H    0.000000   0.000000   0.000000   0.954677   0.000000   0.000000
    17  H    0.000000   0.000000   0.000000   0.000000   0.953694   0.000000
    18  H    0.000000   0.000000   0.000000   0.000000   0.000000   0.949208
    19  C    0.000000   0.000000   0.000000   0.000000   0.000000   0.000000
    20  C    0.000000   0.000000   0.000000   0.000000   0.000000   0.000000
    21  H    0.000000   0.000000   0.000000   0.000000   0.000000   0.000000
    22  H    0.000000   0.000000   0.000000   0.000000   0.000000   0.000000
    23  H    0.000000   0.000000   0.000000   0.000000   0.000000   0.000000
    24  C    0.000000   0.000000   0.000000   0.000000   0.000000   0.000000
    25  H    0.000000   0.000000   0.000000   0.000000   0.000000   0.000000
    26  C    0.000000   0.000000   0.000000   0.000000   0.000000   0.000000
    27  H    0.000000   0.000000   0.000000   0.000000   0.000000   0.000000
    28  H    0.000000   0.000000   0.000000   0.000000   0.000000   0.000000
              19         20         21         22         23         24
     1  C    0.000000   0.000000   0.000000   0.000000   0.000000   0.000000
     2  H    0.000000   0.000000   0.000000   0.000000   0.000000   0.000000
     3  H    0.000000   0.000000   0.000000   0.000000   0.000000   0.000000
     4  C    0.000000   0.000000   0.000000   0.000000   0.000000   0.000000
     5  C    0.000000   0.000000   0.000000   0.000000   0.000000   0.000000
     6  H    0.000000   0.000000   0.000000   0.000000   0.000000   0.000000
     7  H    0.000000   0.000000   0.000000   0.000000   0.000000   0.000000
     8  H    0.000000   0.000000   0.000000   0.000000   0.000000   0.000000
     9  C    0.000000   0.000000   0.000000   0.000000   0.000000   0.000000
    10  H    0.000000   0.000000   0.000000   0.000000   0.000000   0.000000
    11  C    0.000000   0.000000   0.000000   0.000000   0.000000   0.000000
    12  H    0.000000   0.000000   0.000000   0.000000   0.000000   0.000000
    13  H    0.000000   0.000000   0.000000   0.000000   0.000000   0.000000
    14  H    0.000000   0.000000   0.000000   0.000000   0.000000   0.000000
    15  C    0.000000   0.000000   0.000000   0.000000   0.000000   0.000000
    16  H    0.000000   0.000000   0.000000   0.000000   0.000000   0.000000
    17  H    0.000000   0.000000   0.000000   0.000000   0.000000   0.000000
    18  H    0.000000   0.000000   0.000000   0.000000   0.000000   0.000000
    19  C    4.122795   0.000000   0.000000   0.000000   0.000000   0.000000
    20  C    0.000000   4.068766   0.000000   0.000000   0.000000   0.000000
    21  H    0.000000   0.000000   0.956043   0.000000   0.000000   0.000000
    22  H    0.000000   0.000000   0.000000   0.958436   0.000000   0.000000
    23  H    0.000000   0.000000   0.000000   0.000000   0.956380   0.000000
    24  C    0.000000   0.000000   0.000000   0.000000   0.000000   4.157494
    25  H    0.000000   0.000000   0.000000   0.000000   0.000000   0.000000
    26  C    0.000000   0.000000   0.000000   0.000000   0.000000   0.000000
    27  H    0.000000   0.000000   0.000000   0.000000   0.000000   0.000000
    28  H    0.000000   0.000000   0.000000   0.000000   0.000000   0.000000
              25         26         27         28
     1  C    0.000000   0.000000   0.000000   0.000000
     2  H    0.000000   0.000000   0.000000   0.000000
     3  H    0.000000   0.000000   0.000000   0.000000
     4  C    0.000000   0.000000   0.000000   0.000000
     5  C    0.000000   0.000000   0.000000   0.000000
     6  H    0.000000   0.000000   0.000000   0.000000
     7  H    0.000000   0.000000   0.000000   0.000000
     8  H    0.000000   0.000000   0.000000   0.000000
     9  C    0.000000   0.000000   0.000000   0.000000
    10  H    0.000000   0.000000   0.000000   0.000000
    11  C    0.000000   0.000000   0.000000   0.000000
    12  H    0.000000   0.000000   0.000000   0.000000
    13  H    0.000000   0.000000   0.000000   0.000000
    14  H    0.000000   0.000000   0.000000   0.000000
    15  C    0.000000   0.000000   0.000000   0.000000
    16  H    0.000000   0.000000   0.000000   0.000000
    17  H    0.000000   0.000000   0.000000   0.000000
    18  H    0.000000   0.000000   0.000000   0.000000
    19  C    0.000000   0.000000   0.000000   0.000000
    20  C    0.000000   0.000000   0.000000   0.000000
    21  H    0.000000   0.000000   0.000000   0.000000
    22  H    0.000000   0.000000   0.000000   0.000000
    23  H    0.000000   0.000000   0.000000   0.000000
    24  C    0.000000   0.000000   0.000000   0.000000
    25  H    0.898790   0.000000   0.000000   0.000000
    26  C    0.000000   4.067146   0.000000   0.000000
    27  H    0.000000   0.000000   0.941735   0.000000
    28  H    0.000000   0.000000   0.000000   0.936268
 Mulliken charges:
               1
     1  C   -0.060711
     2  H    0.062760
     3  H    0.055387
     4  C   -0.128516
     5  C   -0.068412
     6  H    0.041279
     7  H    0.044421
     8  H    0.045410
     9  C   -0.149731
    10  H    0.098252
    11  C   -0.080707
    12  H    0.045578
    13  H    0.050083
    14  H    0.043206
    15  C   -0.076865
    16  H    0.045323
    17  H    0.046306
    18  H    0.050792
    19  C   -0.122795
    20  C   -0.068766
    21  H    0.043957
    22  H    0.041564
    23  H    0.043620
    24  C   -0.157494
    25  H    0.101210
    26  C   -0.067146
    27  H    0.058265
    28  H    0.063732
 Sum of Mulliken charges =  -0.00000
 Mulliken charges with hydrogens summed into heavy atoms:
               1
     1  C    0.057436
     4  C   -0.128516
     5  C    0.062697
     9  C   -0.051479
    11  C    0.058160
    15  C    0.065556
    19  C   -0.122795
    20  C    0.060375
    24  C   -0.056284
    26  C    0.054851
 Charge=             -0.0000 electrons
 Dipole moment (field-independent basis, Debye):
    X=             -0.2316    Y=              0.1304    Z=             -0.0992  Tot=              0.2837
 N-N= 3.069538926258D+02 E-N=-4.960712818065D+02  KE=-7.910884195278D+01
 Leave Link  601 at Mon Jul 26 19:32:35 2021, MaxMem=   131072000 cpu:               0.0 elap:               0.0
 (Enter /opt/g16/l9999.exe)
 1\1\GINC-TOTEM\FOpt\RPM3\ZDO\C10H18\JRAMOS\26-Jul-2021\0\\#p opt pm3\\
 Conformer number 166. Energy MM = 23.242 kcal/mol\\0,1\C,-0.9568209623
 ,0.8538406202,0.031484483\H,-1.0873164599,0.6167476576,1.1117194362\H,
 -0.9372214877,1.9596134604,-0.0393756493\C,-2.1182399597,0.322145065,-
 0.7462297454\C,-2.349567894,0.9424388735,-2.078395541\H,-3.1890176212,
 0.4847993717,-2.6184660501\H,-2.5681678533,2.0139518132,-1.9720846533\
 H,-1.4570579599,0.8488925734,-2.7132495851\C,-2.9245776409,-0.64297043
 33,-0.2828135258\H,-3.7644129306,-0.9944084275,-0.8961418654\C,-2.7767
 956042,-1.2983724107,1.0345150552\H,-2.4363363828,-2.3352540367,0.9123
 532486\H,-2.0464322912,-0.7795436979,1.678033907\H,-3.7356010216,-1.32
 27864372,1.5682656135\C,2.5439937594,-1.3981424925,0.7628214872\H,2.65
 93372488,-1.8369730566,1.7627020431\H,3.3988541345,-1.7232286089,0.154
 9312126\H,1.6314019789,-1.8220715799,0.3123346346\C,2.4892706394,0.084
 9559229,0.8379137804\C,3.6179251609,0.7243780468,1.5669171642\H,3.6479
 13865,0.3823523902,2.6105102444\H,3.5485779929,1.8201480916,1.57922828
 27\H,4.5777597645,0.4578205364,1.1038528645\C,1.5098865654,0.820513032
 2,0.2950539051\H,1.5290642058,1.9144173951,0.3908445916\C,0.3585484303
 ,0.2643816008,-0.4630219123\H,0.5032649729,0.4886836138,-1.539733405\H
 ,0.3318673507,-0.8462288836,-0.386570021\\Version=ES64L-G16RevA.03\Sta
 te=1-A\HF=-0.0281716\RMSD=4.332e-09\RMSF=2.687e-06\Dipole=0.0878052,-0
 .0622879,0.0295357\PG=C01 [X(C10H18)]\\@


 GETTING A SIMPLE ANSWER FROM A PROFESSOR IS LIKE
 GETTING A THIMBLE OF WATER FROM A FIRE HYDRANT.
     -- PROF. LEN SHAPIRO, NDSU
 Job cpu time:       0 days  0 hours  0 minutes 13.6 seconds.
 Elapsed time:       0 days  0 hours  0 minutes 17.8 seconds.
 File lengths (MBytes):  RWF=      6 Int=      0 D2E=      0 Chk=      2 Scr=      1
 Normal termination of Gaussian 16 at Mon Jul 26 19:32:35 2021.
