 Copyright (c) 1988-2019, Gaussian, Inc.  All Rights Reserved.
  
 This is part of the Gaussian(R) 16 program.  It is based on
 the Gaussian(R) 09 system (copyright 2009, Gaussian, Inc.),
 the Gaussian(R) 03 system (copyright 2003, Gaussian, Inc.),
 the Gaussian(R) 98 system (copyright 1998, Gaussian, Inc.),
 the Gaussian(R) 94 system (copyright 1995, Gaussian, Inc.),
 the Gaussian 92(TM) system (copyright 1992, Gaussian, Inc.),
 the Gaussian 90(TM) system (copyright 1990, Gaussian, Inc.),
 the Gaussian 88(TM) system (copyright 1988, Gaussian, Inc.),
 the Gaussian 86(TM) system (copyright 1986, Carnegie Mellon
 University), and the Gaussian 82(TM) system (copyright 1983,
 Carnegie Mellon University). Gaussian is a federally registered
 trademark of Gaussian, Inc.
 Cite this work as:
 Gaussian 16, Revision C.01,
 M. J. Frisch, G. W. Trucks, H. B. Schlegel, G. E. Scuseria, 
 M. A. Robb, J. R. Cheeseman, G. Scalmani, V. Barone, 
 G. A. Petersson, H. Nakatsuji, X. Li, M. Caricato, A. V. Marenich, 
 J. Bloino, B. G. Janesko, R. Gomperts, B. Mennucci, H. P. Hratchian, 
 J. V. Ortiz, A. F. Izmaylov, J. L. Sonnenberg, D. Williams-Young, 
 F. Ding, F. Lipparini, F. Egidi, J. Goings, B. Peng, A. Petrone, 
 T. Henderson, D. Ranasinghe, V. G. Zakrzewski, J. Gao, N. Rega, 
 G. Zheng, W. Liang, M. Hada, M. Ehara, K. Toyota, R. Fukuda, 
 J. Hasegawa, M. Ishida, T. Nakajima, Y. Honda, O. Kitao, H. Nakai, 
 T. Vreven, K. Throssell, J. A. Montgomery, Jr., J. E. Peralta, 
 F. Ogliaro, M. J. Bearpark, J. J. Heyd, E. N. Brothers, K. N. Kudin, 
 V. N. Staroverov, T. A. Keith, R. Kobayashi, J. Normand, 
 K. Raghavachari, A. P. Rendell, J. C. Burant, S. S. Iyengar, 
 J. Tomasi, M. Cossi, J. M. Millam, M. Klene, C. Adamo, R. Cammi, 
 J. W. Ochterski, R. L. Martin, K. Morokuma, O. Farkas, 
 J. B. Foresman, and D. J. Fox, Gaussian, Inc., Wallingford CT, 2019.
 
 ******************************************
 Gaussian 16:  EM64L-G16RevC.01  3-Jul-2019
                 8-Jul-2023 
 ******************************************
 ----------------------------------------------------------------------
 #P B3LYP/6-31G(d) Integral=Ultrafine Opt=(Tight,MaxCycle=55) GFInput G
 FPrint SCF(Conver=8,XQC,MaxConventionalCycles=64,MaxCycle=128) Test
 ----------------------------------------------------------------------
 1/6=55,7=10,18=20,19=15,26=4,38=1/1,3;
 2/9=110,12=2,17=6,18=5,40=1/2;
 3/5=1,6=6,7=1,11=2,24=110,25=1,30=1,71=1,74=-5,75=-5/1,2,3;
 4//1;
 5/5=2,6=8,7=128,8=3,13=1,38=5,85=64/2,8;
 6/7=2,8=2,9=2,10=2,28=1/1;
 7//1,2,3,16;
 1/6=55,7=10,18=20,19=15,26=4/3(2);
 2/9=110/2;
 99//99;
 2/9=110/2;
 3/5=1,6=6,7=1,11=2,25=1,30=1,71=1,74=-5,75=-5/1,2,3;
 4/5=5,16=3,69=1/1;
 5/5=2,6=8,7=128,8=3,13=1,38=5,85=64/2,8;
 7//1,2,3,16;
 1/6=55,7=10,18=20,19=15,26=4/3(-5);
 2/9=110/2;
 6/7=2,8=2,9=2,10=2,19=2,28=1/1;
 99/9=1/99;
 ----------------------------------------------------------
 Optimization step - Input generated by PyRED DVE-DMDS-OPLS
 ----------------------------------------------------------
 Symbolic Z-matrix:
 Charge =  0 Multiplicity = 1
 C                     6.478     3.246    -0.294 
 H                     5.751     3.783     0.323 
 H                     7.451     3.735    -0.194 
 H                     6.165     3.321    -1.34 
 C                     6.563     1.794     0.129 
 H                     6.883     1.716     1.18 
 H                     5.59      1.299     0.048 
 O                     7.524     1.162    -0.705 
 C                     7.881    -0.145    -0.334 
 H                     8.066    -0.211     0.75 
 H                     8.821    -0.362    -0.853 
 C                     6.861    -1.197    -0.725 
 H                     6.545    -1.019    -1.764 
 H                     7.322    -2.199    -0.678 
 O                     5.759    -1.121     0.148 
 C                     4.647    -1.876    -0.261 
 H                     4.853    -2.956    -0.178 
 H                     4.392    -1.659    -1.308 
 C                     3.473    -1.518     0.618 
 H                     3.771    -1.595     1.675 
 H                     2.655    -2.228     0.433 
 O                     3.078    -0.199     0.312 
 C                     2.179     0.375     1.229 
 H                     2.087     1.422     0.93 
 H                     2.597     0.343     2.248 
 C                     0.8      -0.278     1.246 
 H                     0.144     0.328     1.877 
 H                     0.844    -1.282     1.679 
 S                     0.131    -0.379    -0.448 
 C                    -1.588    -0.864    -0.079 
 H                    -1.978    -1.263    -1.019 
 H                    -1.591    -1.687     0.641 
 C                    -2.461     0.284     0.418 
 H                    -2.453     1.111    -0.298 
 H                    -2.074     0.679     1.361 
 S                    -4.182    -0.201     0.777 
 C                    -4.845    -0.237    -0.924 
 H                    -4.118    -0.724    -1.583 
 H                    -4.976     0.788    -1.283 
 C                    -6.155    -1.012    -1.013 
 H                    -6.498    -1.008    -2.053 
 H                    -5.992    -2.054    -0.725 
 S                    -7.507    -0.439     0.062 
 C                    -7.761     1.251    -0.573 
 H                    -6.879     1.859    -0.355 
 H                    -7.887     1.208    -1.66 
 C                    -8.993     1.864     0.082 
 H                    -9.146     2.884    -0.283 
 H                    -9.891     1.282    -0.143 
 H                    -8.88      1.907     1.169 
 
 ITRead=  0  0  0  0  0  0  0  0  0  0  0  0  0  0  0  0  0  0  0  0
 ITRead=  0  0  0  0  0  0  0  0  0  0  0  0  0  0  0  0  0  0  0  0
 ITRead=  0  0  0  0  0  0  0  0  0  0
 MicOpt= -1 -1 -1 -1 -1 -1 -1 -1 -1 -1 -1 -1 -1 -1 -1 -1 -1 -1 -1 -1
 MicOpt= -1 -1 -1 -1 -1 -1 -1 -1 -1 -1 -1 -1 -1 -1 -1 -1 -1 -1 -1 -1
 MicOpt= -1 -1 -1 -1 -1 -1 -1 -1 -1 -1
 NAtoms=     50 NQM=       50 NQMF=       0 NMMI=      0 NMMIF=      0
                NMic=       0 NMicF=      0.
                          Input orientation:                          
 ---------------------------------------------------------------------
 Center     Atomic      Atomic             Coordinates (Angstroms)
 Number     Number       Type             X           Y           Z
 ---------------------------------------------------------------------
      1          6           0        6.478000    3.246000   -0.294000
      2          1           0        5.751000    3.783000    0.323000
      3          1           0        7.451000    3.735000   -0.194000
      4          1           0        6.165000    3.321000   -1.340000
      5          6           0        6.563000    1.794000    0.129000
      6          1           0        6.883000    1.716000    1.180000
      7          1           0        5.590000    1.299000    0.048000
      8          8           0        7.524000    1.162000   -0.705000
      9          6           0        7.881000   -0.145000   -0.334000
     10          1           0        8.066000   -0.211000    0.750000
     11          1           0        8.821000   -0.362000   -0.853000
     12          6           0        6.861000   -1.197000   -0.725000
     13          1           0        6.545000   -1.019000   -1.764000
     14          1           0        7.322000   -2.199000   -0.678000
     15          8           0        5.759000   -1.121000    0.148000
     16          6           0        4.647000   -1.876000   -0.261000
     17          1           0        4.853000   -2.956000   -0.178000
     18          1           0        4.392000   -1.659000   -1.308000
     19          6           0        3.473000   -1.518000    0.618000
     20          1           0        3.771000   -1.595000    1.675000
     21          1           0        2.655000   -2.228000    0.433000
     22          8           0        3.078000   -0.199000    0.312000
     23          6           0        2.179000    0.375000    1.229000
     24          1           0        2.087000    1.422000    0.930000
     25          1           0        2.597000    0.343000    2.248000
     26          6           0        0.800000   -0.278000    1.246000
     27          1           0        0.144000    0.328000    1.877000
     28          1           0        0.844000   -1.282000    1.679000
     29         16           0        0.131000   -0.379000   -0.448000
     30          6           0       -1.588000   -0.864000   -0.079000
     31          1           0       -1.978000   -1.263000   -1.019000
     32          1           0       -1.591000   -1.687000    0.641000
     33          6           0       -2.461000    0.284000    0.418000
     34          1           0       -2.453000    1.111000   -0.298000
     35          1           0       -2.074000    0.679000    1.361000
     36         16           0       -4.182000   -0.201000    0.777000
     37          6           0       -4.845000   -0.237000   -0.924000
     38          1           0       -4.118000   -0.724000   -1.583000
     39          1           0       -4.976000    0.788000   -1.283000
     40          6           0       -6.155000   -1.012000   -1.013000
     41          1           0       -6.498000   -1.008000   -2.053000
     42          1           0       -5.992000   -2.054000   -0.725000
     43         16           0       -7.507000   -0.439000    0.062000
     44          6           0       -7.761000    1.251000   -0.573000
     45          1           0       -6.879000    1.859000   -0.355000
     46          1           0       -7.887000    1.208000   -1.660000
     47          6           0       -8.993000    1.864000    0.082000
     48          1           0       -9.146000    2.884000   -0.283000
     49          1           0       -9.891000    1.282000   -0.143000
     50          1           0       -8.880000    1.907000    1.169000
 ---------------------------------------------------------------------
 Stoichiometry    C14H30O3S3
 Framework group  C1[X(C14H30O3S3)]
                         Standard orientation:                         
 ---------------------------------------------------------------------
 Center     Atomic      Atomic             Coordinates (Angstroms)
 Number     Number       Type             X           Y           Z
 ---------------------------------------------------------------------
      1          6           0        6.477924    3.246217   -0.294038
      2          1           0        5.750918    3.783209    0.322962
      3          1           0        7.450919    3.735227   -0.194038
      4          1           0        6.164923    3.321214   -1.340038
      5          6           0        6.562939    1.794218    0.128962
      6          1           0        6.882939    1.716221    1.179962
      7          1           0        5.589944    1.299208    0.047962
      8          8           0        7.523945    1.162228   -0.705038
      9          6           0        7.880958   -0.144769   -0.334038
     10          1           0        8.065959   -0.210767    0.749962
     11          1           0        8.820961   -0.361759   -0.853038
     12          6           0        6.860969   -1.196779   -0.725038
     13          1           0        6.544967   -1.018782   -1.764038
     14          1           0        7.321980   -2.198774   -0.678038
     15          8           0        5.758968   -1.120790    0.147962
     16          6           0        4.646976   -1.875802   -0.261038
     17          1           0        4.852987   -2.955800   -0.178038
     18          1           0        4.391974   -1.658804   -1.308038
     19          6           0        3.472973   -1.517814    0.617962
     20          1           0        3.770973   -1.594811    1.674962
     21          1           0        2.654980   -2.227822    0.432962
     22          8           0        3.077959   -0.198818    0.311962
     23          6           0        2.178953    0.375173    1.228962
     24          1           0        2.086942    1.422172    0.929962
     25          1           0        2.596953    0.343177    2.247962
     26          6           0        0.799960   -0.277841    1.245962
     27          1           0        0.143954    0.328152    1.876962
     28          1           0        0.843970   -1.281841    1.678962
     29         16           0        0.130961   -0.378848   -0.448038
     30          6           0       -1.588034   -0.863866   -0.079038
     31          1           0       -1.978030   -1.262870   -1.019038
     32          1           0       -1.591026   -1.686866    0.640962
     33          6           0       -2.461046    0.284125    0.417962
     34          1           0       -2.453054    1.111125   -0.298038
     35          1           0       -2.074050    0.679129    1.360962
     36         16           0       -4.182041   -0.200892    0.776962
     37          6           0       -4.845041   -0.236899   -0.924038
     38          1           0       -4.118036   -0.723892   -1.583038
     39          1           0       -4.976051    0.788100   -1.283038
     40          6           0       -6.155033   -1.011913   -1.013038
     41          1           0       -6.498033   -1.007916   -2.053038
     42          1           0       -5.992022   -2.053911   -0.725038
     43         16           0       -7.507039   -0.438926    0.061962
     44          6           0       -7.761056    1.251071   -0.573038
     45          1           0       -6.879062    1.859080   -0.355038
     46          1           0       -7.887055    1.208070   -1.660038
     47          6           0       -8.993062    1.864058    0.081962
     48          1           0       -9.146073    2.884057   -0.283038
     49          1           0       -9.891056    1.282049   -0.143038
     50          1           0       -8.880063    1.907060    1.168962
 ---------------------------------------------------------------------
 Standard basis: 6-31G(d) (6D, 7F)
   372 basis functions,   752 primitive gaussians,   372 cartesian basis functions
    93 alpha electrons       93 beta electrons
 Requested convergence on RMS density matrix=1.00D-08 within  64 cycles.
 Requested convergence on MAX density matrix=1.00D-06.
 Requested convergence on             energy=1.00D-06.
 SCF Done:  E(RB3LYP) =  -1971.75331426     A.U. after   13 cycles
            NFock= 13  Conv=0.45D-08     -V/T= 2.0056
 Mulliken charges:
     1  C   -0.451073
     2  H    0.136066
     3  H    0.149527
     4  H    0.154269
     5  C   -0.021819
     6  H    0.108633
     7  H    0.162075
     8  O   -0.470594
     9  C   -0.033654
    10  H    0.126719
    11  H    0.138683
    12  C   -0.019862
    13  H    0.132961
    14  H    0.111415
    15  O   -0.465963
    16  C   -0.020635
    17  H    0.117894
    18  H    0.142290
    19  C   -0.032209
    20  H    0.130792
    21  H    0.135345
    22  O   -0.449749
    23  C   -0.027120
    24  H    0.163370
    25  H    0.133737
    26  C   -0.438306
    27  H    0.169881
    28  H    0.171476
    29  S    0.104176
    30  C   -0.416462
    31  H    0.176541
    32  H    0.180554
    33  C   -0.421708
    34  H    0.180728
    35  H    0.177248
    36  S    0.114382
    37  C   -0.407676
    38  H    0.170502
    39  H    0.174407
    40  C   -0.428316
    41  H    0.172730
    42  H    0.189571
    43  S    0.110046
    44  C   -0.399620
    45  H    0.177245
    46  H    0.161248
    47  C   -0.455159
    48  H    0.152916
    49  H    0.164812
    50  H    0.167683
 Sum of Mulliken charges =  -0.00000
 Dipole moment (field-independent basis, Debye):
    X=             -0.6793    Y=             -0.7660    Z=             -0.2306  Tot=              1.0495
 Quadrupole moment (field-independent basis, Debye-Ang):
   XX=           -163.1755   YY=           -141.6998   ZZ=           -144.4999
   XY=            -20.4874   XZ=             19.2238   YZ=              3.3579
 Traceless Quadrupole moment (field-independent basis, Debye-Ang):
   XX=            -13.3837   YY=              8.0919   ZZ=              5.2918
   XY=            -20.4874   XZ=             19.2238   YZ=              3.3579
 Octapole moment (field-independent basis, Debye-Ang**2):
  XXX=             56.2547  YYY=             -5.7910  ZZZ=             -1.3670  XYY=             15.9007
  XXY=             -1.3453  XXZ=            -65.4746  XZZ=             14.3611  YZZ=             -2.2103
  YYZ=              0.5130  XYZ=             15.5297
 Hexadecapole moment (field-independent basis, Debye-Ang**3):
 XXXX=         -27872.4563 YYYY=          -1577.6846 ZZZZ=           -613.0117 XXXY=          -1368.5995
 XXXZ=            616.8171 YYYX=            -29.1959 YYYZ=             -3.2927 ZZZX=             23.6339
 ZZZY=              1.6268 XXYY=          -4646.2174 XXZZ=          -4607.9428 YYZZ=           -371.8400
 XXYZ=            149.7690 YYXZ=             23.6029 ZZXY=            -14.4395
 Step number   1 out of a maximum of   55
     Eigenvalues ---    0.00230   0.00230   0.00230   0.00230   0.00230
     Eigenvalues ---    0.00230   0.00423   0.00429   0.00439   0.00448
     Eigenvalues ---    0.00547   0.00571   0.00638   0.01417   0.01553
     Eigenvalues ---    0.01587   0.01604   0.01626   0.01629   0.04269
     Eigenvalues ---    0.04462   0.04464   0.04705   0.04733   0.04820
     Eigenvalues ---    0.04918   0.05016   0.05318   0.05410   0.05448
     Eigenvalues ---    0.05496   0.05559   0.05642   0.05643   0.05668
     Eigenvalues ---    0.05714   0.05725   0.05767   0.05791   0.05864
     Eigenvalues ---    0.05872   0.05881   0.05905   0.06044   0.06082
     Eigenvalues ---    0.06161   0.06163   0.11012   0.11030   0.11117
     Eigenvalues ---    0.11180   0.11188   0.11253   0.11254   0.11626
     Eigenvalues ---    0.11632   0.11821   0.11834   0.11886   0.13619
     Eigenvalues ---    0.13628   0.13663   0.13663   0.13705   0.13748
     Eigenvalues ---    0.13819   0.13969   0.13972   0.14094   0.14101
     Eigenvalues ---    0.14123   0.16000   0.16000   0.16000   0.16000
     Eigenvalues ---    0.16000   0.16000   0.21930   0.22001   0.22002
     Eigenvalues ---    0.22007   0.22008   0.22013   0.22018   0.22018
     Eigenvalues ---    0.22029   0.22093   0.22100   0.22102   0.24171
     Eigenvalues ---    0.24305   0.24326   0.24334   0.24375   0.24613
     Eigenvalues ---    0.25000   0.25000   0.25000   0.25000   0.25000
     Eigenvalues ---    0.25000   0.29806   0.29846   0.29920   0.29983
     Eigenvalues ---    0.30699   0.30878   0.31384   0.33248   0.33396
     Eigenvalues ---    0.33477   0.33500   0.33528   0.33583   0.33629
     Eigenvalues ---    0.33767   0.33811   0.34188   0.34192   0.34227
     Eigenvalues ---    0.34229   0.34278   0.34309   0.34316   0.34323
     Eigenvalues ---    0.34344   0.34363   0.34364   0.34388   0.34406
     Eigenvalues ---    0.34411   0.34412   0.34412   0.34436   0.34444
     Eigenvalues ---    0.34448   0.34455   0.34498   0.42349   0.43929
     Eigenvalues ---    0.44329   0.44542   0.44812   0.44841
 Maximum Force            0.006728     0.000015     NO 
 RMS     Force            0.001733     0.000010     NO 
 Maximum Displacement     0.594034     0.000060     NO 
 RMS     Displacement     0.125103     0.000040     NO 
                          Input orientation:                          
 ---------------------------------------------------------------------
 Center     Atomic      Atomic             Coordinates (Angstroms)
 Number     Number       Type             X           Y           Z
 ---------------------------------------------------------------------
      1          6           0        6.754718    3.315920   -0.315791
      2          1           0        6.065349    3.903158    0.301532
      3          1           0        7.755873    3.752223   -0.232484
      4          1           0        6.434215    3.396369   -1.360068
      5          6           0        6.761167    1.861677    0.129439
      6          1           0        7.085351    1.781561    1.181508
      7          1           0        5.757632    1.425268    0.067410
      8          8           0        7.677953    1.155566   -0.706465
      9          6           0        7.976828   -0.171708   -0.326968
     10          1           0        8.160950   -0.244407    0.758346
     11          1           0        8.911674   -0.423162   -0.842945
     12          6           0        6.927572   -1.205448   -0.725849
     13          1           0        6.618811   -1.019087   -1.767342
     14          1           0        7.374598   -2.216136   -0.686238
     15          8           0        5.816881   -1.126538    0.148184
     16          6           0        4.697324   -1.883045   -0.261365
     17          1           0        4.905820   -2.964996   -0.186049
     18          1           0        4.437414   -1.664963   -1.309522
     19          6           0        3.515140   -1.539807    0.625727
     20          1           0        3.815692   -1.622178    1.683084
     21          1           0        2.707833   -2.264419    0.438584
     22          8           0        3.091939   -0.219470    0.329266
     23          6           0        2.178017    0.343887    1.249067
     24          1           0        2.087312    1.395483    0.960202
     25          1           0        2.589888    0.305488    2.272528
     26          6           0        0.788631   -0.305526    1.259322
     27          1           0        0.139198    0.294131    1.906977
     28          1           0        0.828299   -1.317749    1.678467
     29         16           0        0.095254   -0.376545   -0.440579
     30          6           0       -1.636977   -0.866870   -0.072877
     31          1           0       -2.021039   -1.266849   -1.016840
     32          1           0       -1.641506   -1.693781    0.645393
     33          6           0       -2.523521    0.280793    0.422814
     34          1           0       -2.514460    1.110855   -0.291741
     35          1           0       -2.142503    0.676640    1.369591
     36         16           0       -4.258512   -0.209746    0.780764
     37          6           0       -4.943269   -0.224769   -0.926075
     38          1           0       -4.223824   -0.707872   -1.597708
     39          1           0       -5.071334    0.806224   -1.274430
     40          6           0       -6.264360   -0.994113   -1.017474
     41          1           0       -6.609126   -0.981442   -2.059286
     42          1           0       -6.102370   -2.040914   -0.740461
     43         16           0       -7.627487   -0.433107    0.071920
     44          6           0       -7.958601    1.246011   -0.591492
     45          1           0       -7.094251    1.891627   -0.402293
     46          1           0       -8.102976    1.178595   -1.676846
     47          6           0       -9.204053    1.831974    0.076298
     48          1           0       -9.398892    2.840212   -0.306165
     49          1           0      -10.087678    1.215948   -0.120666
     50          1           0       -9.074593    1.903037    1.161594
 ---------------------------------------------------------------------
 Stoichiometry    C14H30O3S3
 Framework group  C1[X(C14H30O3S3)]
                         Standard orientation:                         
 ---------------------------------------------------------------------
 Center     Atomic      Atomic             Coordinates (Angstroms)
 Number     Number       Type             X           Y           Z
 ---------------------------------------------------------------------
      1          6           0        6.771818    3.307030   -0.282724
      2          1           0        6.083656    3.888897    0.341000
      3          1           0        7.773846    3.740404   -0.194755
      4          1           0        6.451418    3.399466   -1.326040
      5          6           0        6.775388    1.848023    0.146671
      6          1           0        7.099469    1.755828    1.197782
      7          1           0        5.770980    1.414318    0.079979
      8          8           0        7.690717    1.149213   -0.696929
      9          6           0        7.986963   -0.182702   -0.331906
     10          1           0        8.170999   -0.267562    0.752541
     11          1           0        8.921278   -0.430397   -0.850657
     12          6           0        6.935624   -1.209949   -0.741920
     13          1           0        6.627179   -1.011661   -1.781302
     14          1           0        7.380634   -2.221897   -0.713333
     15          8           0        5.825140   -1.138329    0.133003
     16          6           0        4.704054   -1.888105   -0.284660
     17          1           0        4.910394   -2.971224   -0.221126
     18          1           0        4.444522   -1.658123   -1.330364
     19          6           0        3.522605   -1.552172    0.606201
     20          1           0        3.823050   -1.646632    1.662577
     21          1           0        2.713843   -2.273095    0.411253
     22          8           0        3.102024   -0.227848    0.324143
     23          6           0        2.189279    0.327299    1.250083
     24          1           0        2.100657    1.382151    0.972673
     25          1           0        2.601128    0.276955    2.273035
     26          6           0        0.798600   -0.319414    1.253383
     27          1           0        0.150400    0.274461    1.907568
     28          1           0        0.836270   -1.336211    1.661498
     29         16           0        0.104990   -0.370566   -0.447136
     30          6           0       -1.628196   -0.861403   -0.084654
     31          1           0       -2.013107   -1.250329   -1.032880
     32          1           0       -1.634337   -1.696062    0.624585
     33          6           0       -2.512420    0.282571    0.423551
     34          1           0       -2.501742    1.120332   -0.281939
     35          1           0       -2.130562    0.667342    1.374547
     36         16           0       -4.248368   -0.208368    0.776280
     37          6           0       -4.933247   -0.203469   -0.930569
     38          1           0       -4.214804   -0.680676   -1.607469
     39          1           0       -5.059273    0.831504   -1.267686
     40          6           0       -6.255875   -0.969136   -1.030226
     41          1           0       -6.600672   -0.944454   -2.071812
     42          1           0       -6.095960   -2.019208   -0.764620
     43         16           0       -7.617820   -0.417287    0.065306
     44          6           0       -7.945619    1.269601   -0.579788
     45          1           0       -7.079972    1.911396   -0.383648
     46          1           0       -8.090187    1.214275   -1.665800
     47          6           0       -9.189863    1.850753    0.094427
     48          1           0       -9.382709    2.863476   -0.277039
     49          1           0      -10.074726    1.238669   -0.109154
     50          1           0       -9.060202    1.909755    1.180421
 ---------------------------------------------------------------------
 Standard basis: 6-31G(d) (6D, 7F)
   372 basis functions,   752 primitive gaussians,   372 cartesian basis functions
    93 alpha electrons       93 beta electrons
 Requested convergence on RMS density matrix=1.00D-08 within  64 cycles.
 Requested convergence on MAX density matrix=1.00D-06.
 Requested convergence on             energy=1.00D-06.
 SCF Done:  E(RB3LYP) =  -1971.75426577     A.U. after   10 cycles
            NFock= 10  Conv=0.69D-08     -V/T= 2.0058
 Step number   2 out of a maximum of   55
     Eigenvalues ---    0.00229   0.00230   0.00230   0.00230   0.00230
     Eigenvalues ---    0.00237   0.00423   0.00429   0.00439   0.00448
     Eigenvalues ---    0.00555   0.00571   0.00638   0.01419   0.01553
     Eigenvalues ---    0.01586   0.01602   0.01625   0.01676   0.04209
     Eigenvalues ---    0.04421   0.04426   0.04657   0.04673   0.04809
     Eigenvalues ---    0.04865   0.04989   0.05266   0.05377   0.05392
     Eigenvalues ---    0.05443   0.05537   0.05640   0.05647   0.05663
     Eigenvalues ---    0.05713   0.05727   0.05752   0.05802   0.05866
     Eigenvalues ---    0.05878   0.05907   0.05941   0.06073   0.06129
     Eigenvalues ---    0.06175   0.06264   0.11048   0.11064   0.11152
     Eigenvalues ---    0.11199   0.11224   0.11281   0.11321   0.11653
     Eigenvalues ---    0.11669   0.11889   0.11913   0.11950   0.13637
     Eigenvalues ---    0.13646   0.13681   0.13701   0.13734   0.13784
     Eigenvalues ---    0.13841   0.13991   0.13997   0.14134   0.14161
     Eigenvalues ---    0.14170   0.15986   0.16000   0.16000   0.16000
     Eigenvalues ---    0.16000   0.16013   0.19666   0.21931   0.22001
     Eigenvalues ---    0.22008   0.22010   0.22015   0.22017   0.22028
     Eigenvalues ---    0.22032   0.22053   0.22101   0.22213   0.23184
     Eigenvalues ---    0.24201   0.24313   0.24330   0.24365   0.24573
     Eigenvalues ---    0.24989   0.25000   0.25000   0.25000   0.25000
     Eigenvalues ---    0.27867   0.29825   0.29889   0.29964   0.30252
     Eigenvalues ---    0.30832   0.31235   0.33068   0.33300   0.33413
     Eigenvalues ---    0.33483   0.33513   0.33572   0.33615   0.33719
     Eigenvalues ---    0.33799   0.33961   0.34159   0.34191   0.34203
     Eigenvalues ---    0.34228   0.34268   0.34310   0.34318   0.34334
     Eigenvalues ---    0.34350   0.34362   0.34377   0.34393   0.34407
     Eigenvalues ---    0.34410   0.34411   0.34431   0.34440   0.34447
     Eigenvalues ---    0.34453   0.34494   0.35695   0.42636   0.43842
     Eigenvalues ---    0.44211   0.44597   0.44761   0.46649
 Maximum Force            0.005910     0.000015     NO 
 RMS     Force            0.000704     0.000010     NO 
 Maximum Displacement     0.380695     0.000060     NO 
 RMS     Displacement     0.065571     0.000040     NO 
                          Input orientation:                          
 ---------------------------------------------------------------------
 Center     Atomic      Atomic             Coordinates (Angstroms)
 Number     Number       Type             X           Y           Z
 ---------------------------------------------------------------------
      1          6           0        6.586678    3.260055   -0.286745
      2          1           0        5.863894    3.797948    0.337651
      3          1           0        7.561578    3.751069   -0.194759
      4          1           0        6.263407    3.335917   -1.330578
      5          6           0        6.674646    1.802852    0.140612
      6          1           0        7.001963    1.725970    1.192081
      7          1           0        5.697254    1.309044    0.068899
      8          8           0        7.628473    1.159735   -0.704816
      9          6           0        7.974674   -0.158152   -0.333828
     10          1           0        8.164093   -0.226308    0.750699
     11          1           0        8.911400   -0.386768   -0.857398
     12          6           0        6.938856   -1.207536   -0.722270
     13          1           0        6.630972   -1.038270   -1.767078
     14          1           0        7.394287   -2.213623   -0.664264
     15          8           0        5.824844   -1.111327    0.147815
     16          6           0        4.709076   -1.878889   -0.254309
     17          1           0        4.918380   -2.959255   -0.158679
     18          1           0        4.452648   -1.678661   -1.307209
     19          6           0        3.524483   -1.522159    0.623972
     20          1           0        3.821662   -1.584777    1.683692
     21          1           0        2.719040   -2.251794    0.446512
     22          8           0        3.102211   -0.206503    0.301420
     23          6           0        2.183845    0.366820    1.211193
     24          1           0        2.092166    1.414289    0.907461
     25          1           0        2.590357    0.340995    2.237347
     26          6           0        0.797349   -0.288711    1.224913
     27          1           0        0.143829    0.315107    1.865305
     28          1           0        0.839955   -1.298165    1.651046
     29         16           0        0.107127   -0.376937   -0.478980
     30          6           0       -1.631418   -0.851062   -0.104449
     31          1           0       -2.031322   -1.217750   -1.055668
     32          1           0       -1.639852   -1.696915    0.591526
     33          6           0       -2.489699    0.298722    0.434215
     34          1           0       -2.477502    1.146890   -0.258689
     35          1           0       -2.092556    0.661858    1.387752
     36         16           0       -4.231132   -0.175139    0.800537
     37          6           0       -4.910581   -0.219036   -0.911386
     38          1           0       -4.182900   -0.703689   -1.573264
     39          1           0       -5.049989    0.806801   -1.271437
     40          6           0       -6.222041   -1.005965   -0.993965
     41          1           0       -6.562910   -1.014554   -2.037271
     42          1           0       -6.052637   -2.045862   -0.695384
     43         16           0       -7.598086   -0.437682    0.079285
     44          6           0       -7.905479    1.246404   -0.592244
     45          1           0       -7.030051    1.879068   -0.408670
     46          1           0       -8.054674    1.174631   -1.676739
     47          6           0       -9.140291    1.852397    0.078096
     48          1           0       -9.321042    2.861586   -0.309525
     49          1           0      -10.033445    1.248062   -0.113133
     50          1           0       -9.005536    1.927268    1.162705
 ---------------------------------------------------------------------
 Stoichiometry    C14H30O3S3
 Framework group  C1[X(C14H30O3S3)]
                         Standard orientation:                         
 ---------------------------------------------------------------------
 Center     Atomic      Atomic             Coordinates (Angstroms)
 Number     Number       Type             X           Y           Z
 ---------------------------------------------------------------------
      1          6           0        6.590973    3.260414   -0.284573
      2          1           0        5.867696    3.798056    0.339468
      3          1           0        7.565623    3.751854   -0.192223
      4          1           0        6.268108    3.336039   -1.328548
      5          6           0        6.679385    1.803290    0.142960
      6          1           0        7.006293    1.726647    1.194573
      7          1           0        5.702235    1.309056    0.070882
      8          8           0        7.633843    1.160501   -0.702006
      9          6           0        7.980453   -0.157203   -0.330749
     10          1           0        8.169444   -0.225175    0.753865
     11          1           0        8.917497   -0.385466   -0.853902
     12          6           0        6.945249   -1.207066   -0.719527
     13          1           0        6.637732   -1.038031   -1.764480
     14          1           0        7.401086   -2.212953   -0.661234
     15          8           0        5.830829   -1.111253    0.150080
     16          6           0        4.715559   -1.879331   -0.252441
     17          1           0        4.925286   -2.959599   -0.156621
     18          1           0        4.459488   -1.679313   -1.305468
     19          6           0        3.530444   -1.523026    0.625308
     20          1           0        3.827204   -1.585417    1.685159
     21          1           0        2.725389   -2.253023    0.447578
     22          8           0        3.107744   -0.207581    0.302454
     23          6           0        2.188750    0.365434    1.211787
     24          1           0        2.096749    1.412834    0.907917
     25          1           0        2.594841    0.339880    2.238114
     26          6           0        0.802529   -0.290690    1.224985
     27          1           0        0.148481    0.312908    1.865044
     28          1           0        0.845389   -1.300086    1.651231
     29         16           0        0.113062   -0.379373   -0.479190
     30          6           0       -1.625437   -0.854208   -0.105345
     31          1           0       -2.024783   -1.221157   -1.056698
     32          1           0       -1.633801   -1.699999    0.590705
     33          6           0       -2.484438    0.295259    0.432848
     34          1           0       -2.472312    1.143367   -0.260131
     35          1           0       -2.087851    0.658655    1.386518
     36         16           0       -4.225821   -0.179314    0.798482
     37          6           0       -4.904530   -0.223663   -0.913722
     38          1           0       -4.176363   -0.708067   -1.575249
     39          1           0       -5.044227    0.802080   -1.273929
     40          6           0       -6.215619   -1.011162   -0.996779
     41          1           0       -6.556044   -1.019996   -2.040228
     42          1           0       -6.045894   -2.050958   -0.698028
     43         16           0       -7.592359   -0.443368    0.075838
     44          6           0       -7.900190    1.240523   -0.595979
     45          1           0       -7.025111    1.873580   -0.412097
     46          1           0       -8.048898    1.168584   -1.680530
     47          6           0       -9.135544    1.846050    0.073784
     48          1           0       -9.316565    2.855125   -0.314008
     49          1           0      -10.028358    1.241314   -0.117764
     50          1           0       -9.001278    1.921081    1.158442
 ---------------------------------------------------------------------
 Standard basis: 6-31G(d) (6D, 7F)
   372 basis functions,   752 primitive gaussians,   372 cartesian basis functions
    93 alpha electrons       93 beta electrons
 Requested convergence on RMS density matrix=1.00D-08 within  64 cycles.
 Requested convergence on MAX density matrix=1.00D-06.
 Requested convergence on             energy=1.00D-06.
 SCF Done:  E(RB3LYP) =  -1971.75441830     A.U. after   10 cycles
            NFock= 10  Conv=0.51D-08     -V/T= 2.0058
 Step number   3 out of a maximum of   55
     Eigenvalues ---    0.00229   0.00230   0.00230   0.00230   0.00232
     Eigenvalues ---    0.00277   0.00423   0.00429   0.00439   0.00448
     Eigenvalues ---    0.00571   0.00594   0.00638   0.01421   0.01552
     Eigenvalues ---    0.01581   0.01602   0.01621   0.01746   0.04220
     Eigenvalues ---    0.04442   0.04447   0.04674   0.04696   0.04872
     Eigenvalues ---    0.05001   0.05098   0.05333   0.05396   0.05427
     Eigenvalues ---    0.05464   0.05541   0.05627   0.05668   0.05681
     Eigenvalues ---    0.05700   0.05728   0.05757   0.05777   0.05843
     Eigenvalues ---    0.05869   0.05898   0.05907   0.06083   0.06166
     Eigenvalues ---    0.06180   0.06207   0.11026   0.11062   0.11137
     Eigenvalues ---    0.11196   0.11216   0.11266   0.11341   0.11548
     Eigenvalues ---    0.11656   0.11853   0.11877   0.11931   0.13614
     Eigenvalues ---    0.13634   0.13651   0.13693   0.13716   0.13778
     Eigenvalues ---    0.13825   0.13935   0.13981   0.14077   0.14127
     Eigenvalues ---    0.14156   0.15922   0.16000   0.16000   0.16000
     Eigenvalues ---    0.16004   0.16008   0.19121   0.21936   0.22002
     Eigenvalues ---    0.22010   0.22012   0.22017   0.22018   0.22026
     Eigenvalues ---    0.22037   0.22097   0.22103   0.22694   0.23443
     Eigenvalues ---    0.24202   0.24314   0.24330   0.24365   0.24580
     Eigenvalues ---    0.24992   0.25000   0.25000   0.25000   0.25717
     Eigenvalues ---    0.29637   0.29832   0.29888   0.29976   0.30624
     Eigenvalues ---    0.31049   0.31774   0.33244   0.33331   0.33410
     Eigenvalues ---    0.33484   0.33518   0.33588   0.33631   0.33712
     Eigenvalues ---    0.33795   0.33901   0.34190   0.34198   0.34227
     Eigenvalues ---    0.34260   0.34309   0.34316   0.34333   0.34344
     Eigenvalues ---    0.34362   0.34375   0.34392   0.34403   0.34410
     Eigenvalues ---    0.34410   0.34428   0.34438   0.34445   0.34453
     Eigenvalues ---    0.34493   0.35172   0.36038   0.42819   0.43933
     Eigenvalues ---    0.44223   0.44705   0.44968   0.46847
 Maximum Force            0.002159     0.000015     NO 
 RMS     Force            0.000357     0.000010     NO 
 Maximum Displacement     0.140715     0.000060     NO 
 RMS     Displacement     0.036469     0.000040     NO 
                          Input orientation:                          
 ---------------------------------------------------------------------
 Center     Atomic      Atomic             Coordinates (Angstroms)
 Number     Number       Type             X           Y           Z
 ---------------------------------------------------------------------
      1          6           0        6.648075    3.271172   -0.306370
      2          1           0        5.936044    3.826673    0.314703
      3          1           0        7.631702    3.745118   -0.219560
      4          1           0        6.324618    3.343850   -1.350207
      5          6           0        6.709602    1.816813    0.132787
      6          1           0        7.037484    1.743151    1.183981
      7          1           0        5.724067    1.340154    0.065798
      8          8           0        7.652372    1.151390   -0.708088
      9          6           0        7.979271   -0.168854   -0.327379
     10          1           0        8.164376   -0.234628    0.757804
     11          1           0        8.915031   -0.408847   -0.846906
     12          6           0        6.937080   -1.210359   -0.718769
     13          1           0        6.628357   -1.036728   -1.762272
     14          1           0        7.385897   -2.219161   -0.662872
     15          8           0        5.825526   -1.112953    0.153918
     16          6           0        4.709151   -1.878657   -0.249122
     17          1           0        4.918380   -2.959175   -0.158539
     18          1           0        4.450377   -1.672676   -1.299966
     19          6           0        3.528728   -1.524696    0.634172
     20          1           0        3.829213   -1.590392    1.692447
     21          1           0        2.721621   -2.252122    0.456592
     22          8           0        3.108157   -0.207547    0.317079
     23          6           0        2.193136    0.360621    1.232686
     24          1           0        2.101355    1.409726    0.935608
     25          1           0        2.601281    0.326779    2.257667
     26          6           0        0.808297   -0.295544    1.243746
     27          1           0        0.155885    0.301062    1.891365
     28          1           0        0.852695   -1.309831    1.657172
     29         16           0        0.115549   -0.364944   -0.459884
     30          6           0       -1.618153   -0.857637   -0.086927
     31          1           0       -2.000489   -1.255971   -1.032241
     32          1           0       -1.618970   -1.683509    0.632270
     33          6           0       -2.498354    0.292723    0.409880
     34          1           0       -2.493973    1.121323   -0.306016
     35          1           0       -2.118170    0.687047    1.357571
     36         16           0       -4.234869   -0.199378    0.775962
     37          6           0       -4.927331   -0.196220   -0.931357
     38          1           0       -4.205804   -0.664275   -1.611101
     39          1           0       -5.068651    0.839036   -1.261382
     40          6           0       -6.239250   -0.979093   -1.021589
     41          1           0       -6.590642   -0.961229   -2.060961
     42          1           0       -6.069778   -2.025718   -0.748561
     43         16           0       -7.602496   -0.433442    0.078893
     44          6           0       -7.953596    1.241739   -0.593624
     45          1           0       -7.087307    1.890737   -0.426469
     46          1           0       -8.119881    1.162064   -1.674752
     47          6           0       -9.187787    1.824582    0.096269
     48          1           0       -9.395506    2.828154   -0.292056
     49          1           0      -10.071373    1.201436   -0.077168
     50          1           0       -9.034947    1.906237    1.177769
 ---------------------------------------------------------------------
 Stoichiometry    C14H30O3S3
 Framework group  C1[X(C14H30O3S3)]
                         Standard orientation:                         
 ---------------------------------------------------------------------
 Center     Atomic      Atomic             Coordinates (Angstroms)
 Number     Number       Type             X           Y           Z
 ---------------------------------------------------------------------
      1          6           0        6.652556    3.271955   -0.281524
      2          1           0        5.940675    3.822376    0.344226
      3          1           0        7.636217    3.745142   -0.191044
      4          1           0        6.328881    3.353188   -1.324663
      5          6           0        6.714125    1.814048    0.145698
      6          1           0        7.042226    1.731771    1.196184
      7          1           0        5.728560    1.337986    0.075016
      8          8           0        7.656695    1.155500   -0.700796
      9          6           0        7.983628   -0.167827   -0.330978
     10          1           0        8.168960   -0.242489    0.753591
     11          1           0        8.919271   -0.403589   -0.852650
     12          6           0        6.941319   -1.206058   -0.730662
     13          1           0        6.632383   -1.023880   -1.772644
     14          1           0        7.390113   -2.215299   -0.683121
     15          8           0        5.829953   -1.115764    0.143027
     16          6           0        4.713467   -1.878106   -0.266032
     17          1           0        4.922678   -2.959337   -0.184343
     18          1           0        4.454478   -1.663520   -1.315101
     19          6           0        3.533242   -1.531350    0.620379
     20          1           0        3.833948   -1.605718    1.678017
     21          1           0        2.726072   -2.257271    0.437020
     22          8           0        3.112649   -0.211636    0.314169
     23          6           0        2.197841    0.349047    1.234590
     24          1           0        2.106034    1.400552    0.946131
     25          1           0        2.606200    0.306800    2.259174
     26          6           0        0.812981   -0.307141    1.240570
     27          1           0        0.160727    0.284164    1.893190
     28          1           0        0.857432   -1.324781    1.645668
     29         16           0        0.119873   -0.362568   -0.463425
     30          6           0       -1.613768   -0.858241   -0.094149
     31          1           0       -1.996317   -1.248809   -1.042612
     32          1           0       -1.614462   -1.689974    0.618262
     33          6           0       -2.493824    0.288042    0.412245
     34          1           0       -2.489566    1.122475   -0.296844
     35          1           0       -2.113428    0.674581    1.363053
     36         16           0       -4.230279   -0.206983    0.774653
     37          6           0       -4.923102   -0.189824   -0.932438
     38          1           0       -4.201734   -0.652322   -1.616142
     39          1           0       -5.064455    0.848104   -1.253946
     40          6           0       -6.235066   -0.971889   -1.028799
     41          1           0       -6.586677   -0.945505   -2.067916
     42          1           0       -6.065573   -2.020720   -0.764385
     43         16           0       -7.598062   -0.435221    0.076401
     44          6           0       -7.949246    1.245421   -0.582304
     45          1           0       -7.082899    1.893000   -0.410024
     46          1           0       -8.115761    1.174606   -1.664013
     47          6           0       -9.183271    1.822637    0.112598
     48          1           0       -9.391037    2.829361   -0.267454
     49          1           0      -10.066915    1.200960   -0.065749
     50          1           0       -9.030200    1.895429    1.194698
 ---------------------------------------------------------------------
 Standard basis: 6-31G(d) (6D, 7F)
   372 basis functions,   752 primitive gaussians,   372 cartesian basis functions
    93 alpha electrons       93 beta electrons
 Requested convergence on RMS density matrix=1.00D-08 within  64 cycles.
 Requested convergence on MAX density matrix=1.00D-06.
 Requested convergence on             energy=1.00D-06.
 SCF Done:  E(RB3LYP) =  -1971.75448788     A.U. after   10 cycles
            NFock= 10  Conv=0.40D-08     -V/T= 2.0058
 Step number   4 out of a maximum of   55
     Eigenvalues ---    0.00221   0.00230   0.00230   0.00230   0.00231
     Eigenvalues ---    0.00415   0.00429   0.00433   0.00448   0.00505
     Eigenvalues ---    0.00571   0.00608   0.00639   0.01412   0.01535
     Eigenvalues ---    0.01558   0.01599   0.01616   0.01724   0.04213
     Eigenvalues ---    0.04442   0.04459   0.04695   0.04717   0.04875
     Eigenvalues ---    0.04995   0.05102   0.05133   0.05385   0.05422
     Eigenvalues ---    0.05471   0.05540   0.05619   0.05631   0.05683
     Eigenvalues ---    0.05701   0.05723   0.05759   0.05770   0.05854
     Eigenvalues ---    0.05868   0.05903   0.05919   0.06076   0.06161
     Eigenvalues ---    0.06169   0.06178   0.10966   0.11063   0.11134
     Eigenvalues ---    0.11196   0.11209   0.11244   0.11327   0.11636
     Eigenvalues ---    0.11663   0.11850   0.11873   0.11927   0.13624
     Eigenvalues ---    0.13643   0.13681   0.13686   0.13734   0.13795
     Eigenvalues ---    0.13826   0.13976   0.14035   0.14096   0.14135
     Eigenvalues ---    0.14359   0.15927   0.16000   0.16000   0.16000
     Eigenvalues ---    0.16006   0.16021   0.18738   0.21937   0.22003
     Eigenvalues ---    0.22010   0.22014   0.22019   0.22023   0.22037
     Eigenvalues ---    0.22087   0.22099   0.22570   0.22890   0.23421
     Eigenvalues ---    0.24203   0.24318   0.24331   0.24365   0.24584
     Eigenvalues ---    0.24996   0.25000   0.25000   0.25102   0.26059
     Eigenvalues ---    0.29665   0.29839   0.29964   0.30002   0.30112
     Eigenvalues ---    0.30915   0.31459   0.33248   0.33342   0.33406
     Eigenvalues ---    0.33486   0.33504   0.33537   0.33592   0.33651
     Eigenvalues ---    0.33778   0.33819   0.34190   0.34217   0.34228
     Eigenvalues ---    0.34235   0.34308   0.34319   0.34327   0.34345
     Eigenvalues ---    0.34362   0.34370   0.34390   0.34405   0.34410
     Eigenvalues ---    0.34419   0.34426   0.34438   0.34449   0.34450
     Eigenvalues ---    0.34492   0.34513   0.36145   0.42846   0.43908
     Eigenvalues ---    0.44231   0.44695   0.44851   0.47306
 Maximum Force            0.000661     0.000015     NO 
 RMS     Force            0.000143     0.000010     NO 
 Maximum Displacement     0.113484     0.000060     NO 
 RMS     Displacement     0.026816     0.000040     NO 
                          Input orientation:                          
 ---------------------------------------------------------------------
 Center     Atomic      Atomic             Coordinates (Angstroms)
 Number     Number       Type             X           Y           Z
 ---------------------------------------------------------------------
      1          6           0        6.671658    3.281044   -0.306168
      2          1           0        5.966463    3.843492    0.316329
      3          1           0        7.660101    3.744869   -0.220992
      4          1           0        6.347018    3.356945   -1.349290
      5          6           0        6.719123    1.826326    0.132369
      6          1           0        7.048362    1.749439    1.182657
      7          1           0        5.729262    1.359601    0.066653
      8          8           0        7.655101    1.152258   -0.709904
      9          6           0        7.970624   -0.171940   -0.331993
     10          1           0        8.152749   -0.242941    0.753120
     11          1           0        8.906051   -0.415315   -0.850239
     12          6           0        6.924629   -1.206460   -0.731247
     13          1           0        6.615746   -1.023720   -1.772840
     14          1           0        7.369055   -2.217333   -0.682670
     15          8           0        5.813734   -1.113959    0.143018
     16          6           0        4.697607   -1.877684   -0.264553
     17          1           0        4.909141   -2.958363   -0.184130
     18          1           0        4.436566   -1.662026   -1.312589
     19          6           0        3.519223   -1.532725    0.624273
     20          1           0        3.822318   -1.606470    1.681014
     21          1           0        2.711941   -2.258672    0.442535
     22          8           0        3.097272   -0.213169    0.319359
     23          6           0        2.183604    0.345844    1.241922
     24          1           0        2.091569    1.397711    0.955498
     25          1           0        2.592934    0.301259    2.265853
     26          6           0        0.799395   -0.310078    1.247195
     27          1           0        0.146789    0.278999    1.901141
     28          1           0        0.843987   -1.329145    1.647772
     29         16           0        0.105555   -0.360370   -0.456751
     30          6           0       -1.632243   -0.840485   -0.084532
     31          1           0       -2.025953   -1.211389   -1.036163
     32          1           0       -1.637779   -1.682189    0.615557
     33          6           0       -2.491761    0.309287    0.445096
     34          1           0       -2.483073    1.153072   -0.252293
     35          1           0       -2.100537    0.676984    1.398800
     36         16           0       -4.232414   -0.170503    0.809891
     37          6           0       -4.913968   -0.190052   -0.901907
     38          1           0       -4.183765   -0.660232   -1.570675
     39          1           0       -5.060274    0.840707   -1.242644
     40          6           0       -6.218866   -0.983263   -0.991162
     41          1           0       -6.563735   -0.982316   -2.032651
     42          1           0       -6.044933   -2.024431   -0.701385
     43         16           0       -7.593490   -0.429142    0.090806
     44          6           0       -7.951195    1.231334   -0.614717
     45          1           0       -7.090114    1.888336   -0.453709
     46          1           0       -8.109675    1.129572   -1.694900
     47          6           0       -9.193324    1.817740    0.056582
     48          1           0       -9.406321    2.812006   -0.352110
     49          1           0      -10.070884    1.184602   -0.110228
     50          1           0       -9.047271    1.920947    1.137004
 ---------------------------------------------------------------------
 Stoichiometry    C14H30O3S3
 Framework group  C1[X(C14H30O3S3)]
                         Standard orientation:                         
 ---------------------------------------------------------------------
 Center     Atomic      Atomic             Coordinates (Angstroms)
 Number     Number       Type             X           Y           Z
 ---------------------------------------------------------------------
      1          6           0        6.677251    3.279689   -0.267666
      2          1           0        5.971671    3.834881    0.360878
      3          1           0        7.665665    3.742418   -0.176414
      4          1           0        6.353321    3.367783   -1.310049
      5          6           0        6.724330    1.819947    0.153893
      6          1           0        7.052855    1.730783    1.203434
      7          1           0        5.734485    1.354090    0.082066
      8          8           0        7.660835    1.155692   -0.695559
      9          6           0        7.976021   -0.172850   -0.332917
     10          1           0        8.157408   -0.256524    0.751416
     11          1           0        8.911783   -0.410224   -0.853338
     12          6           0        6.930232   -1.202566   -0.744925
     13          1           0        6.622064   -1.007659   -1.784523
     14          1           0        7.374563   -2.213968   -0.707852
     15          8           0        5.818752   -1.120199    0.129611
     16          6           0        4.702854   -1.879037   -0.287601
     17          1           0        4.914266   -2.960595   -0.219654
     18          1           0        4.442534   -1.651142   -1.333224
     19          6           0        3.523891   -1.544394    0.604396
     20          1           0        3.826268   -1.630489    1.660409
     21          1           0        2.716687   -2.268114    0.413652
     22          8           0        3.102227   -0.221339    0.314621
     23          6           0        2.187971    0.326931    1.243031
     24          1           0        2.096195    1.382076    0.968841
     25          1           0        2.596607    0.270368    2.266647
     26          6           0        0.803719   -0.328912    1.239713
     27          1           0        0.150708    0.252538    1.900050
     28          1           0        0.847978   -1.352588    1.628397
     29         16           0        0.111026   -0.359263   -0.465171
     30          6           0       -1.627052   -0.843569   -0.099755
     31          1           0       -2.020143   -1.203312   -1.055916
     32          1           0       -1.633113   -1.693387    0.590458
     33          6           0       -2.486857    0.300003    0.442678
     34          1           0       -2.477646    1.151870   -0.244808
     35          1           0       -2.096254    0.656515    1.400873
     36         16           0       -4.227785   -0.183891    0.800674
     37          6           0       -4.908184   -0.183411   -0.911695
     38          1           0       -4.177559   -0.645803   -1.585413
     39          1           0       -5.054197    0.851265   -1.240476
     40          6           0       -6.213070   -0.975434   -1.011083
     41          1           0       -6.557236   -0.962307   -2.052723
     42          1           0       -6.039398   -2.019926   -0.733362
     43         16           0       -7.588391   -0.433885    0.076351
     44          6           0       -7.945516    1.234738   -0.609982
     45          1           0       -7.084504    1.889756   -0.440736
     46          1           0       -8.103273    1.145603   -1.691386
     47          6           0       -9.188063    1.813355    0.067278
     48          1           0       -9.400722    2.812338   -0.329924
     49          1           0      -10.065548    1.182268   -0.107502
     50          1           0       -9.042732    1.903933    1.148929
 ---------------------------------------------------------------------
 Standard basis: 6-31G(d) (6D, 7F)
   372 basis functions,   752 primitive gaussians,   372 cartesian basis functions
    93 alpha electrons       93 beta electrons
 Requested convergence on RMS density matrix=1.00D-08 within  64 cycles.
 Requested convergence on MAX density matrix=1.00D-06.
 Requested convergence on             energy=1.00D-06.
 SCF Done:  E(RB3LYP) =  -1971.75450202     A.U. after   10 cycles
            NFock= 10  Conv=0.25D-08     -V/T= 2.0058
 Step number   5 out of a maximum of   55
     Eigenvalues ---    0.00217   0.00230   0.00230   0.00231   0.00246
     Eigenvalues ---    0.00416   0.00429   0.00431   0.00448   0.00571
     Eigenvalues ---    0.00593   0.00638   0.00656   0.01343   0.01500
     Eigenvalues ---    0.01555   0.01598   0.01614   0.01758   0.04202
     Eigenvalues ---    0.04456   0.04683   0.04718   0.04808   0.04915
     Eigenvalues ---    0.04975   0.05046   0.05151   0.05391   0.05425
     Eigenvalues ---    0.05475   0.05543   0.05616   0.05681   0.05686
     Eigenvalues ---    0.05723   0.05750   0.05762   0.05816   0.05859
     Eigenvalues ---    0.05886   0.05907   0.05987   0.06072   0.06152
     Eigenvalues ---    0.06171   0.06296   0.10839   0.11062   0.11131
     Eigenvalues ---    0.11192   0.11206   0.11218   0.11371   0.11624
     Eigenvalues ---    0.11653   0.11847   0.11883   0.11933   0.13619
     Eigenvalues ---    0.13643   0.13681   0.13691   0.13746   0.13774
     Eigenvalues ---    0.13818   0.13968   0.14035   0.14086   0.14144
     Eigenvalues ---    0.14367   0.15966   0.16000   0.16000   0.16000
     Eigenvalues ---    0.16007   0.16107   0.19168   0.21942   0.21993
     Eigenvalues ---    0.22004   0.22015   0.22020   0.22030   0.22049
     Eigenvalues ---    0.22061   0.22136   0.22754   0.22895   0.23590
     Eigenvalues ---    0.24200   0.24286   0.24331   0.24367   0.24577
     Eigenvalues ---    0.24906   0.24998   0.25000   0.25938   0.27749
     Eigenvalues ---    0.29408   0.29862   0.29899   0.29971   0.30187
     Eigenvalues ---    0.30936   0.31989   0.33008   0.33284   0.33419
     Eigenvalues ---    0.33463   0.33503   0.33533   0.33601   0.33661
     Eigenvalues ---    0.33781   0.33815   0.34149   0.34215   0.34229
     Eigenvalues ---    0.34238   0.34291   0.34311   0.34332   0.34338
     Eigenvalues ---    0.34363   0.34376   0.34386   0.34397   0.34405
     Eigenvalues ---    0.34414   0.34419   0.34433   0.34442   0.34450
     Eigenvalues ---    0.34507   0.34532   0.37094   0.42931   0.43929
     Eigenvalues ---    0.44240   0.44747   0.45222   0.47846
 Maximum Force            0.000618     0.000015     NO 
 RMS     Force            0.000115     0.000010     NO 
 Maximum Displacement     0.065026     0.000060     NO 
 RMS     Displacement     0.016909     0.000040     NO 
                          Input orientation:                          
 ---------------------------------------------------------------------
 Center     Atomic      Atomic             Coordinates (Angstroms)
 Number     Number       Type             X           Y           Z
 ---------------------------------------------------------------------
      1          6           0        6.647719    3.278343   -0.314129
      2          1           0        5.936965    3.837050    0.305402
      3          1           0        7.631816    3.751395   -0.230024
      4          1           0        6.323382    3.347274   -1.357831
      5          6           0        6.708519    1.825780    0.129981
      6          1           0        7.037355    1.755807    1.180853
      7          1           0        5.723057    1.349589    0.065241
      8          8           0        7.650987    1.156519   -0.708809
      9          6           0        7.975210   -0.164244   -0.326674
     10          1           0        8.156667   -0.229732    0.758837
     11          1           0        8.912512   -0.404588   -0.843097
     12          6           0        6.933918   -1.205166   -0.720817
     13          1           0        6.626299   -1.029369   -1.763947
     14          1           0        7.381742   -2.214224   -0.665879
     15          8           0        5.820781   -1.110626    0.150476
     16          6           0        4.707536   -1.880566   -0.253291
     17          1           0        4.923315   -2.959899   -0.166285
     18          1           0        4.446759   -1.672407   -1.302877
     19          6           0        3.526535   -1.534301    0.631823
     20          1           0        3.828725   -1.600765    1.689307
     21          1           0        2.721936   -2.264068    0.453719
     22          8           0        3.099971   -0.218100    0.318804
     23          6           0        2.183261    0.344798    1.236171
     24          1           0        2.089095    1.394571    0.942798
     25          1           0        2.591640    0.308506    2.260826
     26          6           0        0.800106   -0.313541    1.243707
     27          1           0        0.144571    0.279541    1.890974
     28          1           0        0.845616   -1.328881    1.653377
     29         16           0        0.110001   -0.380138   -0.460953
     30          6           0       -1.628508   -0.857628   -0.088691
     31          1           0       -2.019719   -1.238832   -1.037206
     32          1           0       -1.635143   -1.692156    0.619865
     33          6           0       -2.490566    0.296538    0.426967
     34          1           0       -2.480818    1.133419   -0.278636
     35          1           0       -2.101338    0.674263    1.377516
     36         16           0       -4.231732   -0.180247    0.793231
     37          6           0       -4.919881   -0.185220   -0.915878
     38          1           0       -4.192046   -0.649610   -1.591176
     39          1           0       -5.066792    0.848324   -1.247599
     40          6           0       -6.225518   -0.977031   -1.007703
     41          1           0       -6.573545   -0.968547   -2.048107
     42          1           0       -6.050796   -2.020398   -0.726573
     43         16           0       -7.597188   -0.429915    0.081396
     44          6           0       -7.946056    1.241882   -0.600947
     45          1           0       -7.081737    1.892252   -0.430852
     46          1           0       -8.104374    1.155690   -1.682491
     47          6           0       -9.185371    1.826065    0.077529
     48          1           0       -9.393426    2.826786   -0.317699
     49          1           0      -10.066118    1.199754   -0.097902
     50          1           0       -9.039320    1.914051    1.159271
 ---------------------------------------------------------------------
 Stoichiometry    C14H30O3S3
 Framework group  C1[X(C14H30O3S3)]
                         Standard orientation:                         
 ---------------------------------------------------------------------
 Center     Atomic      Atomic             Coordinates (Angstroms)
 Number     Number       Type             X           Y           Z
 ---------------------------------------------------------------------
      1          6           0        6.651925    3.281544   -0.273003
      2          1           0        5.940937    3.832164    0.353458
      3          1           0        7.635912    3.753677   -0.182671
      4          1           0        6.327784    3.363719   -1.315808
      5          6           0        6.712923    1.823447    0.152554
      6          1           0        7.041562    1.740138    1.202515
      7          1           0        5.727569    1.347928    0.081546
      8          8           0        7.655692    1.165123   -0.694512
      9          6           0        7.980099   -0.160344   -0.329189
     10          1           0        8.161351   -0.239637    0.755435
     11          1           0        8.917553   -0.393898   -0.848445
     12          6           0        6.939092   -1.196357   -0.736789
     13          1           0        6.631648   -1.007329   -1.777654
     14          1           0        7.387105   -2.205947   -0.694635
     15          8           0        5.825762   -1.113155    0.135413
     16          6           0        4.712750   -1.878100   -0.278370
     17          1           0        4.928725   -2.958413   -0.205093
     18          1           0        4.452143   -1.656621   -1.325267
     19          6           0        3.531503   -1.543383    0.610849
     20          1           0        3.833493   -1.623272    1.667461
     21          1           0        2.727084   -2.270977    0.423288
     22          8           0        3.104741   -0.223380    0.314557
     23          6           0        2.187736    0.327592    1.238844
     24          1           0        2.093421    1.381003    0.958865
     25          1           0        2.595916    0.278313    2.263035
     26          6           0        0.804710   -0.331059    1.237700
     27          1           0        0.148927    0.253591    1.892346
     28          1           0        0.850338   -1.351533    1.634395
     29         16           0        0.114960   -0.376042   -0.467811
     30          6           0       -1.623529   -0.858581   -0.102023
     31          1           0       -2.014474   -1.227732   -1.055404
     32          1           0       -1.630142   -1.702080    0.595829
     33          6           0       -2.485918    0.288745    0.428139
     34          1           0       -2.476195    1.134560   -0.266730
     35          1           0       -2.096956    0.654391    1.383507
     36         16           0       -4.227064   -0.193012    0.787937
     37          6           0       -4.914868   -0.176318   -0.921237
     38          1           0       -4.186807   -0.631915   -1.602254
     39          1           0       -5.061917    0.861344   -1.239777
     40          6           0       -6.220331   -0.967149   -1.023419
     41          1           0       -6.568150   -0.945462   -2.063701
     42          1           0       -6.045459   -2.013982   -0.755585
     43         16           0       -7.592327   -0.434237    0.072291
     44          6           0       -7.941389    1.246060   -0.588743
     45          1           0       -7.077233    1.894375   -0.410190
     46          1           0       -8.099473    1.173639   -1.671331
     47          6           0       -9.180956    1.821299    0.096876
     48          1           0       -9.389129    2.826939   -0.285597
     49          1           0      -10.061544    1.197105   -0.086708
     50          1           0       -9.035139    1.895508    1.179683
 ---------------------------------------------------------------------
 Standard basis: 6-31G(d) (6D, 7F)
   372 basis functions,   752 primitive gaussians,   372 cartesian basis functions
    93 alpha electrons       93 beta electrons
 Requested convergence on RMS density matrix=1.00D-08 within  64 cycles.
 Requested convergence on MAX density matrix=1.00D-06.
 Requested convergence on             energy=1.00D-06.
 SCF Done:  E(RB3LYP) =  -1971.75451193     A.U. after    9 cycles
            NFock=  9  Conv=0.56D-08     -V/T= 2.0058
 Step number   6 out of a maximum of   55
     Eigenvalues ---    0.00214   0.00230   0.00230   0.00231   0.00305
     Eigenvalues ---    0.00423   0.00429   0.00435   0.00448   0.00570
     Eigenvalues ---    0.00594   0.00639   0.00690   0.01254   0.01500
     Eigenvalues ---    0.01554   0.01598   0.01612   0.01754   0.04261
     Eigenvalues ---    0.04508   0.04699   0.04713   0.04870   0.04913
     Eigenvalues ---    0.04999   0.05134   0.05165   0.05385   0.05423
     Eigenvalues ---    0.05472   0.05543   0.05617   0.05678   0.05685
     Eigenvalues ---    0.05724   0.05754   0.05759   0.05813   0.05850
     Eigenvalues ---    0.05859   0.05900   0.05964   0.06073   0.06160
     Eigenvalues ---    0.06169   0.06224   0.10768   0.11052   0.11125
     Eigenvalues ---    0.11151   0.11214   0.11243   0.11356   0.11630
     Eigenvalues ---    0.11658   0.11854   0.11877   0.11901   0.13506
     Eigenvalues ---    0.13627   0.13651   0.13685   0.13701   0.13767
     Eigenvalues ---    0.13816   0.13958   0.14007   0.14065   0.14137
     Eigenvalues ---    0.14145   0.15959   0.15993   0.16000   0.16001
     Eigenvalues ---    0.16007   0.16029   0.19132   0.21752   0.21947
     Eigenvalues ---    0.22004   0.22014   0.22020   0.22027   0.22038
     Eigenvalues ---    0.22080   0.22310   0.22804   0.22938   0.23488
     Eigenvalues ---    0.24203   0.24253   0.24342   0.24357   0.24597
     Eigenvalues ---    0.24960   0.24999   0.25199   0.25656   0.27650
     Eigenvalues ---    0.29576   0.29863   0.29977   0.30003   0.30210
     Eigenvalues ---    0.30945   0.31836   0.33203   0.33282   0.33421
     Eigenvalues ---    0.33488   0.33531   0.33557   0.33594   0.33667
     Eigenvalues ---    0.33798   0.33835   0.34211   0.34225   0.34238
     Eigenvalues ---    0.34256   0.34287   0.34311   0.34326   0.34348
     Eigenvalues ---    0.34362   0.34370   0.34391   0.34400   0.34406
     Eigenvalues ---    0.34414   0.34433   0.34441   0.34442   0.34486
     Eigenvalues ---    0.34511   0.34627   0.36994   0.42940   0.43920
     Eigenvalues ---    0.44228   0.44752   0.45142   0.47642
 Maximum Force            0.000084     0.000015     NO 
 RMS     Force            0.000023     0.000010     NO 
 Maximum Displacement     0.065123     0.000060     NO 
 RMS     Displacement     0.015054     0.000040     NO 
                          Input orientation:                          
 ---------------------------------------------------------------------
 Center     Atomic      Atomic             Coordinates (Angstroms)
 Number     Number       Type             X           Y           Z
 ---------------------------------------------------------------------
      1          6           0        6.653410    3.274341   -0.302200
      2          1           0        5.945448    3.830582    0.322701
      3          1           0        7.638217    3.746116   -0.219314
      4          1           0        6.325356    3.348953   -1.344362
      5          6           0        6.714694    1.819478    0.134228
      6          1           0        7.047101    1.743764    1.183586
      7          1           0        5.728682    1.344267    0.070438
      8          8           0        7.653606    1.153758   -0.711287
      9          6           0        7.976058   -0.170015   -0.338387
     10          1           0        8.160355   -0.242528    0.746213
     11          1           0        8.911376   -0.409498   -0.858799
     12          6           0        6.930718   -1.205573   -0.735554
     13          1           0        6.621058   -1.022809   -1.776904
     14          1           0        7.375443   -2.216363   -0.687614
     15          8           0        5.820037   -1.112202    0.138980
     16          6           0        4.703664   -1.877287   -0.265320
     17          1           0        4.917513   -2.957547   -0.185434
     18          1           0        4.439590   -1.662525   -1.312768
     19          6           0        3.526470   -1.533593    0.625877
     20          1           0        3.832255   -1.606909    1.681899
     21          1           0        2.719637   -2.260550    0.446463
     22          8           0        3.101675   -0.214719    0.321948
     23          6           0        2.189404    0.345362    1.245430
     24          1           0        2.097156    1.397112    0.958523
     25          1           0        2.601221    0.302182    2.268445
     26          6           0        0.804502   -0.309260    1.253376
     27          1           0        0.152233    0.282148    1.905386
     28          1           0        0.848358   -1.326710    1.657983
     29         16           0        0.109444   -0.365352   -0.449568
     30          6           0       -1.628655   -0.843096   -0.075409
     31          1           0       -2.020099   -1.226977   -1.022751
     32          1           0       -1.634451   -1.676044    0.635002
     33          6           0       -2.491663    0.311540    0.437522
     34          1           0       -2.482678    1.146720   -0.270091
     35          1           0       -2.102748    0.692211    1.386998
     36         16           0       -4.232499   -0.165858    0.804500
     37          6           0       -4.917628   -0.185301   -0.905686
     38          1           0       -4.187196   -0.652903   -1.575972
     39          1           0       -5.066015    0.845307   -1.245644
     40          6           0       -6.221381   -0.980498   -0.994150
     41          1           0       -6.567446   -0.981380   -2.035258
     42          1           0       -6.044678   -2.021154   -0.704394
     43         16           0       -7.596371   -0.427632    0.087839
     44          6           0       -7.953517    1.234310   -0.613758
     45          1           0       -7.093672    1.891842   -0.448661
     46          1           0       -8.108287    1.135250   -1.694728
     47          6           0       -9.198138    1.818656    0.054776
     48          1           0       -9.411349    2.813571   -0.352161
     49          1           0      -10.074654    1.185092   -0.115782
     50          1           0       -9.055559    1.919721    1.135840
 ---------------------------------------------------------------------
 Stoichiometry    C14H30O3S3
 Framework group  C1[X(C14H30O3S3)]
                         Standard orientation:                         
 ---------------------------------------------------------------------
 Center     Atomic      Atomic             Coordinates (Angstroms)
 Number     Number       Type             X           Y           Z
 ---------------------------------------------------------------------
      1          6           0        6.656859    3.275840   -0.266611
      2          1           0        5.948341    3.824840    0.364036
      3          1           0        7.641424    3.747078   -0.178000
      4          1           0        6.329310    3.361839   -1.308054
      5          6           0        6.718531    1.816264    0.153728
      6          1           0        7.050429    1.729085    1.202357
      7          1           0        5.732752    1.341378    0.084174
      8          8           0        7.658157    1.160328   -0.698611
      9          6           0        7.980975   -0.167356   -0.340209
     10          1           0        8.164745   -0.251786    0.743618
     11          1           0        8.916662   -0.400679   -0.862753
     12          6           0        6.936276   -1.198890   -0.749350
     13          1           0        6.627075   -1.004748   -1.788775
     14          1           0        7.381402   -2.209964   -0.712364
     15          8           0        5.825105   -1.115661    0.125587
     16          6           0        4.709264   -1.876690   -0.287732
     17          1           0        4.923526   -2.957680   -0.219689
     18          1           0        4.445638   -1.650465   -1.332877
     19          6           0        3.531466   -1.543365    0.606601
     20          1           0        3.836739   -1.628231    1.661906
     21          1           0        2.725032   -2.268628    0.418738
     22          8           0        3.106272   -0.221386    0.317059
     23          6           0        2.193291    0.328066    1.246207
     24          1           0        2.100748    1.382887    0.970903
     25          1           0        2.604599    0.273743    2.268895
     26          6           0        0.808660   -0.327179    1.246191
     27          1           0        0.155806    0.256710    1.904365
     28          1           0        0.852737   -1.349024    1.639542
     29         16           0        0.114503   -0.364719   -0.457629
     30          6           0       -1.623588   -0.847294   -0.089681
[...]
     19          6           0        3.525002   -1.532736    0.626633
     20          1           0        3.829350   -1.604902    1.683190
     21          1           0        2.719716   -2.261280    0.446502
     22          8           0        3.098558   -0.214835    0.321142
     23          6           0        2.184138    0.344233    1.243050
     24          1           0        2.090720    1.395753    0.955596
     25          1           0        2.594456    0.302086    2.266720
     26          6           0        0.800362   -0.312827    1.249190
     27          1           0        0.146034    0.277726    1.899993
     28          1           0        0.845415   -1.330019    1.654480
     29         16           0        0.108006   -0.370849   -0.454767
     30          6           0       -1.630239   -0.849230   -0.082369
     31          1           0       -2.022052   -1.229542   -1.031031
     32          1           0       -1.636325   -1.684854    0.624952
     33          6           0       -2.492673    0.303899    0.435164
     34          1           0       -2.483342    1.141854   -0.269220
     35          1           0       -2.103230    0.680846    1.385953
     36         16           0       -4.233577   -0.173925    0.800928
     37          6           0       -4.920128   -0.183112   -0.908801
     38          1           0       -4.190356   -0.646918   -1.582485
     39          1           0       -5.068517    0.849535   -1.242697
     40          6           0       -6.224176   -0.977441   -1.000743
     41          1           0       -6.570764   -0.972784   -2.041687
     42          1           0       -6.047759   -2.019704   -0.716517
     43         16           0       -7.598328   -0.429575    0.084837
     44          6           0       -7.955108    1.235813   -0.608516
     45          1           0       -7.094292    1.891900   -0.442404
     46          1           0       -8.112233    1.141889   -1.689646
     47          6           0       -9.197739    1.818506    0.065180
     48          1           0       -9.410621    2.815448   -0.336951
     49          1           0      -10.075363    1.186691   -0.106335
     50          1           0       -9.052885    1.914682    1.146417
 ---------------------------------------------------------------------
 Stoichiometry    C14H30O3S3
 Framework group  C1[X(C14H30O3S3)]
                         Standard orientation:                         
 ---------------------------------------------------------------------
 Center     Atomic      Atomic             Coordinates (Angstroms)
 Number     Number       Type             X           Y           Z
 ---------------------------------------------------------------------
      1          6           0        6.666116    3.277662   -0.273097
      2          1           0        5.958221    3.830785    0.354638
      3          1           0        7.651241    3.748243   -0.186876
      4          1           0        6.338748    3.358595   -1.315013
      5          6           0        6.726042    1.820274    0.154993
      6          1           0        7.056831    1.738455    1.204475
      7          1           0        5.739946    1.345852    0.086843
      8          8           0        7.666143    1.159247   -0.692843
      9          6           0        7.983273   -0.168768   -0.330500
     10          1           0        8.162209   -0.251979    0.754279
     11          1           0        8.920577   -0.405647   -0.848511
     12          6           0        6.937692   -1.198201   -0.742889
     13          1           0        6.633341   -1.004600   -1.783920
     14          1           0        7.380165   -2.210356   -0.702915
     15          8           0        5.823227   -1.111512    0.127395
     16          6           0        4.709335   -1.874388   -0.287621
     17          1           0        4.925342   -2.955051   -0.219609
     18          1           0        4.446659   -1.648353   -1.333118
     19          6           0        3.529891   -1.543399    0.605405
     20          1           0        3.833831   -1.628748    1.661096
     21          1           0        2.724754   -2.269714    0.415854
     22          8           0        3.103428   -0.221822    0.316257
     23          6           0        2.188587    0.325576    1.244725
     24          1           0        2.095170    1.380601    0.970412
     25          1           0        2.598506    0.270666    2.267951
     26          6           0        0.804878   -0.331649    1.242098
     27          1           0        0.150231    0.250650    1.899980
     28          1           0        0.849879   -1.353827    1.634648
     29         16           0        0.113199   -0.368419   -0.462725
     30          6           0       -1.625142   -0.851596   -0.097029
     31          1           0       -2.016541   -1.220050   -1.050529
     32          1           0       -1.631418   -1.696005    0.599781
     33          6           0       -2.487902    0.294880    0.434549
     34          1           0       -2.478382    1.141583   -0.259292
     35          1           0       -2.098873    0.659942    1.390135
     36         16           0       -4.228899   -0.187658    0.793619
     37          6           0       -4.914775   -0.175522   -0.916362
     38          1           0       -4.184689   -0.630790   -1.595508
     39          1           0       -5.063142    0.861206   -1.237372
     40          6           0       -6.218703   -0.968771   -1.018751
     41          1           0       -6.564882   -0.951126   -2.059692
     42          1           0       -6.042288   -2.014490   -0.747516
     43         16           0       -7.593340   -0.434668    0.073056
     44          6           0       -7.950023    1.239228   -0.599548
     45          1           0       -7.089342    1.893273   -0.424901
     46          1           0       -8.106712    1.158822   -1.681831
     47          6           0       -9.192982    1.813322    0.080894
     48          1           0       -9.405810    2.815196   -0.308817
     49          1           0      -10.070471    1.183614   -0.098860
     50          1           0       -9.048563    1.895978    1.163306
 ---------------------------------------------------------------------
 Standard basis: 6-31G(d) (6D, 7F)
   372 basis functions,   752 primitive gaussians,   372 cartesian basis functions
    93 alpha electrons       93 beta electrons
 Requested convergence on RMS density matrix=1.00D-08 within  64 cycles.
 Requested convergence on MAX density matrix=1.00D-06.
 Requested convergence on             energy=1.00D-06.
 SCF Done:  E(RB3LYP) =  -1971.75451346     A.U. after    3 cycles
            NFock=  3  Conv=0.58D-08     -V/T= 2.0058
 Step number  17 out of a maximum of   55
     Eigenvalues ---    0.00198   0.00240   0.00310   0.00347   0.00377
     Eigenvalues ---    0.00423   0.00431   0.00446   0.00538   0.00578
     Eigenvalues ---    0.00595   0.00618   0.00662   0.00703   0.01050
     Eigenvalues ---    0.01474   0.01526   0.01595   0.01715   0.04525
     Eigenvalues ---    0.04664   0.04721   0.04807   0.04879   0.04917
     Eigenvalues ---    0.04962   0.05087   0.05172   0.05389   0.05438
     Eigenvalues ---    0.05536   0.05565   0.05603   0.05638   0.05678
     Eigenvalues ---    0.05721   0.05747   0.05758   0.05805   0.05856
     Eigenvalues ---    0.05894   0.05906   0.06066   0.06119   0.06151
     Eigenvalues ---    0.06172   0.06388   0.10057   0.10948   0.11132
     Eigenvalues ---    0.11146   0.11200   0.11259   0.11380   0.11631
     Eigenvalues ---    0.11671   0.11847   0.11859   0.12056   0.13433
     Eigenvalues ---    0.13598   0.13655   0.13702   0.13758   0.13787
     Eigenvalues ---    0.13942   0.13983   0.14045   0.14069   0.14161
     Eigenvalues ---    0.14350   0.15895   0.15954   0.15998   0.16009
     Eigenvalues ---    0.16039   0.16129   0.18756   0.20933   0.21676
     Eigenvalues ---    0.21970   0.22000   0.22024   0.22084   0.22243
     Eigenvalues ---    0.22496   0.22660   0.22962   0.23051   0.23525
     Eigenvalues ---    0.23915   0.24167   0.24282   0.24363   0.24763
     Eigenvalues ---    0.24850   0.25843   0.26338   0.27103   0.28765
     Eigenvalues ---    0.29808   0.29880   0.30018   0.30046   0.30266
     Eigenvalues ---    0.31048   0.31872   0.33147   0.33309   0.33437
     Eigenvalues ---    0.33493   0.33522   0.33596   0.33623   0.33713
     Eigenvalues ---    0.33813   0.33916   0.34214   0.34238   0.34273
     Eigenvalues ---    0.34293   0.34314   0.34324   0.34343   0.34359
     Eigenvalues ---    0.34394   0.34397   0.34398   0.34416   0.34431
     Eigenvalues ---    0.34436   0.34464   0.34480   0.34522   0.34545
     Eigenvalues ---    0.34902   0.35874   0.37401   0.42650   0.43648
     Eigenvalues ---    0.44084   0.44746   0.45792   0.48536
 Maximum Force            0.000000     0.000015     YES
 RMS     Force            0.000000     0.000010     YES
 Maximum Displacement     0.000072     0.000060     NO 
 RMS     Displacement     0.000017     0.000040     YES
 Optimization completed on the basis of negligible forces.
    -- Stationary point found.
                          Input orientation:                          
 ---------------------------------------------------------------------
 Center     Atomic      Atomic             Coordinates (Angstroms)
 Number     Number       Type             X           Y           Z
 ---------------------------------------------------------------------
      1          6           0        6.661364    3.276626   -0.313351
      2          1           0        5.953774    3.837633    0.307694
      3          1           0        7.646571    3.748145   -0.233412
      4          1           0        6.333594    3.344552   -1.356069
      5          6           0        6.721313    1.824701    0.132915
      6          1           0        7.052508    1.755983    1.183209
      7          1           0        5.735143    1.349568    0.071094
      8          8           0        7.661013    1.153019   -0.706955
      9          6           0        7.978151   -0.170392   -0.328150
     10          1           0        8.157508   -0.240044    0.757514
     11          1           0        8.915227   -0.413832   -0.843526
     12          6           0        6.932303   -1.204793   -0.727216
     13          1           0        6.627561   -1.024200   -1.770468
     14          1           0        7.374691   -2.216416   -0.674756
     15          8           0        5.818192   -1.107105    0.142355
     16          6           0        4.704058   -1.874996   -0.262646
     17          1           0        4.919984   -2.954747   -0.181204
     18          1           0        4.440992   -1.662031   -1.310785
     19          6           0        3.525002   -1.532736    0.626633
     20          1           0        3.829350   -1.604902    1.683190
     21          1           0        2.719716   -2.261280    0.446502
     22          8           0        3.098558   -0.214835    0.321142
     23          6           0        2.184138    0.344233    1.243050
     24          1           0        2.090720    1.395753    0.955596
     25          1           0        2.594456    0.302086    2.266720
     26          6           0        0.800362   -0.312827    1.249190
     27          1           0        0.146034    0.277726    1.899993
     28          1           0        0.845415   -1.330019    1.654480
     29         16           0        0.108006   -0.370849   -0.454767
     30          6           0       -1.630239   -0.849230   -0.082369
     31          1           0       -2.022052   -1.229542   -1.031031
     32          1           0       -1.636325   -1.684854    0.624952
     33          6           0       -2.492673    0.303899    0.435164
     34          1           0       -2.483342    1.141854   -0.269220
     35          1           0       -2.103230    0.680846    1.385953
     36         16           0       -4.233577   -0.173925    0.800928
     37          6           0       -4.920128   -0.183112   -0.908801
     38          1           0       -4.190356   -0.646918   -1.582485
     39          1           0       -5.068517    0.849535   -1.242697
     40          6           0       -6.224176   -0.977441   -1.000743
     41          1           0       -6.570764   -0.972784   -2.041687
     42          1           0       -6.047759   -2.019704   -0.716517
     43         16           0       -7.598328   -0.429575    0.084837
     44          6           0       -7.955108    1.235813   -0.608516
     45          1           0       -7.094292    1.891900   -0.442404
     46          1           0       -8.112233    1.141889   -1.689646
     47          6           0       -9.197739    1.818506    0.065180
     48          1           0       -9.410621    2.815448   -0.336951
     49          1           0      -10.075363    1.186691   -0.106335
     50          1           0       -9.052885    1.914682    1.146417
 ---------------------------------------------------------------------
 Stoichiometry    C14H30O3S3
 Framework group  C1[X(C14H30O3S3)]
                         Standard orientation:                         
 ---------------------------------------------------------------------
 Center     Atomic      Atomic             Coordinates (Angstroms)
 Number     Number       Type             X           Y           Z
 ---------------------------------------------------------------------
      1          6           0        6.666116    3.277662   -0.273097
      2          1           0        5.958221    3.830785    0.354638
      3          1           0        7.651241    3.748243   -0.186876
      4          1           0        6.338748    3.358595   -1.315013
      5          6           0        6.726042    1.820274    0.154993
      6          1           0        7.056831    1.738455    1.204475
      7          1           0        5.739946    1.345852    0.086843
      8          8           0        7.666143    1.159247   -0.692843
      9          6           0        7.983273   -0.168768   -0.330500
     10          1           0        8.162209   -0.251979    0.754279
     11          1           0        8.920577   -0.405647   -0.848511
     12          6           0        6.937692   -1.198201   -0.742889
     13          1           0        6.633341   -1.004600   -1.783920
     14          1           0        7.380165   -2.210356   -0.702915
     15          8           0        5.823227   -1.111512    0.127395
     16          6           0        4.709335   -1.874388   -0.287621
     17          1           0        4.925342   -2.955051   -0.219609
     18          1           0        4.446659   -1.648353   -1.333118
     19          6           0        3.529891   -1.543399    0.605405
     20          1           0        3.833831   -1.628748    1.661096
     21          1           0        2.724754   -2.269714    0.415854
     22          8           0        3.103428   -0.221822    0.316257
     23          6           0        2.188587    0.325576    1.244725
     24          1           0        2.095170    1.380601    0.970412
     25          1           0        2.598506    0.270666    2.267951
     26          6           0        0.804878   -0.331649    1.242098
     27          1           0        0.150231    0.250650    1.899980
     28          1           0        0.849879   -1.353827    1.634648
     29         16           0        0.113199   -0.368419   -0.462725
     30          6           0       -1.625142   -0.851596   -0.097029
     31          1           0       -2.016541   -1.220050   -1.050529
     32          1           0       -1.631418   -1.696005    0.599781
     33          6           0       -2.487902    0.294880    0.434549
     34          1           0       -2.478382    1.141583   -0.259292
     35          1           0       -2.098873    0.659942    1.390135
     36         16           0       -4.228899   -0.187658    0.793619
     37          6           0       -4.914775   -0.175522   -0.916362
     38          1           0       -4.184689   -0.630790   -1.595508
     39          1           0       -5.063142    0.861206   -1.237372
     40          6           0       -6.218703   -0.968771   -1.018751
     41          1           0       -6.564882   -0.951126   -2.059692
     42          1           0       -6.042288   -2.014490   -0.747516
     43         16           0       -7.593340   -0.434668    0.073056
     44          6           0       -7.950023    1.239228   -0.599548
     45          1           0       -7.089342    1.893273   -0.424901
     46          1           0       -8.106712    1.158822   -1.681831
     47          6           0       -9.192982    1.813322    0.080894
     48          1           0       -9.405810    2.815196   -0.308817
     49          1           0      -10.070471    1.183614   -0.098860
     50          1           0       -9.048563    1.895978    1.163306
 ---------------------------------------------------------------------
 Mulliken charges:
     1  C   -0.451268
     2  H    0.136916
     3  H    0.150164
     4  H    0.155002
     5  C   -0.020853
     6  H    0.110027
     7  H    0.161207
     8  O   -0.473816
     9  C   -0.033378
    10  H    0.128086
    11  H    0.139402
    12  C   -0.020286
    13  H    0.134188
    14  H    0.112370
    15  O   -0.469385
    16  C   -0.020409
    17  H    0.118335
    18  H    0.143008
    19  C   -0.031838
    20  H    0.131840
    21  H    0.134727
    22  O   -0.453986
    23  C   -0.025768
    24  H    0.163943
    25  H    0.133599
    26  C   -0.435028
    27  H    0.169400
    28  H    0.171460
    29  S    0.097827
    30  C   -0.414203
    31  H    0.176591
    32  H    0.180996
    33  C   -0.419005
    34  H    0.181446
    35  H    0.177445
    36  S    0.107677
    37  C   -0.404176
    38  H    0.170571
    39  H    0.174616
    40  C   -0.426561
    41  H    0.172468
    42  H    0.189921
    43  S    0.105111
    44  C   -0.397412
    45  H    0.175243
    46  H    0.162090
    47  C   -0.454227
    48  H    0.153051
    49  H    0.165049
    50  H    0.167820
 Sum of Mulliken charges =  -0.00000
 Dipole moment (field-independent basis, Debye):
    X=             -0.7130    Y=             -0.7784    Z=             -0.2659  Tot=              1.0886
 Quadrupole moment (field-independent basis, Debye-Ang):
   XX=           -161.6642   YY=           -141.5815   ZZ=           -144.3930
   XY=            -21.2784   XZ=             19.9225   YZ=              3.1627
 Traceless Quadrupole moment (field-independent basis, Debye-Ang):
   XX=            -12.4513   YY=              7.6314   ZZ=              4.8199
   XY=            -21.2784   XZ=             19.9225   YZ=              3.1627
 Octapole moment (field-independent basis, Debye-Ang**2):
  XXX=             37.2122  YYY=             -5.1153  ZZZ=             -1.4487  XYY=             19.5305
  XXY=              1.3369  XXZ=            -69.2315  XZZ=             15.0540  YZZ=             -2.3146
  YYZ=              0.5326  XYZ=             16.8883
 Hexadecapole moment (field-independent basis, Debye-Ang**3):
 XXXX=         -28645.2290 YYYY=          -1575.9208 ZZZZ=           -619.6896 XXXY=          -1459.0421
 XXXZ=            676.1249 YYYX=            -29.5569 YYYZ=             -3.5842 ZZZX=             24.4145
 ZZZY=              1.4254 XXYY=          -4788.0536 XXZZ=          -4756.6615 YYZZ=           -373.2829
 XXYZ=            151.5090 YYXZ=             22.8455 ZZXY=            -14.4658
 Job cpu time:       0 days  3 hours 34 minutes 39.5 seconds.
 Normal termination of Gaussian 16 at Sat Jul  8 21:02:22 2023.
