 Copyright (c) 1988-2019, Gaussian, Inc.  All Rights Reserved.
  
 This is part of the Gaussian(R) 16 program.  It is based on
 the Gaussian(R) 09 system (copyright 2009, Gaussian, Inc.),
 the Gaussian(R) 03 system (copyright 2003, Gaussian, Inc.),
 the Gaussian(R) 98 system (copyright 1998, Gaussian, Inc.),
 the Gaussian(R) 94 system (copyright 1995, Gaussian, Inc.),
 the Gaussian 92(TM) system (copyright 1992, Gaussian, Inc.),
 the Gaussian 90(TM) system (copyright 1990, Gaussian, Inc.),
 the Gaussian 88(TM) system (copyright 1988, Gaussian, Inc.),
 the Gaussian 86(TM) system (copyright 1986, Carnegie Mellon
 University), and the Gaussian 82(TM) system (copyright 1983,
 Carnegie Mellon University). Gaussian is a federally registered
 trademark of Gaussian, Inc.
 Cite this work as:
 Gaussian 16, Revision C.01,
 M. J. Frisch, G. W. Trucks, H. B. Schlegel, G. E. Scuseria, 
 M. A. Robb, J. R. Cheeseman, G. Scalmani, V. Barone, 
 G. A. Petersson, H. Nakatsuji, X. Li, M. Caricato, A. V. Marenich, 
 J. Bloino, B. G. Janesko, R. Gomperts, B. Mennucci, H. P. Hratchian, 
 J. V. Ortiz, A. F. Izmaylov, J. L. Sonnenberg, D. Williams-Young, 
 F. Ding, F. Lipparini, F. Egidi, J. Goings, B. Peng, A. Petrone, 
 T. Henderson, D. Ranasinghe, V. G. Zakrzewski, J. Gao, N. Rega, 
 G. Zheng, W. Liang, M. Hada, M. Ehara, K. Toyota, R. Fukuda, 
 J. Hasegawa, M. Ishida, T. Nakajima, Y. Honda, O. Kitao, H. Nakai, 
 T. Vreven, K. Throssell, J. A. Montgomery, Jr., J. E. Peralta, 
 F. Ogliaro, M. J. Bearpark, J. J. Heyd, E. N. Brothers, K. N. Kudin, 
 V. N. Staroverov, T. A. Keith, R. Kobayashi, J. Normand, 
 K. Raghavachari, A. P. Rendell, J. C. Burant, S. S. Iyengar, 
 J. Tomasi, M. Cossi, J. M. Millam, M. Klene, C. Adamo, R. Cammi, 
 J. W. Ochterski, R. L. Martin, K. Morokuma, O. Farkas, 
 J. B. Foresman, and D. J. Fox, Gaussian, Inc., Wallingford CT, 2019.
 
 ******************************************
 Gaussian 16:  EM64L-G16RevC.01  3-Jul-2019
                 8-Jul-2023 
 ******************************************
 ----------------------------------------------------------------------
 #P B3LYP/6-31G(d) Integral=Ultrafine Opt=(Tight,MaxCycle=55) GFInput G
 FPrint SCF(Conver=8,XQC,MaxConventionalCycles=64,MaxCycle=128) Test
 ----------------------------------------------------------------------
 1/6=55,7=10,18=20,19=15,26=4,38=1/1,3;
 2/9=110,12=2,17=6,18=5,40=1/2;
 3/5=1,6=6,7=1,11=2,24=110,25=1,30=1,71=1,74=-5,75=-5/1,2,3;
 4//1;
 5/5=2,6=8,7=128,8=3,13=1,38=5,85=64/2,8;
 6/7=2,8=2,9=2,10=2,28=1/1;
 7//1,2,3,16;
 1/6=55,7=10,18=20,19=15,26=4/3(2);
 2/9=110/2;
 99//99;
 2/9=110/2;
 3/5=1,6=6,7=1,11=2,25=1,30=1,71=1,74=-5,75=-5/1,2,3;
 4/5=5,16=3,69=1/1;
 5/5=2,6=8,7=128,8=3,13=1,38=5,85=64/2,8;
 7//1,2,3,16;
 1/6=55,7=10,18=20,19=15,26=4/3(-5);
 2/9=110/2;
 6/7=2,8=2,9=2,10=2,19=2,28=1/1;
 99/9=1/99;
 ----------------------------------------------------------
 Optimization step - Input generated by PyRED DVE-DMDS-OPLS
 ----------------------------------------------------------
 Symbolic Z-matrix:
 Charge =  0 Multiplicity = 1
 C                    -8.987    -1.546    -1.117 
 H                    -9.865    -1.602    -1.769 
 H                    -8.141    -1.971    -1.665 
 H                    -9.172    -2.167    -0.236 
 C                    -8.732    -0.104    -0.704 
 H                    -8.524     0.517    -1.588 
 H                    -9.618     0.306    -0.212 
 O                    -7.685     0.036     0.237 
 C                    -6.392    -0.144    -0.287 
 H                    -6.243     0.465    -1.192 
 H                    -6.207    -1.193    -0.56 
 C                    -5.415     0.303     0.791 
 H                    -5.574     1.364     1.001 
 H                    -5.607    -0.256     1.717 
 O                    -4.072     0.156     0.377 
 C                    -3.52     -1.127     0.604 
 H                    -4.079    -1.896     0.05 
 H                    -3.567    -1.381     1.673 
 C                    -2.078    -1.146     0.135 
 H                    -2.017    -0.724    -0.875 
 H                    -1.744    -2.186     0.081 
 O                    -1.164    -0.519     1.011 
 C                    -1.277     0.878     1.188 
 H                    -0.447     1.138     1.852 
 H                    -2.21      1.131     1.707 
 C                    -1.219     1.725    -0.08 
 H                    -1.18      2.777     0.224 
 H                    -2.137     1.595    -0.659 
 S                     0.133     1.379    -1.254 
 C                     1.607     1.456    -0.178 
 H                     2.401     1.894    -0.787 
 H                     1.417     2.154     0.642 
 C                     2.026     0.09      0.357 
 H                     2.273    -0.581    -0.471 
 H                     1.2      -0.379     0.895 
 S                     3.414     0.164     1.538 
 C                     4.83      0.511     0.44 
 H                     5.629     0.836     1.112 
 H                     4.606     1.357    -0.215 
 C                     5.276    -0.696    -0.378 
 H                     5.499    -1.541     0.276 
 H                     4.477    -1.02     -1.051 
 S                     6.692    -0.353    -1.474 
 C                     8.073    -0.259    -0.285 
 H                     8.904     0.145    -0.871 
 H                     7.844     0.485     0.483 
 C                     8.464    -1.591     0.342 
 H                     8.732    -2.32     -0.428 
 H                     9.323    -1.459     1.008 
 H                     7.649    -2.014     0.936 
 
 ITRead=  0  0  0  0  0  0  0  0  0  0  0  0  0  0  0  0  0  0  0  0
 ITRead=  0  0  0  0  0  0  0  0  0  0  0  0  0  0  0  0  0  0  0  0
 ITRead=  0  0  0  0  0  0  0  0  0  0
 MicOpt= -1 -1 -1 -1 -1 -1 -1 -1 -1 -1 -1 -1 -1 -1 -1 -1 -1 -1 -1 -1
 MicOpt= -1 -1 -1 -1 -1 -1 -1 -1 -1 -1 -1 -1 -1 -1 -1 -1 -1 -1 -1 -1
 MicOpt= -1 -1 -1 -1 -1 -1 -1 -1 -1 -1
 NAtoms=     50 NQM=       50 NQMF=       0 NMMI=      0 NMMIF=      0
                NMic=       0 NMicF=      0.
                          Input orientation:                          
 ---------------------------------------------------------------------
 Center     Atomic      Atomic             Coordinates (Angstroms)
 Number     Number       Type             X           Y           Z
 ---------------------------------------------------------------------
      1          6           0       -8.987000   -1.546000   -1.117000
      2          1           0       -9.865000   -1.602000   -1.769000
      3          1           0       -8.141000   -1.971000   -1.665000
      4          1           0       -9.172000   -2.167000   -0.236000
      5          6           0       -8.732000   -0.104000   -0.704000
      6          1           0       -8.524000    0.517000   -1.588000
      7          1           0       -9.618000    0.306000   -0.212000
      8          8           0       -7.685000    0.036000    0.237000
      9          6           0       -6.392000   -0.144000   -0.287000
     10          1           0       -6.243000    0.465000   -1.192000
     11          1           0       -6.207000   -1.193000   -0.560000
     12          6           0       -5.415000    0.303000    0.791000
     13          1           0       -5.574000    1.364000    1.001000
     14          1           0       -5.607000   -0.256000    1.717000
     15          8           0       -4.072000    0.156000    0.377000
     16          6           0       -3.520000   -1.127000    0.604000
     17          1           0       -4.079000   -1.896000    0.050000
     18          1           0       -3.567000   -1.381000    1.673000
     19          6           0       -2.078000   -1.146000    0.135000
     20          1           0       -2.017000   -0.724000   -0.875000
     21          1           0       -1.744000   -2.186000    0.081000
     22          8           0       -1.164000   -0.519000    1.011000
     23          6           0       -1.277000    0.878000    1.188000
     24          1           0       -0.447000    1.138000    1.852000
     25          1           0       -2.210000    1.131000    1.707000
     26          6           0       -1.219000    1.725000   -0.080000
     27          1           0       -1.180000    2.777000    0.224000
     28          1           0       -2.137000    1.595000   -0.659000
     29         16           0        0.133000    1.379000   -1.254000
     30          6           0        1.607000    1.456000   -0.178000
     31          1           0        2.401000    1.894000   -0.787000
     32          1           0        1.417000    2.154000    0.642000
     33          6           0        2.026000    0.090000    0.357000
     34          1           0        2.273000   -0.581000   -0.471000
     35          1           0        1.200000   -0.379000    0.895000
     36         16           0        3.414000    0.164000    1.538000
     37          6           0        4.830000    0.511000    0.440000
     38          1           0        5.629000    0.836000    1.112000
     39          1           0        4.606000    1.357000   -0.215000
     40          6           0        5.276000   -0.696000   -0.378000
     41          1           0        5.499000   -1.541000    0.276000
     42          1           0        4.477000   -1.020000   -1.051000
     43         16           0        6.692000   -0.353000   -1.474000
     44          6           0        8.073000   -0.259000   -0.285000
     45          1           0        8.904000    0.145000   -0.871000
     46          1           0        7.844000    0.485000    0.483000
     47          6           0        8.464000   -1.591000    0.342000
     48          1           0        8.732000   -2.320000   -0.428000
     49          1           0        9.323000   -1.459000    1.008000
     50          1           0        7.649000   -2.014000    0.936000
 ---------------------------------------------------------------------
 Stoichiometry    C14H30O3S3
 Framework group  C1[X(C14H30O3S3)]
                         Standard orientation:                         
 ---------------------------------------------------------------------
 Center     Atomic      Atomic             Coordinates (Angstroms)
 Number     Number       Type             X           Y           Z
 ---------------------------------------------------------------------
      1          6           0        8.987084   -1.544697    1.118750
      2          1           0        9.865096   -1.599905    1.770801
      3          1           0        8.141091   -1.969017    1.667287
      4          1           0        9.172061   -2.166778    0.238509
      5          6           0        8.732088   -0.103202    0.703987
      6          1           0        8.524111    0.518884    1.587229
      7          1           0        9.618082    0.306187    0.211467
      8          8           0        7.685071    0.035653   -0.237163
      9          6           0        6.392080   -0.143693    0.287083
     10          1           0        6.243103    0.466418    1.191338
     11          1           0        6.207076   -1.192356    0.561372
     12          6           0        5.415062    0.301993   -0.791446
     13          1           0        5.574067    1.362734   -1.002750
     14          1           0        5.607039   -0.258143   -1.716763
     15          8           0        4.072069    0.155513   -0.377239
     16          6           0        3.520054   -1.127760   -0.602655
     17          1           0        4.079058   -1.896085   -0.047723
     18          1           0        3.567030   -1.383071   -1.671343
     19          6           0        2.078063   -1.146172   -0.133603
     20          1           0        2.017086   -0.722933    0.875880
     21          1           0        1.744055   -2.186102   -0.078321
     22          8           0        1.164051   -0.520239   -1.010354
     23          6           0        1.277059    0.876542   -1.189069
     24          1           0        0.447049    1.135735   -1.853371
     25          1           0        2.210051    1.128897   -1.708397
     26          6           0        1.219092    1.725097    0.077893
     27          1           0        1.180095    2.776724   -0.227396
     28          1           0        2.137102    1.595799    0.657034
     29         16           0       -0.132888    1.380549    1.252343
     30          6           0       -1.606909    1.456242    0.176278
     31          1           0       -2.400893    1.894995    0.784756
     32          1           0       -1.416919    2.153234   -0.644581
     33          6           0       -2.025931    0.089591   -0.357038
     34          1           0       -2.272920   -0.580391    0.471789
     35          1           0       -1.199946   -0.380076   -0.894479
     36         16           0       -3.413954    0.162154   -1.538100
     37          6           0       -4.829929    0.510513   -0.440499
     38          1           0       -5.628939    0.834696   -1.112881
     39          1           0       -4.605909    1.357314    0.213459
     40          6           0       -5.275923   -0.695479    0.378990
     41          1           0       -5.498944   -1.541279   -0.273969
     42          1           0       -4.476913   -1.018661    1.052371
     43         16           0       -6.691899   -0.351123    1.474596
     44          6           0       -8.072921   -0.258569    0.285509
     45          1           0       -8.903906    0.146156    0.871029
     46          1           0       -7.843930    0.484486   -0.483407
     47          6           0       -8.463945   -1.591334   -0.339850
     48          1           0       -8.731936   -2.319387    0.431049
     49          1           0       -9.322957   -1.460143   -1.005994
     50          1           0       -7.648961   -2.015069   -0.933346
 ---------------------------------------------------------------------
 Standard basis: 6-31G(d) (6D, 7F)
   372 basis functions,   752 primitive gaussians,   372 cartesian basis functions
    93 alpha electrons       93 beta electrons
 Requested convergence on RMS density matrix=1.00D-08 within  64 cycles.
 Requested convergence on MAX density matrix=1.00D-06.
 Requested convergence on             energy=1.00D-06.
 SCF Done:  E(RB3LYP) =  -1971.75283311     A.U. after   13 cycles
            NFock= 13  Conv=0.49D-08     -V/T= 2.0056
 Mulliken charges:
     1  C   -0.462885
     2  H    0.146875
     3  H    0.150794
     4  H    0.158713
     5  C   -0.014310
     6  H    0.122113
     7  H    0.146754
     8  O   -0.470817
     9  C   -0.029154
    10  H    0.127433
    11  H    0.124951
    12  C   -0.039523
    13  H    0.155061
    14  H    0.137442
    15  O   -0.478256
    16  C   -0.041475
    17  H    0.125653
    18  H    0.138055
    19  C   -0.042652
    20  H    0.152364
    21  H    0.149168
    22  O   -0.465247
    23  C   -0.019673
    24  H    0.146842
    25  H    0.152654
    26  C   -0.455980
    27  H    0.169325
    28  H    0.195615
    29  S    0.086334
    30  C   -0.420091
    31  H    0.179735
    32  H    0.180059
    33  C   -0.427582
    34  H    0.176252
    35  H    0.219933
    36  S    0.077076
    37  C   -0.415595
    38  H    0.177948
    39  H    0.183883
    40  C   -0.415589
    41  H    0.186153
    42  H    0.181167
    43  S    0.084825
    44  C   -0.412055
    45  H    0.177290
    46  H    0.168994
    47  C   -0.437583
    48  H    0.164522
    49  H    0.149356
    50  H    0.155126
 Sum of Mulliken charges =  -0.00000
 Dipole moment (field-independent basis, Debye):
    X=              2.3186    Y=             -0.5682    Z=             -0.4612  Tot=              2.4313
 Quadrupole moment (field-independent basis, Debye-Ang):
   XX=           -119.4445   YY=           -145.1728   ZZ=           -156.1111
   XY=             -5.1869   XZ=             13.0994   YZ=             -3.2832
 Traceless Quadrupole moment (field-independent basis, Debye-Ang):
   XX=             20.7983   YY=             -4.9300   ZZ=            -15.8683
   XY=             -5.1869   XZ=             13.0994   YZ=             -3.2832
 Octapole moment (field-independent basis, Debye-Ang**2):
  XXX=             54.7889  YYY=             -2.7815  ZZZ=            -10.9641  XYY=             30.6394
  XXY=            -22.8691  XXZ=              6.5887  XZZ=             54.9533  YZZ=             -1.8109
  YYZ=             -9.7123  XYZ=             -4.6017
 Hexadecapole moment (field-independent basis, Debye-Ang**3):
 XXXX=         -22110.9581 YYYY=          -1049.9369 ZZZZ=          -1006.9682 XXXY=           -182.1644
 XXXZ=            977.9146 YYYX=              2.5696 YYYZ=            -12.5028 ZZZX=             -0.7276
 ZZZY=             -3.8087 XXYY=          -4364.0917 XXZZ=          -4484.5663 YYZZ=           -355.9949
 XXYZ=             29.2534 YYXZ=             -6.4801 ZZXY=             -8.6370
 Step number   1 out of a maximum of   55
     Eigenvalues ---    0.00230   0.00230   0.00230   0.00230   0.00230
     Eigenvalues ---    0.00230   0.00422   0.00426   0.00438   0.00459
     Eigenvalues ---    0.00475   0.00482   0.00548   0.01493   0.01498
     Eigenvalues ---    0.01519   0.01523   0.01524   0.01603   0.04155
     Eigenvalues ---    0.04361   0.04478   0.04480   0.04486   0.04506
     Eigenvalues ---    0.04557   0.04681   0.04767   0.04968   0.05284
     Eigenvalues ---    0.05501   0.05531   0.05538   0.05617   0.05625
     Eigenvalues ---    0.05654   0.05662   0.05664   0.05680   0.05721
     Eigenvalues ---    0.05746   0.05801   0.05886   0.05968   0.06006
     Eigenvalues ---    0.06029   0.06097   0.11009   0.11231   0.11546
     Eigenvalues ---    0.11564   0.11584   0.11587   0.11599   0.11757
     Eigenvalues ---    0.11878   0.11899   0.11912   0.12056   0.13573
     Eigenvalues ---    0.13751   0.13906   0.13938   0.13951   0.13953
     Eigenvalues ---    0.13957   0.14041   0.14063   0.14149   0.14185
     Eigenvalues ---    0.14224   0.16000   0.16000   0.16000   0.16000
     Eigenvalues ---    0.16000   0.16000   0.21940   0.21993   0.21995
     Eigenvalues ---    0.22004   0.22007   0.22011   0.22011   0.22050
     Eigenvalues ---    0.22053   0.22090   0.22092   0.22105   0.24130
     Eigenvalues ---    0.24234   0.24260   0.24318   0.24335   0.24374
     Eigenvalues ---    0.25000   0.25000   0.25000   0.25000   0.25000
     Eigenvalues ---    0.25000   0.29798   0.29825   0.29913   0.30057
     Eigenvalues ---    0.30177   0.30223   0.30709   0.33576   0.33644
     Eigenvalues ---    0.33664   0.33708   0.33725   0.33843   0.33993
     Eigenvalues ---    0.34093   0.34158   0.34236   0.34250   0.34325
     Eigenvalues ---    0.34337   0.34355   0.34364   0.34382   0.34389
     Eigenvalues ---    0.34394   0.34396   0.34398   0.34408   0.34413
     Eigenvalues ---    0.34418   0.34442   0.34445   0.34454   0.34457
     Eigenvalues ---    0.34546   0.34624   0.34635   0.43217   0.43273
     Eigenvalues ---    0.43528   0.43569   0.43580   0.44527
 Maximum Force            0.006740     0.000015     NO 
 RMS     Force            0.001825     0.000010     NO 
 Maximum Displacement     0.819648     0.000060     NO 
 RMS     Displacement     0.238871     0.000040     NO 
                          Input orientation:                          
 ---------------------------------------------------------------------
 Center     Atomic      Atomic             Coordinates (Angstroms)
 Number     Number       Type             X           Y           Z
 ---------------------------------------------------------------------
      1          6           0       -9.320089   -1.432640   -1.104514
      2          1           0      -10.206798   -1.455832   -1.748927
      3          1           0       -8.500172   -1.906455   -1.655149
      4          1           0       -9.527432   -2.034103   -0.212873
      5          6           0       -8.991213    0.007003   -0.710366
      6          1           0       -8.767136    0.608415   -1.607480
      7          1           0       -9.856134    0.463656   -0.217070
      8          8           0       -7.927579    0.121115    0.225920
      9          6           0       -6.634333   -0.109045   -0.296268
     10          1           0       -6.464170    0.483673   -1.210555
     11          1           0       -6.484606   -1.167965   -0.560117
     12          6           0       -5.632529    0.317295    0.778841
     13          1           0       -5.756030    1.386703    0.977486
     14          1           0       -5.842532   -0.222333    1.714262
     15          8           0       -4.287144    0.124386    0.366285
     16          6           0       -3.760976   -1.173918    0.610462
     17          1           0       -4.340890   -1.938729    0.068137
     18          1           0       -3.814383   -1.415104    1.684357
     19          6           0       -2.312611   -1.246700    0.138880
     20          1           0       -2.235618   -0.845104   -0.880440
     21          1           0       -2.025376   -2.302819    0.096482
     22          8           0       -1.354640   -0.657702    1.007051
     23          6           0       -1.343358    0.754612    1.158028
     24          1           0       -0.519066    0.946699    1.853087
     25          1           0       -2.266988    1.101075    1.641582
     26          6           0       -1.155079    1.591162   -0.114320
     27          1           0       -1.061274    2.641091    0.190065
     28          1           0       -2.050838    1.524830   -0.738577
     29         16           0        0.231889    1.162143   -1.241006
     30          6           0        1.716667    1.325695   -0.164654
     31          1           0        2.480453    1.801219   -0.787873
     32          1           0        1.497400    2.023942    0.649645
     33          6           0        2.228094   -0.013264    0.380369
     34          1           0        2.501069   -0.679039   -0.444978
     35          1           0        1.440340   -0.525661    0.938043
     36         16           0        3.636362    0.149946    1.549591
     37          6           0        5.045461    0.530357    0.431202
     38          1           0        5.822533    0.923308    1.094633
     39          1           0        4.780572    1.339998   -0.255708
     40          6           0        5.565733   -0.684232   -0.343538
     41          1           0        5.830284   -1.494205    0.342987
     42          1           0        4.788820   -1.076357   -1.007562
     43         16           0        6.975127   -0.308658   -1.460034
     44          6           0        8.376335   -0.130970   -0.283658
     45          1           0        9.173782    0.315238   -0.887892
     46          1           0        8.120011    0.608149    0.483646
     47          6           0        8.859774   -1.436504    0.349148
     48          1           0        9.158555   -2.156688   -0.419014
     49          1           0        9.722995   -1.247226    0.999655
     50          1           0        8.082739   -1.903458    0.963730
 ---------------------------------------------------------------------
 Stoichiometry    C14H30O3S3
 Framework group  C1[X(C14H30O3S3)]
                         Standard orientation:                         
 ---------------------------------------------------------------------
 Center     Atomic      Atomic             Coordinates (Angstroms)
 Number     Number       Type             X           Y           Z
 ---------------------------------------------------------------------
      1          6           0        9.347708    0.208960    1.763741
      2          1           0       10.234937    0.746625    2.118421
      3          1           0        8.529134    0.430516    2.457148
      4          1           0        9.555575   -0.865473    1.810193
      5          6           0        9.015703    0.625066    0.331011
      6          1           0        8.791105    1.704131    0.287497
      7          1           0        9.879357    0.443448   -0.317895
      8          8           0        7.951153   -0.114012   -0.253341
      9          6           0        6.658751    0.210422    0.218438
     10          1           0        6.488097    1.299608    0.191199
     11          1           0        6.511306   -0.118020    1.259463
     12          6           0        5.655313   -0.483837   -0.704791
     13          1           0        5.776559   -0.094331   -1.720631
     14          1           0        5.865686   -1.563283   -0.733943
     15          8           0        4.310616   -0.233430   -0.321953
     16          6           0        3.786827   -1.120259    0.658479
     17          1           0        4.368648   -1.057292    1.592755
     18          1           0        3.839914   -2.161880    0.302839
     19          6           0        2.338958   -0.756794    0.969954
     20          1           0        2.261929    0.322110    1.160359
     21          1           0        2.053836   -1.272639    1.893155
     22          8           0        1.379185   -1.189602    0.016087
     23          6           0        1.365008   -0.580322   -1.266929
     24          1           0        0.539825   -1.072887   -1.792204
     25          1           0        2.287596   -0.811190   -1.816916
     26          6           0        1.176023    0.941557   -1.314917
     27          1           0        1.079924    1.230642   -2.368954
     28          1           0        2.072373    1.439498   -0.934006
     29         16           0       -0.209262    1.677440   -0.357514
     30          6           0       -1.695156    0.844607   -1.056340
     31          1           0       -2.459416    1.624151   -1.134531
     32          1           0       -1.477869    0.515289   -2.077636
     33          6           0       -2.204347   -0.319963   -0.198483
     34          1           0       -2.475398    0.035721    0.801011
     35          1           0       -1.415998   -1.062881   -0.054653
     36         16           0       -3.613799   -1.232125   -0.945706
     37          6           0       -5.022817   -0.080356   -0.682716
     38          1           0       -5.801152   -0.440974   -1.362820
     39          1           0       -4.759015    0.928494   -1.014621
     40          6           0       -5.540120   -0.054702    0.758765
     41          1           0       -5.803583   -1.063397    1.091154
     42          1           0       -4.761944    0.306853    1.438475
     43         16           0       -6.949424    1.092926    1.024891
     44          6           0       -8.351850    0.182233    0.261572
     45          1           0       -9.149728    0.930256    0.198524
     46          1           0       -8.097551   -0.085645   -0.770091
     47          6           0       -8.833184   -1.039705    1.045001
     48          1           0       -9.129977   -0.761218    2.061056
     49          1           0       -9.697258   -1.495768    0.545482
     50          1           0       -8.055686   -1.807400    1.120371
 ---------------------------------------------------------------------
 Standard basis: 6-31G(d) (6D, 7F)
   372 basis functions,   752 primitive gaussians,   372 cartesian basis functions
    93 alpha electrons       93 beta electrons
 Requested convergence on RMS density matrix=1.00D-08 within  64 cycles.
 Requested convergence on MAX density matrix=1.00D-06.
 Requested convergence on             energy=1.00D-06.
 SCF Done:  E(RB3LYP) =  -1971.75318467     A.U. after   11 cycles
            NFock= 11  Conv=0.48D-08     -V/T= 2.0058
 Step number   2 out of a maximum of   55
     Eigenvalues ---    0.00228   0.00230   0.00230   0.00230   0.00230
     Eigenvalues ---    0.00314   0.00426   0.00438   0.00449   0.00459
     Eigenvalues ---    0.00475   0.00482   0.00554   0.01493   0.01497
     Eigenvalues ---    0.01519   0.01523   0.01585   0.01603   0.04038
     Eigenvalues ---    0.04313   0.04403   0.04436   0.04441   0.04448
     Eigenvalues ---    0.04504   0.04685   0.04725   0.04918   0.05226
     Eigenvalues ---    0.05460   0.05512   0.05525   0.05626   0.05635
     Eigenvalues ---    0.05647   0.05660   0.05665   0.05667   0.05714
     Eigenvalues ---    0.05761   0.05821   0.05932   0.05980   0.06033
     Eigenvalues ---    0.06061   0.06152   0.11038   0.11274   0.11589
     Eigenvalues ---    0.11613   0.11616   0.11627   0.11636   0.11792
     Eigenvalues ---    0.11924   0.11978   0.12006   0.12147   0.13601
     Eigenvalues ---    0.13786   0.13948   0.13966   0.13973   0.13979
     Eigenvalues ---    0.13983   0.14071   0.14098   0.14204   0.14232
     Eigenvalues ---    0.14285   0.15995   0.16000   0.16000   0.16000
     Eigenvalues ---    0.16000   0.16010   0.19343   0.21940   0.21997
     Eigenvalues ---    0.22007   0.22009   0.22010   0.22024   0.22043
     Eigenvalues ---    0.22052   0.22088   0.22102   0.22125   0.23057
     Eigenvalues ---    0.24158   0.24245   0.24289   0.24343   0.24367
     Eigenvalues ---    0.24985   0.25000   0.25000   0.25000   0.25000
     Eigenvalues ---    0.28591   0.29811   0.29872   0.30001   0.30109
     Eigenvalues ---    0.30206   0.30528   0.33451   0.33597   0.33650
     Eigenvalues ---    0.33694   0.33718   0.33829   0.33911   0.34054
     Eigenvalues ---    0.34099   0.34188   0.34239   0.34284   0.34311
     Eigenvalues ---    0.34340   0.34347   0.34367   0.34375   0.34384
     Eigenvalues ---    0.34391   0.34395   0.34399   0.34409   0.34415
     Eigenvalues ---    0.34418   0.34435   0.34444   0.34453   0.34534
     Eigenvalues ---    0.34535   0.34618   0.35673   0.42607   0.43258
     Eigenvalues ---    0.43465   0.43575   0.44346   0.44989
 Maximum Force            0.008489     0.000015     NO 
 RMS     Force            0.001170     0.000010     NO 
 Maximum Displacement     1.566264     0.000060     NO 
 RMS     Displacement     0.507415     0.000040     NO 
                          Input orientation:                          
 ---------------------------------------------------------------------
 Center     Atomic      Atomic             Coordinates (Angstroms)
 Number     Number       Type             X           Y           Z
 ---------------------------------------------------------------------
      1          6           0       -8.843962   -1.928485   -1.138022
      2          1           0       -9.730624   -2.032351   -1.775667
      3          1           0       -7.975277   -2.247015   -1.726116
      4          1           0       -8.951102   -2.610343   -0.286332
      5          6           0       -8.711073   -0.482446   -0.650374
      6          1           0       -8.589968    0.201925   -1.508820
      7          1           0       -9.622672   -0.184004   -0.119039
      8          8           0       -7.655318   -0.278267    0.284783
      9          6           0       -6.348452   -0.286871   -0.263651
     10          1           0       -6.279876    0.383190   -1.137974
     11          1           0       -6.054807   -1.294902   -0.600365
     12          6           0       -5.395920    0.207445    0.832502
     13          1           0       -5.665313    1.233820    1.104395
     14          1           0       -5.510279   -0.417378    1.731697
     15          8           0       -4.041036    0.237803    0.395259
     16          6           0       -3.329172   -0.988522    0.544925
     17          1           0       -3.798852   -1.793590   -0.045916
     18          1           0       -3.328683   -1.306466    1.601142
     19          6           0       -1.890961   -0.814921    0.060356
     20          1           0       -1.893845   -0.350607   -0.936417
     21          1           0       -1.445081   -1.811113   -0.042618
     22          8           0       -1.023060   -0.127206    0.954450
     23          6           0       -1.245964    1.260109    1.180058
     24          1           0       -0.447491    1.550131    1.872282
     25          1           0       -2.204645    1.426100    1.693041
     26          6           0       -1.226391    2.178327   -0.052752
     27          1           0       -1.260526    3.215720    0.304805
     28          1           0       -2.126308    2.023049   -0.656426
     29         16           0        0.162936    1.990975   -1.248924
     30          6           0        1.639490    1.859981   -0.144709
     31          1           0        2.484062    2.240034   -0.730201
     32          1           0        1.512643    2.537955    0.706417
     33          6           0        1.910448    0.425977    0.335084
     34          1           0        2.086431   -0.236137   -0.519571
     35          1           0        1.036922    0.027175    0.859621
     36         16           0        3.305911    0.290953    1.535701
     37          6           0        4.791054    0.495125    0.456987
     38          1           0        5.607651    0.700162    1.157751
     39          1           0        4.685223    1.384124   -0.173312
     40          6           0        5.110923   -0.738742   -0.397855
     41          1           0        5.216508   -1.628592    0.232715
     42          1           0        4.294800   -0.943309   -1.098948
     43         16           0        6.596529   -0.539720   -1.473582
     44          6           0        7.985948   -0.653489   -0.263439
     45          1           0        8.862531   -0.337418   -0.840802
     46          1           0        7.846729    0.096475    0.524917
     47          6           0        8.216010   -2.045622    0.333256
     48          1           0        8.400584   -2.784336   -0.453590
     49          1           0        9.085178   -2.032007    1.005137
     50          1           0        7.354148   -2.385696    0.919143
 ---------------------------------------------------------------------
 Stoichiometry    C14H30O3S3
 Framework group  C1[X(C14H30O3S3)]
                         Standard orientation:                         
 ---------------------------------------------------------------------
 Center     Atomic      Atomic             Coordinates (Angstroms)
 Number     Number       Type             X           Y           Z
 ---------------------------------------------------------------------
      1          6           0        8.837095   -2.083359    0.948549
      2          1           0        9.723115   -2.249042    1.573902
      3          1           0        7.967876   -2.458088    1.501692
      4          1           0        8.945301   -2.678507    0.034288
      5          6           0        8.704345   -0.596532    0.604730
      6          1           0        8.582166    0.000453    1.525946
      7          1           0        9.616423   -0.247347    0.106151
      8          8           0        7.649517   -0.301906   -0.307060
      9          6           0        6.342080   -0.364383    0.236501
     10          1           0        6.272417    0.216814    1.172172
     11          1           0        6.048341   -1.400590    0.472556
     12          6           0        5.390568    0.234769   -0.806984
     13          1           0        5.659983    1.282879   -0.976759
     14          1           0        5.506029   -0.298965   -1.762929
     15          8           0        4.035220    0.221950   -0.370315
     16          6           0        3.323828   -0.983930   -0.640127
     17          1           0        3.793096   -1.842923   -0.130474
     18          1           0        3.324525   -1.196899   -1.722405
     19          6           0        1.885066   -0.858843   -0.142419
     20          1           0        1.886787   -0.494384    0.895039
     21          1           0        1.439334   -1.860399   -0.137983
     22          8           0        1.017924   -0.086999   -0.965784
     23          6           0        1.240708    1.315777   -1.054197
     24          1           0        0.442885    1.672079   -1.715539
     25          1           0        2.199883    1.531358   -1.547434
     26          6           0        1.219610    2.108835    0.262595
     27          1           0        1.253853    3.176266    0.008396
     28          1           0        2.118934    1.895318    0.849118
     29         16           0       -0.170920    1.805018    1.433185
     30          6           0       -1.646284    1.782576    0.319875
     31          1           0       -2.491565    2.103329    0.938873
     32          1           0       -1.518720    2.540669   -0.460623
     33          6           0       -1.916372    0.402416   -0.298347
     34          1           0       -2.093079   -0.340247    0.487164
     35          1           0       -1.042195    0.057038   -0.858488
     36         16           0       -3.310543    0.385416   -1.507903
     37          6           0       -4.796867    0.482730   -0.415963
     38          1           0       -5.612783    0.755289   -1.094148
     39          1           0       -4.691923    1.305739    0.298487
     40          6           0       -5.117313   -0.828977    0.313582
     41          1           0       -5.222009   -1.652807   -0.401220
     42          1           0       -4.301872   -1.101101    0.992140
     43         16           0       -6.604095   -0.736496    1.402045
     44          6           0       -7.992217   -0.731409    0.185097
     45          1           0       -8.869485   -0.473538    0.789705
     46          1           0       -7.852367    0.092183   -0.525869
     47          6           0       -8.221298   -2.058443   -0.545320
     48          1           0       -8.406506   -2.870698    0.165196
     49          1           0       -9.089766   -1.979223   -1.213564
     50          1           0       -7.358736   -2.339369   -1.160778
 ---------------------------------------------------------------------
 Standard basis: 6-31G(d) (6D, 7F)
   372 basis functions,   752 primitive gaussians,   372 cartesian basis functions
    93 alpha electrons       93 beta electrons
 Requested convergence on RMS density matrix=1.00D-08 within  64 cycles.
 Requested convergence on MAX density matrix=1.00D-06.
 Requested convergence on             energy=1.00D-06.
 SCF Done:  E(RB3LYP) =  -1971.75199118     A.U. after   12 cycles
            NFock= 12  Conv=0.41D-08     -V/T= 2.0059
 Step number   3 out of a maximum of   55
     Eigenvalues ---    0.00227   0.00230   0.00230   0.00230   0.00230
     Eigenvalues ---    0.00398   0.00425   0.00438   0.00459   0.00475
     Eigenvalues ---    0.00481   0.00541   0.01308   0.01493   0.01497
     Eigenvalues ---    0.01517   0.01522   0.01527   0.01603   0.04065
     Eigenvalues ---    0.04307   0.04432   0.04440   0.04448   0.04460
     Eigenvalues ---    0.04550   0.04692   0.04914   0.05019   0.05238
     Eigenvalues ---    0.05458   0.05507   0.05522   0.05583   0.05623
     Eigenvalues ---    0.05634   0.05649   0.05652   0.05657   0.05719
     Eigenvalues ---    0.05807   0.05845   0.05899   0.05965   0.06031
     Eigenvalues ---    0.06034   0.06120   0.11039   0.11231   0.11580
     Eigenvalues ---    0.11600   0.11632   0.11635   0.11644   0.11801
     Eigenvalues ---    0.11937   0.11964   0.11987   0.12128   0.13601
     Eigenvalues ---    0.13766   0.13939   0.13963   0.13973   0.13981
     Eigenvalues ---    0.13999   0.14073   0.14105   0.14205   0.14256
     Eigenvalues ---    0.14343   0.15989   0.16000   0.16000   0.16000
     Eigenvalues ---    0.16000   0.16000   0.19735   0.21937   0.21996
     Eigenvalues ---    0.22006   0.22009   0.22012   0.22025   0.22044
     Eigenvalues ---    0.22047   0.22063   0.22107   0.22178   0.23273
     Eigenvalues ---    0.24168   0.24245   0.24289   0.24349   0.24387
     Eigenvalues ---    0.24876   0.24993   0.25000   0.25000   0.25000
     Eigenvalues ---    0.29479   0.29811   0.29864   0.30002   0.30110
     Eigenvalues ---    0.30207   0.30680   0.33501   0.33595   0.33652
     Eigenvalues ---    0.33695   0.33719   0.33829   0.33921   0.34060
     Eigenvalues ---    0.34149   0.34200   0.34239   0.34286   0.34330
     Eigenvalues ---    0.34344   0.34355   0.34369   0.34383   0.34390
     Eigenvalues ---    0.34395   0.34397   0.34404   0.34412   0.34417
     Eigenvalues ---    0.34429   0.34443   0.34451   0.34455   0.34463
     Eigenvalues ---    0.34539   0.34623   0.41515   0.42596   0.43249
     Eigenvalues ---    0.43446   0.43574   0.43827   0.44481
 Maximum Force            0.021685     0.000015     NO 
 RMS     Force            0.002464     0.000010     NO 
 Maximum Displacement     1.234959     0.000060     NO 
 RMS     Displacement     0.357343     0.000040     NO 
                          Input orientation:                          
 ---------------------------------------------------------------------
 Center     Atomic      Atomic             Coordinates (Angstroms)
 Number     Number       Type             X           Y           Z
 ---------------------------------------------------------------------
      1          6           0       -9.036747   -1.497895   -1.176344
      2          1           0       -9.901299   -1.527285   -1.849920
      3          1           0       -8.188963   -1.947971   -1.704727
      4          1           0       -9.261873   -2.113952   -0.298993
      5          6           0       -8.750459   -0.056822   -0.755849
      6          1           0       -8.510824    0.559778   -1.638460
      7          1           0       -9.635873    0.377243   -0.278912
      8          8           0       -7.715045    0.061894    0.211194
      9          6           0       -6.408486   -0.140405   -0.290954
     10          1           0       -6.229368    0.471212   -1.190715
     11          1           0       -6.237702   -1.192997   -0.567725
     12          6           0       -5.440644    0.284112    0.814939
     13          1           0       -5.582843    1.347985    1.029464
     14          1           0       -5.659510   -0.278086    1.734734
     15          8           0       -4.085198    0.119383    0.422720
     16          6           0       -3.555685   -1.181514    0.649597
     17          1           0       -4.107596   -1.943169    0.074638
     18          1           0       -3.629135   -1.444687    1.717055
     19          6           0       -2.098372   -1.210734    0.211566
     20          1           0       -2.018293   -0.812704   -0.809334
     21          1           0       -1.759269   -2.252208    0.192849
     22          8           0       -1.204081   -0.548149    1.092005
     23          6           0       -1.338606    0.859747    1.206380
     24          1           0       -0.543053    1.164688    1.894516
     25          1           0       -2.301741    1.111834    1.671927
     26          6           0       -1.258075    1.659867   -0.098337
     27          1           0       -1.300856    2.724609    0.161721
     28          1           0       -2.138236    1.449756   -0.714330
     29         16           0        0.163732    1.378865   -1.236221
     30          6           0        1.647859    1.470717   -0.141161
     31          1           0        2.444755    1.864559   -0.780027
     32          1           0        1.473374    2.214492    0.643010
     33          6           0        2.068585    0.122442    0.452347
     34          1           0        2.286014   -0.593929   -0.346422
     35          1           0        1.263807   -0.310921    1.049647
     36         16           0        3.510767    0.243744    1.590628
     37          6           0        4.907747    0.535079    0.425364
     38          1           0        5.734067    0.856200    1.067765
     39          1           0        4.676944    1.371709   -0.241062
     40          6           0        5.298836   -0.705768   -0.380557
     41          1           0        5.529781   -1.542635    0.285783
     42          1           0        4.472710   -1.026726   -1.023106
     43         16           0        6.695447   -0.419433   -1.544375
     44          6           0        8.127065   -0.262899   -0.396965
     45          1           0        8.948334    0.058885   -1.046613
     46          1           0        7.941519    0.557807    0.304983
     47          6           0        8.500333   -1.547664    0.342314
     48          1           0        8.726413   -2.353663   -0.362778
     49          1           0        9.384450   -1.378495    0.970304
     50          1           0        7.691292   -1.888895    0.997439
 ---------------------------------------------------------------------
 Stoichiometry    C14H30O3S3
 Framework group  C1[X(C14H30O3S3)]
                         Standard orientation:                         
 ---------------------------------------------------------------------
 Center     Atomic      Atomic             Coordinates (Angstroms)
 Number     Number       Type             X           Y           Z
 ---------------------------------------------------------------------
      1          6           0        9.043294   -1.837791    0.528118
      2          1           0        9.907206   -2.122416    1.140216
      3          1           0        8.195002   -2.455169    0.843931
      4          1           0        9.269244   -2.072354   -0.517770
      5          6           0        8.757429   -0.345224    0.689339
      6          1           0        8.516966   -0.112161    1.740282
      7          1           0        9.643303    0.237702    0.414995
      8          8           0        7.722936    0.134055   -0.160050
      9          6           0        6.415898   -0.244123    0.225704
     10          1           0        6.235935   -0.022235    1.290649
     11          1           0        6.244834   -1.322591    0.079544
     12          6           0        5.449113    0.570778   -0.635224
     13          1           0        5.591532    1.635921   -0.427251
     14          1           0        5.668843    0.402200   -1.699786
     15          8           0        4.093292    0.269308   -0.336774
     16          6           0        3.563974   -0.846260   -1.043542
     17          1           0        4.115327   -1.769930   -0.802402
     18          1           0        3.638434   -0.682035   -2.130560
     19          6           0        2.106245   -1.039934   -0.651109
     20          1           0        2.025203   -1.061739    0.444352
     21          1           0        1.767109   -2.009552   -1.031681
     22          8           0        1.212802   -0.091087   -1.212711
     23          6           0        1.347457    1.253797   -0.780851
     24          1           0        0.552563    1.798635   -1.301156
     25          1           0        2.311038    1.664149   -1.114068
     26          6           0        1.265701    1.495284    0.730428
     27          1           0        1.308745    2.578651    0.896561
     28          1           0        2.145273    1.065602    1.220329
     29         16           0       -0.157192    0.801719    1.673627
     30          6           0       -1.640277    1.305207    0.695269
     31          1           0       -2.437772    1.425640    1.435404
     32          1           0       -1.465034    2.291941    0.254569
     33          6           0       -2.060460    0.285766   -0.368354
     34          1           0       -2.278658   -0.681196    0.096262
     35          1           0       -1.255122    0.112935   -1.085152
     36         16           0       -3.501558    0.832958   -1.375381
     37          6           0       -4.899639    0.657924   -0.188367
     38          1           0       -5.725344    1.200271   -0.660252
     39          1           0       -4.669456    1.176704    0.747168
     40          6           0       -5.291514   -0.796459    0.082492
     41          1           0       -5.521839   -1.315490   -0.853056
     42          1           0       -4.466003   -1.338711    0.554575
     43         16           0       -6.689225   -0.975563    1.266260
     44          6           0       -8.119749   -0.392326    0.264254
     45          1           0       -8.941631   -0.342601    0.986827
     46          1           0       -7.933524    0.634120   -0.071072
     47          6           0       -8.492336   -1.297438   -0.909814
     48          1           0       -8.719098   -2.311475   -0.566003
     49          1           0       -9.375853   -0.901015   -1.426436
     50          1           0       -7.682679   -1.363042   -1.644883
 ---------------------------------------------------------------------
 Standard basis: 6-31G(d) (6D, 7F)
   372 basis functions,   752 primitive gaussians,   372 cartesian basis functions
    93 alpha electrons       93 beta electrons
 Requested convergence on RMS density matrix=1.00D-08 within  64 cycles.
 Requested convergence on MAX density matrix=1.00D-06.
 Requested convergence on             energy=1.00D-06.
 SCF Done:  E(RB3LYP) =  -1971.75333088     A.U. after   11 cycles
            NFock= 11  Conv=0.55D-08     -V/T= 2.0058
 Step number   4 out of a maximum of   55
     Eigenvalues ---    0.00222   0.00230   0.00230   0.00230   0.00241
     Eigenvalues ---    0.00392   0.00424   0.00438   0.00459   0.00475
     Eigenvalues ---    0.00481   0.00587   0.00895   0.01493   0.01497
     Eigenvalues ---    0.01520   0.01531   0.01597   0.01603   0.03950
     Eigenvalues ---    0.04352   0.04479   0.04492   0.04498   0.04520
     Eigenvalues ---    0.04742   0.04846   0.04966   0.05186   0.05359
     Eigenvalues ---    0.05501   0.05519   0.05534   0.05564   0.05606
     Eigenvalues ---    0.05632   0.05638   0.05668   0.05679   0.05734
     Eigenvalues ---    0.05802   0.05835   0.05929   0.05957   0.06028
     Eigenvalues ---    0.06090   0.06272   0.11009   0.11226   0.11447
     Eigenvalues ---    0.11594   0.11597   0.11612   0.11670   0.11773
     Eigenvalues ---    0.11903   0.11908   0.12030   0.12105   0.13572
     Eigenvalues ---    0.13709   0.13846   0.13943   0.13947   0.13954
     Eigenvalues ---    0.14028   0.14048   0.14077   0.14146   0.14169
     Eigenvalues ---    0.14353   0.15978   0.16000   0.16000   0.16000
     Eigenvalues ---    0.16001   0.16003   0.20539   0.21949   0.22006
     Eigenvalues ---    0.22011   0.22022   0.22030   0.22036   0.22049
     Eigenvalues ---    0.22063   0.22093   0.22685   0.23065   0.23209
     Eigenvalues ---    0.24190   0.24245   0.24289   0.24350   0.24393
     Eigenvalues ---    0.24996   0.25000   0.25000   0.25455   0.29805
     Eigenvalues ---    0.29819   0.29972   0.30095   0.30165   0.30205
     Eigenvalues ---    0.30755   0.32990   0.33591   0.33649   0.33686
     Eigenvalues ---    0.33720   0.33784   0.33893   0.34010   0.34106
     Eigenvalues ---    0.34172   0.34239   0.34258   0.34329   0.34340
     Eigenvalues ---    0.34354   0.34367   0.34382   0.34390   0.34395
     Eigenvalues ---    0.34397   0.34400   0.34412   0.34415   0.34425
     Eigenvalues ---    0.34439   0.34443   0.34452   0.34530   0.34597
     Eigenvalues ---    0.34771   0.34958   0.41540   0.43152   0.43294
     Eigenvalues ---    0.43488   0.43588   0.44439   0.58057
 Maximum Force            0.010947     0.000015     NO 
 RMS     Force            0.001231     0.000010     NO 
 Maximum Displacement     0.261396     0.000060     NO 
 RMS     Displacement     0.076914     0.000040     NO 
                          Input orientation:                          
 ---------------------------------------------------------------------
 Center     Atomic      Atomic             Coordinates (Angstroms)
 Number     Number       Type             X           Y           Z
 ---------------------------------------------------------------------
      1          6           0       -9.115071   -1.529774   -1.130639
      2          1           0       -9.989690   -1.568307   -1.790604
      3          1           0       -8.271107   -1.970231   -1.672857
      4          1           0       -9.319600   -2.149128   -0.250645
      5          6           0       -8.837436   -0.086305   -0.712764
      6          1           0       -8.618933    0.533947   -1.598212
      7          1           0       -9.720307    0.337211   -0.221905
      8          8           0       -7.788307    0.043432    0.238079
      9          6           0       -6.486515   -0.142222   -0.282488
     10          1           0       -6.327947    0.472469   -1.183969
     11          1           0       -6.306897   -1.192151   -0.563261
     12          6           0       -5.507068    0.292495    0.809062
     13          1           0       -5.659957    1.354135    1.027125
     14          1           0       -5.705469   -0.273126    1.731324
     15          8           0       -4.155054    0.145315    0.397818
     16          6           0       -3.603423   -1.147766    0.616292
     17          1           0       -4.158343   -1.913697    0.050026
     18          1           0       -3.657441   -1.413537    1.684184
     19          6           0       -2.152479   -1.166577    0.153083
     20          1           0       -2.087685   -0.754615   -0.863263
     21          1           0       -1.819769   -2.209283    0.110066
     22          8           0       -1.232503   -0.533212    1.029692
     23          6           0       -1.320790    0.876497    1.173859
     24          1           0       -0.500788    1.130965    1.853793
     25          1           0       -2.262623    1.162007    1.662400
     26          6           0       -1.215353    1.702736   -0.112083
     27          1           0       -1.189216    2.761323    0.174094
     28          1           0       -2.110036    1.561753   -0.726237
     29         16           0        0.178728    1.347687   -1.257451
     30          6           0        1.654761    1.454289   -0.158421
     31          1           0        2.441869    1.901041   -0.774086
     32          1           0        1.448400    2.156873    0.655374
     33          6           0        2.102352    0.095493    0.388412
     34          1           0        2.346156   -0.585355   -0.433316
     35          1           0        1.297382   -0.377674    0.956389
     36         16           0        3.522735    0.205353    1.554167
     37          6           0        4.939427    0.519494    0.419894
     38          1           0        5.742233    0.863435    1.079843
     39          1           0        4.707126    1.346575   -0.257735
     40          6           0        5.379092   -0.717227   -0.367066
     41          1           0        5.611813   -1.544214    0.310633
     42          1           0        4.576334   -1.061284   -1.026907
     43         16           0        6.795781   -0.407540   -1.499395
     44          6           0        8.205682   -0.256318   -0.325290
     45          1           0        9.026258    0.113504   -0.949661
     46          1           0        7.988176    0.530934    0.405093
     47          6           0        8.607191   -1.557724    0.368662
     48          1           0        8.864738   -2.328900   -0.364024
     49          1           0        9.478493   -1.388505    1.014137
     50          1           0        7.801079   -1.947291    0.999779
 ---------------------------------------------------------------------
 Stoichiometry    C14H30O3S3
 Framework group  C1[X(C14H30O3S3)]
                         Standard orientation:                         
 ---------------------------------------------------------------------
 Center     Atomic      Atomic             Coordinates (Angstroms)
 Number     Number       Type             X           Y           Z
 ---------------------------------------------------------------------
      1          6           0        9.125544   -1.652624    0.942241
      2          1           0        9.999807   -1.771307    1.593067
      3          1           0        8.281266   -2.155709    1.426368
      4          1           0        9.330512   -2.160278   -0.006493
      5          6           0        8.848207   -0.168991    0.703034
      6          1           0        8.629262    0.338893    1.657283
      7          1           0        9.731362    0.311024    0.267842
      8          8           0        7.799594    0.075646   -0.225497
      9          6           0        6.497513   -0.171842    0.267916
     10          1           0        6.338495    0.328562    1.237434
     11          1           0        6.317691   -1.248121    0.418704
     12          6           0        5.518674    0.392624   -0.763115
     13          1           0        5.671734    1.472896   -0.850247
     14          1           0        5.717539   -0.056550   -1.747264
     15          8           0        4.166432    0.196638   -0.373555
     16          6           0        3.614852   -1.060170   -0.748095
     17          1           0        4.169429   -1.889399   -0.278981
     18          1           0        3.669428   -1.193981   -1.840368
     19          6           0        2.163659   -1.135056   -0.291383
     20          1           0        2.098342   -0.849865    0.767518
     21          1           0        1.830872   -2.175206   -0.375784
     22          8           0        1.244185   -0.399589   -1.084859
     23          6           0        1.332621    1.017176   -1.056311
     24          1           0        0.512997    1.352613   -1.700644
     25          1           0        2.274731    1.359921   -1.505970
     26          6           0        1.226538    1.680752    0.320587
     27          1           0        1.200609    2.766305    0.165382
     28          1           0        2.120885    1.465955    0.913484
     29         16           0       -0.168174    1.189085    1.413488
     30          6           0       -1.643613    1.428845    0.334831
     31          1           0       -2.431028    1.797424    0.999885
     32          1           0       -1.436780    2.225240   -0.387282
     33          6           0       -2.090981    0.146769   -0.373570
     34          1           0       -2.335260   -0.629013    0.359042
     35          1           0       -1.285731   -0.253836   -0.994498
     36         16           0       -3.510733    0.397879   -1.518030
     37          6           0       -4.928017    0.571779   -0.354697
     38          1           0       -5.730451    0.993588   -0.968294
     39          1           0       -4.696036    1.310198    0.418691
     40          6           0       -5.368166   -0.751488    0.275639
     41          1           0       -5.600567   -1.489804   -0.497807
     42          1           0       -4.565780   -1.173399    0.889114
     43         16           0       -6.785446   -0.581772    1.436500
     44          6           0       -8.194710   -0.288592    0.288794
     45          1           0       -9.015601    0.002574    0.953106
     46          1           0       -7.976772    0.581687   -0.340215
     47          6           0       -8.595914   -1.495802   -0.558624
     48          1           0       -8.853893   -2.350400    0.074607
     49          1           0       -9.466862   -1.249170   -1.179158
     50          1           0       -7.789485   -1.805743   -1.232044
 ---------------------------------------------------------------------
 Standard basis: 6-31G(d) (6D, 7F)
   372 basis functions,   752 primitive gaussians,   372 cartesian basis functions
    93 alpha electrons       93 beta electrons
 Requested convergence on RMS density matrix=1.00D-08 within  64 cycles.
 Requested convergence on MAX density matrix=1.00D-06.
 Requested convergence on             energy=1.00D-06.
 SCF Done:  E(RB3LYP) =  -1971.75399686     A.U. after   10 cycles
            NFock= 10  Conv=0.72D-08     -V/T= 2.0058
 Step number   5 out of a maximum of   55
     Eigenvalues ---    0.00222   0.00230   0.00230   0.00233   0.00246
     Eigenvalues ---    0.00400   0.00424   0.00438   0.00459   0.00475
     Eigenvalues ---    0.00481   0.00591   0.01002   0.01493   0.01496
     Eigenvalues ---    0.01520   0.01530   0.01603   0.01620   0.04066
     Eigenvalues ---    0.04342   0.04477   0.04484   0.04492   0.04549
     Eigenvalues ---    0.04712   0.04736   0.04955   0.05136   0.05350
     Eigenvalues ---    0.05493   0.05515   0.05533   0.05551   0.05613
     Eigenvalues ---    0.05638   0.05643   0.05665   0.05686   0.05730
     Eigenvalues ---    0.05791   0.05810   0.05933   0.05962   0.06027
     Eigenvalues ---    0.06078   0.06244   0.11016   0.11262   0.11519
     Eigenvalues ---    0.11593   0.11603   0.11606   0.11618   0.11773
     Eigenvalues ---    0.11910   0.11957   0.12002   0.12090   0.13578
     Eigenvalues ---    0.13739   0.13943   0.13948   0.13952   0.13959
     Eigenvalues ---    0.14000   0.14054   0.14084   0.14198   0.14242
     Eigenvalues ---    0.14507   0.15978   0.16000   0.16000   0.16000
     Eigenvalues ---    0.16001   0.16001   0.20010   0.21909   0.21977
     Eigenvalues ---    0.22008   0.22012   0.22020   0.22034   0.22039
     Eigenvalues ---    0.22055   0.22071   0.22204   0.22768   0.23064
     Eigenvalues ---    0.24187   0.24245   0.24289   0.24350   0.24397
     Eigenvalues ---    0.24982   0.24997   0.25000   0.25036   0.27752
     Eigenvalues ---    0.29818   0.29919   0.29987   0.30094   0.30205
     Eigenvalues ---    0.30330   0.30716   0.33578   0.33644   0.33662
     Eigenvalues ---    0.33710   0.33727   0.33845   0.33950   0.34102
     Eigenvalues ---    0.34161   0.34233   0.34243   0.34327   0.34338
     Eigenvalues ---    0.34352   0.34365   0.34381   0.34387   0.34393
     Eigenvalues ---    0.34396   0.34397   0.34408   0.34411   0.34422
     Eigenvalues ---    0.34430   0.34442   0.34449   0.34462   0.34545
     Eigenvalues ---    0.34640   0.34654   0.38417   0.42904   0.43266
     Eigenvalues ---    0.43459   0.43579   0.44382   0.51935
 Maximum Force            0.002798     0.000015     NO 
 RMS     Force            0.000341     0.000010     NO 
 Maximum Displacement     0.193121     0.000060     NO 
 RMS     Displacement     0.051864     0.000040     NO 
                          Input orientation:                          
 ---------------------------------------------------------------------
 Center     Atomic      Atomic             Coordinates (Angstroms)
 Number     Number       Type             X           Y           Z
 ---------------------------------------------------------------------
      1          6           0       -9.104015   -1.542403   -1.132264
      2          1           0       -9.982717   -1.573070   -1.787129
      3          1           0       -8.261157   -1.966303   -1.688869
      4          1           0       -9.298713   -2.180670   -0.263806
      5          6           0       -8.831998   -0.106327   -0.686932
      6          1           0       -8.623811    0.533181   -1.560824
      7          1           0       -9.714104    0.301159   -0.181629
      8          8           0       -7.776744    0.010957    0.259191
      9          6           0       -6.476907   -0.153620   -0.273917
     10          1           0       -6.329584    0.481757   -1.162623
     11          1           0       -6.292061   -1.195634   -0.578636
     12          6           0       -5.492416    0.264355    0.819194
     13          1           0       -5.652193    1.319674    1.060939
     14          1           0       -5.679244   -0.322405    1.730358
     15          8           0       -4.141858    0.137064    0.395274
     16          6           0       -3.576489   -1.154905    0.584288
     17          1           0       -4.130419   -1.914668    0.009125
     18          1           0       -3.617992   -1.440421    1.647385
     19          6           0       -2.130626   -1.151703    0.106056
     20          1           0       -2.079418   -0.715290   -0.900411
     21          1           0       -1.790432   -2.190330    0.034188
     22          8           0       -1.206880   -0.532108    0.988585
     23          6           0       -1.304327    0.873330    1.170571
     24          1           0       -0.475325    1.114652    1.844124
     25          1           0       -2.239548    1.138821    1.682124
     26          6           0       -1.220281    1.736089   -0.092517
     27          1           0       -1.170758    2.785339    0.223098
     28          1           0       -2.129672    1.625913   -0.690805
     29         16           0        0.146487    1.385460   -1.270203
     30          6           0        1.637340    1.516135   -0.194730
     31          1           0        2.424464    1.938921   -0.826558
     32          1           0        1.441425    2.240953    0.601496
     33          6           0        2.067582    0.167996    0.388613
     34          1           0        2.299759   -0.539785   -0.413145
     35          1           0        1.255879   -0.275479    0.971400
     36         16           0        3.493917    0.291972    1.546592
     37          6           0        4.909716    0.549472    0.396501
     38          1           0        5.709336    0.937585    1.035161
     39          1           0        4.670643    1.333035   -0.328572
     40          6           0        5.357994   -0.728041   -0.315194
     41          1           0        5.598152   -1.511336    0.409653
     42          1           0        4.557523   -1.116541   -0.952481
     43         16           0        6.770860   -0.475132   -1.466946
     44          6           0        8.193222   -0.312376   -0.309112
     45          1           0        9.001315    0.069420   -0.942250
     46          1           0        7.975330    0.469137    0.426915
     47          6           0        8.618414   -1.611721    0.373609
     48          1           0        8.874791   -2.376733   -0.365790
     49          1           0        9.496155   -1.435502    1.008212
     50          1           0        7.825386   -2.012874    1.013694
 ---------------------------------------------------------------------
 Stoichiometry    C14H30O3S3
 Framework group  C1[X(C14H30O3S3)]
                         Standard orientation:                         
 ---------------------------------------------------------------------
 Center     Atomic      Atomic             Coordinates (Angstroms)
 Number     Number       Type             X           Y           Z
 ---------------------------------------------------------------------
      1          6           0        9.109415   -1.720552    0.842790
      2          1           0        9.988293   -1.865638    1.481875
      3          1           0        8.266455   -2.234682    1.317131
      4          1           0        9.303451   -2.197414   -0.123886
      5          6           0        8.838171   -0.228610    0.655268
      6          1           0        8.630647    0.248533    1.627517
      7          1           0        9.720382    0.260375    0.228556
      8          8           0        7.782709    0.052740   -0.255395
      9          6           0        6.482927   -0.201690    0.241293
     10          1           0        6.336270    0.268762    1.227382
     11          1           0        6.297515   -1.280807    0.359383
     12          6           0        5.498374    0.401363   -0.761602
     13          1           0        5.658743    1.482593   -0.815352
     14          1           0        5.684560   -0.017320   -1.761328
     15          8           0        4.147862    0.202746   -0.365890
     16          6           0        3.581622   -1.036021   -0.777449
     17          1           0        4.135245   -1.884887   -0.344069
     18          1           0        3.622627   -1.131469   -1.874092
     19          6           0        2.135905   -1.115583   -0.305427
     20          1           0        2.085272   -0.861660    0.761819
     21          1           0        1.795077   -2.150601   -0.415954
     22          8           0        1.212286   -0.350828   -1.065783
     23          6           0        1.310565    1.064735   -0.999509
     24          1           0        0.481514    1.420474   -1.620218
     25          1           0        2.245801    1.414970   -1.457199
     26          6           0        1.227440    1.693641    0.394899
     27          1           0        1.178484    2.781919    0.267439
     28          1           0        2.136939    1.480132    0.964376
     29         16           0       -0.139197    1.143462    1.493783
     30          6           0       -1.630289    1.460840    0.458274
     31          1           0       -2.416957    1.767205    1.154558
     32          1           0       -1.434155    2.313487   -0.199179
     33          6           0       -2.061555    0.235571   -0.351419
     34          1           0       -2.293939   -0.601247    0.314471
     35          1           0       -1.250305   -0.099747   -1.003040
     36         16           0       -3.488157    0.560728   -1.469362
     37          6           0       -4.903450    0.614176   -0.291401
     38          1           0       -5.703015    1.108337   -0.852124
     39          1           0       -4.663667    1.258900    0.559300
     40          6           0       -5.352321   -0.767759    0.186378
     41          1           0       -5.593190   -1.412259   -0.664054
     42          1           0       -4.551905   -1.262063    0.745680
     43         16           0       -6.764683   -0.719123    1.365170
     44          6           0       -8.187288   -0.355810    0.254143
     45          1           0       -8.994951   -0.090021    0.944565
     46          1           0       -7.969123    0.542132   -0.334142
     47          6           0       -8.613503   -1.515678   -0.644879
     48          1           0       -8.870142   -2.397940   -0.050377
     49          1           0       -9.491323   -1.230817   -1.238589
     50          1           0       -7.820919   -1.799305   -1.345516
 ---------------------------------------------------------------------
 Standard basis: 6-31G(d) (6D, 7F)
   372 basis functions,   752 primitive gaussians,   372 cartesian basis functions
    93 alpha electrons       93 beta electrons
 Requested convergence on RMS density matrix=1.00D-08 within  64 cycles.
 Requested convergence on MAX density matrix=1.00D-06.
 Requested convergence on             energy=1.00D-06.
 SCF Done:  E(RB3LYP) =  -1971.75401156     A.U. after   10 cycles
            NFock= 10  Conv=0.53D-08     -V/T= 2.0058
 Step number   6 out of a maximum of   55
     Eigenvalues ---    0.00179   0.00229   0.00230   0.00234   0.00344
     Eigenvalues ---    0.00411   0.00438   0.00458   0.00475   0.00480
     Eigenvalues ---    0.00573   0.00634   0.00938   0.01490   0.01495
     Eigenvalues ---    0.01523   0.01528   0.01602   0.01614   0.04104
     Eigenvalues ---    0.04291   0.04389   0.04487   0.04498   0.04574
     Eigenvalues ---    0.04733   0.04931   0.04980   0.05096   0.05185
     Eigenvalues ---    0.05488   0.05520   0.05535   0.05539   0.05614
     Eigenvalues ---    0.05637   0.05643   0.05665   0.05710   0.05729
     Eigenvalues ---    0.05767   0.05812   0.05957   0.05967   0.06024
     Eigenvalues ---    0.06074   0.06200   0.11022   0.11258   0.11414
     Eigenvalues ---    0.11546   0.11606   0.11613   0.11654   0.11772
     Eigenvalues ---    0.11912   0.11933   0.11960   0.12109   0.13582
     Eigenvalues ---    0.13715   0.13833   0.13944   0.13952   0.13955
     Eigenvalues ---    0.14045   0.14068   0.14087   0.14158   0.14201
     Eigenvalues ---    0.14721   0.15932   0.16000   0.16000   0.16000
     Eigenvalues ---    0.16001   0.16002   0.18249   0.21853   0.21959
     Eigenvalues ---    0.22011   0.22013   0.22032   0.22034   0.22053
     Eigenvalues ---    0.22062   0.22286   0.22469   0.23046   0.23515
     Eigenvalues ---    0.24180   0.24246   0.24285   0.24350   0.24404
     Eigenvalues ---    0.24881   0.24988   0.25000   0.25493   0.28492
     Eigenvalues ---    0.29850   0.29867   0.30048   0.30143   0.30206
     Eigenvalues ---    0.30376   0.31566   0.33575   0.33643   0.33662
     Eigenvalues ---    0.33707   0.33724   0.33836   0.33880   0.34109
     Eigenvalues ---    0.34157   0.34234   0.34244   0.34324   0.34336
     Eigenvalues ---    0.34343   0.34359   0.34374   0.34386   0.34389
     Eigenvalues ---    0.34396   0.34397   0.34407   0.34412   0.34427
     Eigenvalues ---    0.34428   0.34440   0.34444   0.34454   0.34549
     Eigenvalues ---    0.34632   0.35211   0.38060   0.42780   0.43268
     Eigenvalues ---    0.43457   0.43601   0.44366   0.49831
 Maximum Force            0.001450     0.000015     NO 
 RMS     Force            0.000240     0.000010     NO 
 Maximum Displacement     0.425592     0.000060     NO 
 RMS     Displacement     0.122843     0.000040     NO 
                          Input orientation:                          
 ---------------------------------------------------------------------
 Center     Atomic      Atomic             Coordinates (Angstroms)
 Number     Number       Type             X           Y           Z
 ---------------------------------------------------------------------
      1          6           0       -9.011534   -1.671290   -1.135074
      2          1           0       -9.874950   -1.749209   -1.806310
      3          1           0       -8.146060   -2.093338   -1.657450
      4          1           0       -9.208661   -2.280909   -0.246738
      5          6           0       -8.785790   -0.212159   -0.740117
      6          1           0       -8.577560    0.399291   -1.633908
      7          1           0       -9.687501    0.190205   -0.266112
      8          8           0       -7.751275   -0.030885    0.220564
      9          6           0       -6.437178   -0.176315   -0.286240
     10          1           0       -6.292780    0.433695   -1.192875
     11          1           0       -6.218931   -1.222333   -0.552484
     12          6           0       -5.483812    0.305408    0.808715
     13          1           0       -5.677290    1.363006    1.012678
     14          1           0       -5.667808   -0.257229    1.735365
     15          8           0       -4.121971    0.204445    0.409349
     16          6           0       -3.523475   -1.065235    0.650456
     17          1           0       -4.047090   -1.858918    0.092892
     18          1           0       -3.573067   -1.315302    1.722007
     19          6           0       -2.071693   -1.035255    0.190919
     20          1           0       -2.019589   -0.630924   -0.828734
     21          1           0       -1.699569   -2.065003    0.158591
     22          8           0       -1.179450   -0.358243    1.064976
     23          6           0       -1.322366    1.050668    1.193580
     24          1           0       -0.507155    1.339865    1.864977
     25          1           0       -2.270256    1.306638    1.686157
     26          6           0       -1.247541    1.870021   -0.098758
     27          1           0       -1.202085    2.929576    0.180825
     28          1           0       -2.154313    1.734763   -0.695902
     29         16           0        0.125059    1.481326   -1.260484
     30          6           0        1.592252    1.519430   -0.141602
     31          1           0        2.391711    2.005333   -0.709140
     32          1           0        1.367950    2.160902    0.716071
     33          6           0        2.011170    0.120889    0.316830
     34          1           0        2.271492   -0.504195   -0.542513
     35          1           0        1.186624   -0.379822    0.831455
     36         16           0        3.408074    0.135676    1.522510
     37          6           0        4.855065    0.487647    0.432328
     38          1           0        5.636139    0.824489    1.120980
     39          1           0        4.628553    1.325359   -0.233596
     40          6           0        5.322268   -0.729546   -0.366038
     41          1           0        5.549732   -1.567306    0.299534
     42          1           0        4.539816   -1.066711   -1.052887
     43         16           0        6.765205   -0.382544   -1.460188
     44          6           0        8.164433   -0.353002   -0.258979
     45          1           0        8.984308    0.097836   -0.828311
     46          1           0        7.926715    0.339829    0.555485
     47          6           0        8.575100   -1.722454    0.280335
     48          1           0        8.849260   -2.398484   -0.535395
     49          1           0        9.438101   -1.620477    0.950857
     50          1           0        7.767724   -2.192210    0.852399
 ---------------------------------------------------------------------
 Stoichiometry    C14H30O3S3
 Framework group  C1[X(C14H30O3S3)]
                         Standard orientation:                         
 ---------------------------------------------------------------------
 Center     Atomic      Atomic             Coordinates (Angstroms)
 Number     Number       Type             X           Y           Z
 ---------------------------------------------------------------------
      1          6           0        9.006139   -1.801794    0.980041
      2          1           0        9.868880   -1.944176    1.641496
      3          1           0        8.139300   -2.268747    1.460241
      4          1           0        9.202491   -2.326185    0.038715
      5          6           0        8.784093   -0.311599    0.723080
      6          1           0        8.576638    0.214131    1.670003
      7          1           0        9.687087    0.131148    0.289218
      8          8           0        7.750707   -0.038851   -0.216979
      9          6           0        6.435904   -0.227867    0.273343
     10          1           0        6.292268    0.295075    1.232951
     11          1           0        6.215019   -1.293666    0.440541
     12          6           0        5.484466    0.356369   -0.772279
     13          1           0        5.680563    1.427935   -0.876399
     14          1           0        5.667825   -0.117632   -1.747367
     15          8           0        4.122101    0.221781   -0.384792
     16          6           0        3.520817   -1.018369   -0.743823
     17          1           0        4.042170   -1.861943   -0.262618
     18          1           0        3.570610   -1.167306   -1.834031
     19          6           0        2.068774   -1.027997   -0.284236
     20          1           0        2.016869   -0.720615    0.768719
     21          1           0        1.694222   -2.055364   -0.348488
     22          8           0        1.178755   -0.270119   -1.091642
     23          6           0        1.325055    1.144298   -1.087922
     24          1           0        0.511013    1.496933   -1.729765
     25          1           0        2.273900    1.442917   -1.553935
     26          6           0        1.251198    1.839451    0.275303
     27          1           0        1.208421    2.920605    0.095956
     28          1           0        2.157215    1.646801    0.857653
     29         16           0       -0.123155    1.347161    1.394913
     30          6           0       -1.589436    1.493188    0.283743
[...]
     18          1           0       -3.606420   -1.387168    1.699658
     19          6           0       -2.120208   -1.111109    0.154979
     20          1           0       -2.071347   -0.690025   -0.858015
     21          1           0       -1.769815   -2.147325    0.100135
     22          8           0       -1.202853   -0.469275    1.028811
     23          6           0       -1.310911    0.938563    1.184991
     24          1           0       -0.489039    1.198893    1.860118
     25          1           0       -2.251819    1.204363    1.685657
     26          6           0       -1.226095    1.779864   -0.092973
     27          1           0       -1.186322    2.834619    0.204990
     28          1           0       -2.132472    1.651848   -0.692197
     29         16           0        0.149081    1.424967   -1.260891
     30          6           0        1.633566    1.519569   -0.171510
     31          1           0        2.422839    1.963870   -0.785512
     32          1           0        1.433031    2.218444    0.646439
     33          6           0        2.066154    0.153270    0.366785
     34          1           0        2.310795   -0.523013   -0.458166
     35          1           0        1.252327   -0.316500    0.924754
     36         16           0        3.483456    0.243636    1.539558
     37          6           0        4.907022    0.531246    0.405628
     38          1           0        5.707633    0.892632    1.058491
     39          1           0        4.674865    1.340319   -0.293068
     40          6           0        5.348301   -0.724589   -0.347573
     41          1           0        5.580768   -1.533731    0.350916
     42          1           0        4.547421   -1.085913   -1.000072
     43         16           0        6.770841   -0.441615   -1.480927
     44          6           0        8.182378   -0.327603   -0.304031
     45          1           0        9.001634    0.068667   -0.913385
     46          1           0        7.960514    0.430695    0.454755
     47          6           0        8.587229   -1.652718    0.340329
     48          1           0        8.849787   -2.393876   -0.420840
     49          1           0        9.455857   -1.505798    0.994703
     50          1           0        7.780528   -2.069423    0.952856
 ---------------------------------------------------------------------
 Stoichiometry    C14H30O3S3
 Framework group  C1[X(C14H30O3S3)]
                         Standard orientation:                         
 ---------------------------------------------------------------------
 Center     Atomic      Atomic             Coordinates (Angstroms)
 Number     Number       Type             X           Y           Z
 ---------------------------------------------------------------------
      1          6           0        9.071023   -1.770015    0.882509
      2          1           0        9.939746   -1.926976    1.532569
      3          1           0        8.215305   -2.272631    1.346259
      4          1           0        9.270661   -2.249712   -0.081605
      5          6           0        8.822386   -0.274674    0.691464
      6          1           0        8.609475    0.205753    1.660873
      7          1           0        9.716127    0.202332    0.275306
      8          8           0        7.781869    0.020078   -0.232007
      9          6           0        6.472901   -0.213160    0.250570
     10          1           0        6.321537    0.264201    1.232599
     11          1           0        6.270296   -1.288892    0.371643
     12          6           0        5.508804    0.398856   -0.766347
     13          1           0        5.684657    1.477519   -0.823775
     14          1           0        5.699899   -0.027287   -1.761900
     15          8           0        4.151689    0.219965   -0.383792
     16          6           0        3.571450   -1.009656   -0.803571
     17          1           0        4.116235   -1.867095   -0.376002
     18          1           0        3.611560   -1.098253   -1.900774
     19          6           0        2.124774   -1.076665   -0.332313
     20          1           0        2.075723   -0.826462    0.735792
     21          1           0        1.773551   -2.107647   -0.447406
     22          8           0        1.208362   -0.300081   -1.090059
     23          6           0        1.317589    1.114282   -1.014403
     24          1           0        0.496263    1.481973   -1.638317
     25          1           0        2.258958    1.457412   -1.464637
     26          6           0        1.232772    1.735868    0.383671
     27          1           0        1.193967    2.825138    0.261780
     28          1           0        2.138744    1.511031    0.954320
     29         16           0       -0.143274    1.196334    1.477515
     30          6           0       -1.627129    1.468667    0.417608
     31          1           0       -2.416371    1.807502    1.095577
     32          1           0       -1.425637    2.291464   -0.275276
     33          6           0       -2.060499    0.208873   -0.336563
     34          1           0       -2.306085   -0.592739    0.366899
     35          1           0       -1.246751   -0.164253   -0.963396
     36         16           0       -3.477133    0.490577   -1.479410
     37          6           0       -4.901054    0.590525   -0.314285
     38          1           0       -5.701052    1.054268   -0.899737
     39          1           0       -4.668627    1.274561    0.507144
     40          6           0       -5.343688   -0.770999    0.223754
     41          1           0       -5.576425   -1.455135   -0.597482
     42          1           0       -4.543422   -1.234621    0.808858
     43         16           0       -6.766587   -0.675531    1.387554
     44          6           0       -8.177435   -0.369829    0.244500
     45          1           0       -8.996695   -0.077598    0.910035
     46          1           0       -7.954598    0.501923   -0.380311
     47          6           0       -8.582983   -1.571710   -0.607584
     48          1           0       -8.846502   -2.426907    0.022358
     49          1           0       -9.451163   -1.319256   -1.229545
     50          1           0       -7.776292   -1.883574   -1.279589
 ---------------------------------------------------------------------
 Standard basis: 6-31G(d) (6D, 7F)
   372 basis functions,   752 primitive gaussians,   372 cartesian basis functions
    93 alpha electrons       93 beta electrons
 Requested convergence on RMS density matrix=1.00D-08 within  64 cycles.
 Requested convergence on MAX density matrix=1.00D-06.
 Requested convergence on             energy=1.00D-06.
 SCF Done:  E(RB3LYP) =  -1971.75409390     A.U. after    4 cycles
            NFock=  4  Conv=0.78D-08     -V/T= 2.0058
 Step number  50 out of a maximum of   55
     Eigenvalues ---    0.00173   0.00196   0.00228   0.00312   0.00355
     Eigenvalues ---    0.00377   0.00396   0.00457   0.00485   0.00530
     Eigenvalues ---    0.00578   0.00592   0.00734   0.01029   0.01101
     Eigenvalues ---    0.01437   0.01547   0.01681   0.02028   0.04352
     Eigenvalues ---    0.04511   0.04592   0.04678   0.04730   0.04774
     Eigenvalues ---    0.04861   0.04951   0.05032   0.05148   0.05256
     Eigenvalues ---    0.05449   0.05513   0.05530   0.05556   0.05614
     Eigenvalues ---    0.05655   0.05662   0.05713   0.05722   0.05821
     Eigenvalues ---    0.05840   0.05967   0.06012   0.06032   0.06054
     Eigenvalues ---    0.06117   0.06304   0.10798   0.11031   0.11291
     Eigenvalues ---    0.11471   0.11597   0.11610   0.11692   0.11754
     Eigenvalues ---    0.11869   0.11920   0.11993   0.12121   0.12776
     Eigenvalues ---    0.12920   0.13447   0.13619   0.13773   0.13983
     Eigenvalues ---    0.14050   0.14100   0.14188   0.14353   0.14572
     Eigenvalues ---    0.14918   0.15845   0.15936   0.15962   0.16001
     Eigenvalues ---    0.16006   0.16043   0.17654   0.19949   0.20918
     Eigenvalues ---    0.21272   0.21689   0.21841   0.22203   0.22379
     Eigenvalues ---    0.22625   0.22886   0.23012   0.23211   0.23664
     Eigenvalues ---    0.23852   0.24110   0.24300   0.24444   0.24502
     Eigenvalues ---    0.25179   0.25759   0.27043   0.28063   0.28856
     Eigenvalues ---    0.29600   0.30025   0.30153   0.30226   0.30404
     Eigenvalues ---    0.30667   0.33538   0.33564   0.33578   0.33658
     Eigenvalues ---    0.33709   0.33730   0.33840   0.34082   0.34208
     Eigenvalues ---    0.34230   0.34253   0.34267   0.34325   0.34347
     Eigenvalues ---    0.34357   0.34364   0.34382   0.34395   0.34396
     Eigenvalues ---    0.34416   0.34422   0.34441   0.34449   0.34453
     Eigenvalues ---    0.34491   0.34560   0.34575   0.34683   0.34733
     Eigenvalues ---    0.35073   0.36095   0.36840   0.43053   0.43176
     Eigenvalues ---    0.43283   0.44132   0.44515   0.48567
 Maximum Force            0.000000     0.000015     YES
 RMS     Force            0.000000     0.000010     YES
 Maximum Displacement     0.000042     0.000060     YES
 RMS     Displacement     0.000011     0.000040     YES
 Optimization completed.
    -- Stationary point found.
                          Input orientation:                          
 ---------------------------------------------------------------------
 Center     Atomic      Atomic             Coordinates (Angstroms)
 Number     Number       Type             X           Y           Z
 ---------------------------------------------------------------------
      1          6           0       -9.067498   -1.591583   -1.153148
      2          1           0       -9.936599   -1.639705   -1.819663
      3          1           0       -8.212381   -2.012460   -1.693126
      4          1           0       -9.267179   -2.222002   -0.280119
      5          6           0       -8.817524   -0.147644   -0.720810
      6          1           0       -8.604571    0.484350   -1.598951
      7          1           0       -9.710704    0.255761   -0.231945
      8          8           0       -7.776409   -0.008320    0.237847
      9          6           0       -6.467821   -0.160709   -0.276987
     10          1           0       -6.316423    0.470367   -1.168046
     11          1           0       -6.266172   -1.202427   -0.572056
     12          6           0       -5.502823    0.276440    0.825668
     13          1           0       -5.677742    1.331414    1.058411
     14          1           0       -5.693904   -0.306279    1.738448
     15          8           0       -4.146005    0.161314    0.418359
     16          6           0       -3.566648   -1.120769    0.631593
     17          1           0       -4.112321   -1.896534    0.070131
     18          1           0       -3.606420   -1.387168    1.699658
     19          6           0       -2.120208   -1.111109    0.154979
     20          1           0       -2.071347   -0.690025   -0.858015
     21          1           0       -1.769815   -2.147325    0.100135
     22          8           0       -1.202853   -0.469275    1.028811
     23          6           0       -1.310911    0.938563    1.184991
     24          1           0       -0.489039    1.198893    1.860118
     25          1           0       -2.251819    1.204363    1.685657
     26          6           0       -1.226095    1.779864   -0.092973
     27          1           0       -1.186322    2.834619    0.204990
     28          1           0       -2.132472    1.651848   -0.692197
     29         16           0        0.149081    1.424967   -1.260891
     30          6           0        1.633566    1.519569   -0.171510
     31          1           0        2.422839    1.963870   -0.785512
     32          1           0        1.433031    2.218444    0.646439
     33          6           0        2.066154    0.153270    0.366785
     34          1           0        2.310795   -0.523013   -0.458166
     35          1           0        1.252327   -0.316500    0.924754
     36         16           0        3.483456    0.243636    1.539558
     37          6           0        4.907022    0.531246    0.405628
     38          1           0        5.707633    0.892632    1.058491
     39          1           0        4.674865    1.340319   -0.293068
     40          6           0        5.348301   -0.724589   -0.347573
     41          1           0        5.580768   -1.533731    0.350916
     42          1           0        4.547421   -1.085913   -1.000072
     43         16           0        6.770841   -0.441615   -1.480927
     44          6           0        8.182378   -0.327603   -0.304031
     45          1           0        9.001634    0.068667   -0.913385
     46          1           0        7.960514    0.430695    0.454755
     47          6           0        8.587229   -1.652718    0.340329
     48          1           0        8.849787   -2.393876   -0.420840
     49          1           0        9.455857   -1.505798    0.994703
     50          1           0        7.780528   -2.069423    0.952856
 ---------------------------------------------------------------------
 Stoichiometry    C14H30O3S3
 Framework group  C1[X(C14H30O3S3)]
                         Standard orientation:                         
 ---------------------------------------------------------------------
 Center     Atomic      Atomic             Coordinates (Angstroms)
 Number     Number       Type             X           Y           Z
 ---------------------------------------------------------------------
      1          6           0        9.071023   -1.770015    0.882509
      2          1           0        9.939746   -1.926976    1.532569
      3          1           0        8.215305   -2.272631    1.346259
      4          1           0        9.270661   -2.249712   -0.081605
      5          6           0        8.822386   -0.274674    0.691464
      6          1           0        8.609475    0.205753    1.660873
      7          1           0        9.716127    0.202332    0.275306
      8          8           0        7.781869    0.020078   -0.232007
      9          6           0        6.472901   -0.213160    0.250570
     10          1           0        6.321537    0.264201    1.232599
     11          1           0        6.270296   -1.288892    0.371643
     12          6           0        5.508804    0.398856   -0.766347
     13          1           0        5.684657    1.477519   -0.823775
     14          1           0        5.699899   -0.027287   -1.761900
     15          8           0        4.151689    0.219965   -0.383792
     16          6           0        3.571450   -1.009656   -0.803571
     17          1           0        4.116235   -1.867095   -0.376002
     18          1           0        3.611560   -1.098253   -1.900774
     19          6           0        2.124774   -1.076665   -0.332313
     20          1           0        2.075723   -0.826462    0.735792
     21          1           0        1.773551   -2.107647   -0.447406
     22          8           0        1.208362   -0.300081   -1.090059
     23          6           0        1.317589    1.114282   -1.014403
     24          1           0        0.496263    1.481973   -1.638317
     25          1           0        2.258958    1.457412   -1.464637
     26          6           0        1.232772    1.735868    0.383671
     27          1           0        1.193967    2.825138    0.261780
     28          1           0        2.138744    1.511031    0.954320
     29         16           0       -0.143274    1.196334    1.477515
     30          6           0       -1.627129    1.468667    0.417608
     31          1           0       -2.416371    1.807502    1.095577
     32          1           0       -1.425637    2.291464   -0.275276
     33          6           0       -2.060499    0.208873   -0.336563
     34          1           0       -2.306085   -0.592739    0.366899
     35          1           0       -1.246751   -0.164253   -0.963396
     36         16           0       -3.477133    0.490577   -1.479410
     37          6           0       -4.901054    0.590525   -0.314285
     38          1           0       -5.701052    1.054268   -0.899737
     39          1           0       -4.668627    1.274561    0.507144
     40          6           0       -5.343688   -0.770999    0.223754
     41          1           0       -5.576425   -1.455135   -0.597482
     42          1           0       -4.543422   -1.234621    0.808858
     43         16           0       -6.766587   -0.675531    1.387554
     44          6           0       -8.177435   -0.369829    0.244500
     45          1           0       -8.996695   -0.077598    0.910035
     46          1           0       -7.954598    0.501923   -0.380311
     47          6           0       -8.582983   -1.571710   -0.607584
     48          1           0       -8.846502   -2.426907    0.022358
     49          1           0       -9.451163   -1.319256   -1.229545
     50          1           0       -7.776292   -1.883574   -1.279589
 ---------------------------------------------------------------------
 Mulliken charges:
     1  C   -0.461880
     2  H    0.146892
     3  H    0.150524
     4  H    0.158759
     5  C   -0.014283
     6  H    0.122522
     7  H    0.147118
     8  O   -0.474421
     9  C   -0.029124
    10  H    0.128298
    11  H    0.125162
    12  C   -0.039191
    13  H    0.155629
    14  H    0.138407
    15  O   -0.482234
    16  C   -0.040140
    17  H    0.125574
    18  H    0.138618
    19  C   -0.042111
    20  H    0.151772
    21  H    0.149457
    22  O   -0.468720
    23  C   -0.017814
    24  H    0.146546
    25  H    0.154250
    26  C   -0.453075
    27  H    0.170067
    28  H    0.193584
    29  S    0.080878
    30  C   -0.415974
    31  H    0.179694
    32  H    0.180337
    33  C   -0.422582
    34  H    0.177429
    35  H    0.216590
    36  S    0.070883
    37  C   -0.412286
    38  H    0.178274
    39  H    0.184161
    40  C   -0.412345
    41  H    0.185831
    42  H    0.181395
    43  S    0.078474
    44  C   -0.410170
    45  H    0.177346
    46  H    0.169004
    47  C   -0.435788
    48  H    0.164681
    49  H    0.149128
    50  H    0.154854
 Sum of Mulliken charges =  -0.00000
 Dipole moment (field-independent basis, Debye):
    X=              2.2265    Y=             -0.4752    Z=             -0.5011  Tot=              2.3312
 Quadrupole moment (field-independent basis, Debye-Ang):
   XX=           -119.0861   YY=           -144.3489   ZZ=           -156.7818
   XY=             -7.3864   XZ=             12.3813   YZ=             -1.0854
 Traceless Quadrupole moment (field-independent basis, Debye-Ang):
   XX=             20.9861   YY=             -4.2766   ZZ=            -16.7096
   XY=             -7.3864   XZ=             12.3813   YZ=             -1.0854
 Octapole moment (field-independent basis, Debye-Ang**2):
  XXX=             47.6196  YYY=              2.4948  ZZZ=            -12.5182  XYY=             34.7723
  XXY=            -25.0419  XXZ=              5.4588  XZZ=             53.4233  YZZ=             -3.3014
  YYZ=             -9.4558  XYZ=            -10.4405
 Hexadecapole moment (field-independent basis, Debye-Ang**3):
 XXXX=         -22632.9449 YYYY=          -1102.6635 ZZZZ=          -1019.5361 XXXY=           -353.9732
 XXXZ=            973.0086 YYYX=              2.2545 YYYZ=             -1.3414 ZZZX=             -7.1783
 ZZZY=             -7.2714 XXYY=          -4492.8366 XXZZ=          -4577.1236 YYZZ=           -367.7519
 XXYZ=             53.6843 YYXZ=             -2.5216 ZZXY=            -10.0574
 Job cpu time:       0 days 12 hours 20 minutes  5.6 seconds.
 Normal termination of Gaussian 16 at Sat Jul  8 19:56:42 2023.
