 Copyright (c) 1988-2019, Gaussian, Inc.  All Rights Reserved.
  
 This is part of the Gaussian(R) 16 program.  It is based on
 the Gaussian(R) 09 system (copyright 2009, Gaussian, Inc.),
 the Gaussian(R) 03 system (copyright 2003, Gaussian, Inc.),
 the Gaussian(R) 98 system (copyright 1998, Gaussian, Inc.),
 the Gaussian(R) 94 system (copyright 1995, Gaussian, Inc.),
 the Gaussian 92(TM) system (copyright 1992, Gaussian, Inc.),
 the Gaussian 90(TM) system (copyright 1990, Gaussian, Inc.),
 the Gaussian 88(TM) system (copyright 1988, Gaussian, Inc.),
 the Gaussian 86(TM) system (copyright 1986, Carnegie Mellon
 University), and the Gaussian 82(TM) system (copyright 1983,
 Carnegie Mellon University). Gaussian is a federally registered
 trademark of Gaussian, Inc.
 Cite this work as:
 Gaussian 16, Revision C.01,
 M. J. Frisch, G. W. Trucks, H. B. Schlegel, G. E. Scuseria, 
 M. A. Robb, J. R. Cheeseman, G. Scalmani, V. Barone, 
 G. A. Petersson, H. Nakatsuji, X. Li, M. Caricato, A. V. Marenich, 
 J. Bloino, B. G. Janesko, R. Gomperts, B. Mennucci, H. P. Hratchian, 
 J. V. Ortiz, A. F. Izmaylov, J. L. Sonnenberg, D. Williams-Young, 
 F. Ding, F. Lipparini, F. Egidi, J. Goings, B. Peng, A. Petrone, 
 T. Henderson, D. Ranasinghe, V. G. Zakrzewski, J. Gao, N. Rega, 
 G. Zheng, W. Liang, M. Hada, M. Ehara, K. Toyota, R. Fukuda, 
 J. Hasegawa, M. Ishida, T. Nakajima, Y. Honda, O. Kitao, H. Nakai, 
 T. Vreven, K. Throssell, J. A. Montgomery, Jr., J. E. Peralta, 
 F. Ogliaro, M. J. Bearpark, J. J. Heyd, E. N. Brothers, K. N. Kudin, 
 V. N. Staroverov, T. A. Keith, R. Kobayashi, J. Normand, 
 K. Raghavachari, A. P. Rendell, J. C. Burant, S. S. Iyengar, 
 J. Tomasi, M. Cossi, J. M. Millam, M. Klene, C. Adamo, R. Cammi, 
 J. W. Ochterski, R. L. Martin, K. Morokuma, O. Farkas, 
 J. B. Foresman, and D. J. Fox, Gaussian, Inc., Wallingford CT, 2019.
 
 ******************************************
 Gaussian 16:  EM64L-G16RevC.01  3-Jul-2019
                 9-Jul-2023 
 ******************************************
 ----------------------------------------------------------------------
 #P B3LYP/6-31G(d) Integral=Ultrafine Opt=(Tight,MaxCycle=55) GFInput G
 FPrint SCF(Conver=8,XQC,MaxConventionalCycles=64,MaxCycle=128) Test
 ----------------------------------------------------------------------
 1/6=55,7=10,18=20,19=15,26=4,38=1/1,3;
 2/9=110,12=2,17=6,18=5,40=1/2;
 3/5=1,6=6,7=1,11=2,24=110,25=1,30=1,71=1,74=-5,75=-5/1,2,3;
 4//1;
 5/5=2,6=8,7=128,8=3,13=1,38=5,85=64/2,8;
 6/7=2,8=2,9=2,10=2,28=1/1;
 7//1,2,3,16;
 1/6=55,7=10,18=20,19=15,26=4/3(2);
 2/9=110/2;
 99//99;
 2/9=110/2;
 3/5=1,6=6,7=1,11=2,25=1,30=1,71=1,74=-5,75=-5/1,2,3;
 4/5=5,16=3,69=1/1;
 5/5=2,6=8,7=128,8=3,13=1,38=5,85=64/2,8;
 7//1,2,3,16;
 1/6=55,7=10,18=20,19=15,26=4/3(-5);
 2/9=110/2;
 6/7=2,8=2,9=2,10=2,19=2,28=1/1;
 99/9=1/99;
 ----------------------------------------------------------
 Optimization step - Input generated by PyRED DVE-DMDS-OPLS
 ----------------------------------------------------------
 Symbolic Z-matrix:
 Charge =  0 Multiplicity = 1
 C                     8.14      0.83735   1.14304 
 H                     8.75046  -0.06739   1.05066 
 H                     8.25004   1.42149   0.22323 
 H                     8.54272   1.42583   1.97566 
 C                     6.66862   0.51221   1.39467 
 H                     6.55712  -0.07902   2.31812 
 H                     6.09797   1.43806   1.52425 
 O                     6.04071  -0.1644    0.30963 
 C                     6.37994  -1.53447   0.18431 
 H                     6.27569  -2.04871   1.15296 
 H                     7.42354  -1.65365  -0.15118 
 C                     5.46502  -2.20335  -0.83707 
 H                     5.42439  -1.58174  -1.74251 
 H                     5.91401  -3.16967  -1.10978 
 O                     4.15253  -2.47324  -0.34243 
 C                     3.05219  -1.7019   -0.83158 
 H                     2.18759  -2.37564  -0.87915 
 H                     3.25343  -1.34635  -1.85285 
 C                     2.70676  -0.52752   0.09424 
 H                     3.54706   0.17211   0.1503 
 H                     2.52141  -0.9177    1.10109 
 O                     1.5094    0.12953  -0.32027 
 C                     1.70434   1.16901  -1.26915 
 H                     2.14773   0.77439  -2.19944 
 H                     2.39284   1.92638  -0.86497 
 C                     0.3564    1.79755  -1.59396 
 H                    -0.3671    1.02523  -1.87233 
 H                     0.46541   2.46251  -2.45769 
 S                    -0.3674    2.86955  -0.29243 
 C                    -0.94297   1.68267   0.99502 
 H                    -0.08083   1.33933   1.57292 
 H                    -1.57361   2.29789   1.64521 
 C                    -1.71917   0.45736   0.51716 
 H                    -2.08378  -0.06896   1.40731 
 H                    -1.05026  -0.22006  -0.02182 
 S                    -3.15985   0.90175  -0.54115 
 C                    -4.01409  -0.72323  -0.56938 
 H                    -3.27603  -1.50261  -0.80039 
 H                    -4.6947   -0.67296  -1.42535 
 C                    -4.78367  -1.10906   0.70079 
 H                    -5.06737  -2.16719   0.64788 
 H                    -4.14942  -1.00208   1.58639 
 S                    -6.27669  -0.10688   1.06811 
 C                    -7.47525  -0.75099  -0.17053 
 H                    -8.31379  -0.04912  -0.10786 
 H                    -7.05245  -0.64196  -1.17576 
 C                    -7.96041  -2.17971   0.07328 
 H                    -7.14001  -2.90384   0.02258 
 H                    -8.42934  -2.27104   1.05793 
 H                    -8.69712  -2.46502  -0.6885 
 
 ITRead=  0  0  0  0  0  0  0  0  0  0  0  0  0  0  0  0  0  0  0  0
 ITRead=  0  0  0  0  0  0  0  0  0  0  0  0  0  0  0  0  0  0  0  0
 ITRead=  0  0  0  0  0  0  0  0  0  0
 MicOpt= -1 -1 -1 -1 -1 -1 -1 -1 -1 -1 -1 -1 -1 -1 -1 -1 -1 -1 -1 -1
 MicOpt= -1 -1 -1 -1 -1 -1 -1 -1 -1 -1 -1 -1 -1 -1 -1 -1 -1 -1 -1 -1
 MicOpt= -1 -1 -1 -1 -1 -1 -1 -1 -1 -1
 NAtoms=     50 NQM=       50 NQMF=       0 NMMI=      0 NMMIF=      0
                NMic=       0 NMicF=      0.
                          Input orientation:                          
 ---------------------------------------------------------------------
 Center     Atomic      Atomic             Coordinates (Angstroms)
 Number     Number       Type             X           Y           Z
 ---------------------------------------------------------------------
      1          6           0        8.139997    0.837346    1.143043
      2          1           0        8.750462   -0.067393    1.050655
      3          1           0        8.250041    1.421487    0.223227
      4          1           0        8.542724    1.425834    1.975658
      5          6           0        6.668620    0.512206    1.394673
      6          1           0        6.557118   -0.079016    2.318120
      7          1           0        6.097975    1.438055    1.524246
      8          8           0        6.040713   -0.164395    0.309628
      9          6           0        6.379937   -1.534465    0.184305
     10          1           0        6.275692   -2.048714    1.152958
     11          1           0        7.423539   -1.653651   -0.151181
     12          6           0        5.465017   -2.203349   -0.837069
     13          1           0        5.424387   -1.581739   -1.742511
     14          1           0        5.914014   -3.169670   -1.109778
     15          8           0        4.152526   -2.473241   -0.342431
     16          6           0        3.052191   -1.701903   -0.831576
     17          1           0        2.187592   -2.375636   -0.879153
     18          1           0        3.253434   -1.346348   -1.852847
     19          6           0        2.706759   -0.527517    0.094238
     20          1           0        3.547061    0.172105    0.150303
     21          1           0        2.521410   -0.917699    1.101089
     22          8           0        1.509396    0.129528   -0.320272
     23          6           0        1.704340    1.169011   -1.269154
     24          1           0        2.147732    0.774391   -2.199440
     25          1           0        2.392842    1.926375   -0.864974
     26          6           0        0.356400    1.797554   -1.593955
     27          1           0       -0.367095    1.025234   -1.872329
     28          1           0        0.465406    2.462510   -2.457686
     29         16           0       -0.367399    2.869551   -0.292429
     30          6           0       -0.942969    1.682672    0.995024
     31          1           0       -0.080833    1.339327    1.572917
     32          1           0       -1.573605    2.297889    1.645212
     33          6           0       -1.719166    0.457363    0.517164
     34          1           0       -2.083783   -0.068960    1.407311
     35          1           0       -1.050261   -0.220064   -0.021823
     36         16           0       -3.159853    0.901745   -0.541150
     37          6           0       -4.014086   -0.723228   -0.569378
     38          1           0       -3.276034   -1.502610   -0.800386
     39          1           0       -4.694696   -0.672962   -1.425348
     40          6           0       -4.783666   -1.109056    0.700791
     41          1           0       -5.067373   -2.167186    0.647879
     42          1           0       -4.149422   -1.002081    1.586385
     43         16           0       -6.276685   -0.106876    1.068114
     44          6           0       -7.475251   -0.750988   -0.170526
     45          1           0       -8.313786   -0.049120   -0.107856
     46          1           0       -7.052446   -0.641963   -1.175756
     47          6           0       -7.960410   -2.179705    0.073276
     48          1           0       -7.140005   -2.903839    0.022579
     49          1           0       -8.429338   -2.271038    1.057934
     50          1           0       -8.697124   -2.465015   -0.688496
 ---------------------------------------------------------------------
 Stoichiometry    C14H30O3S3
 Framework group  C1[X(C14H30O3S3)]
                         Standard orientation:                         
 ---------------------------------------------------------------------
 Center     Atomic      Atomic             Coordinates (Angstroms)
 Number     Number       Type             X           Y           Z
 ---------------------------------------------------------------------
      1          6           0       -8.139997    0.837346   -1.143043
      2          1           0       -8.750462   -0.067393   -1.050655
      3          1           0       -8.250041    1.421487   -0.223227
      4          1           0       -8.542724    1.425834   -1.975658
      5          6           0       -6.668620    0.512206   -1.394673
      6          1           0       -6.557118   -0.079016   -2.318120
      7          1           0       -6.097975    1.438055   -1.524246
      8          8           0       -6.040713   -0.164395   -0.309628
      9          6           0       -6.379937   -1.534465   -0.184305
     10          1           0       -6.275692   -2.048714   -1.152958
     11          1           0       -7.423539   -1.653651    0.151181
     12          6           0       -5.465017   -2.203349    0.837069
     13          1           0       -5.424387   -1.581739    1.742511
     14          1           0       -5.914014   -3.169670    1.109778
     15          8           0       -4.152526   -2.473241    0.342431
     16          6           0       -3.052191   -1.701903    0.831576
     17          1           0       -2.187592   -2.375636    0.879153
     18          1           0       -3.253434   -1.346348    1.852847
     19          6           0       -2.706759   -0.527517   -0.094238
     20          1           0       -3.547061    0.172105   -0.150303
     21          1           0       -2.521410   -0.917699   -1.101089
     22          8           0       -1.509396    0.129528    0.320272
     23          6           0       -1.704340    1.169011    1.269154
     24          1           0       -2.147732    0.774391    2.199440
     25          1           0       -2.392842    1.926375    0.864974
     26          6           0       -0.356400    1.797554    1.593955
     27          1           0        0.367095    1.025234    1.872329
     28          1           0       -0.465406    2.462510    2.457686
     29         16           0        0.367399    2.869551    0.292429
     30          6           0        0.942969    1.682672   -0.995024
     31          1           0        0.080833    1.339327   -1.572917
     32          1           0        1.573605    2.297889   -1.645212
     33          6           0        1.719166    0.457363   -0.517164
     34          1           0        2.083783   -0.068960   -1.407311
     35          1           0        1.050261   -0.220064    0.021823
     36         16           0        3.159853    0.901745    0.541150
     37          6           0        4.014086   -0.723228    0.569378
     38          1           0        3.276034   -1.502610    0.800386
     39          1           0        4.694696   -0.672962    1.425348
     40          6           0        4.783666   -1.109056   -0.700791
     41          1           0        5.067373   -2.167186   -0.647879
     42          1           0        4.149422   -1.002081   -1.586385
     43         16           0        6.276685   -0.106876   -1.068114
     44          6           0        7.475251   -0.750988    0.170526
     45          1           0        8.313786   -0.049120    0.107856
     46          1           0        7.052446   -0.641963    1.175756
     47          6           0        7.960410   -2.179705   -0.073276
     48          1           0        7.140005   -2.903839   -0.022579
     49          1           0        8.429338   -2.271038   -1.057934
     50          1           0        8.697124   -2.465015    0.688496
 ---------------------------------------------------------------------
 Standard basis: 6-31G(d) (6D, 7F)
   372 basis functions,   752 primitive gaussians,   372 cartesian basis functions
    93 alpha electrons       93 beta electrons
 Requested convergence on RMS density matrix=1.00D-08 within  64 cycles.
 Requested convergence on MAX density matrix=1.00D-06.
 Requested convergence on             energy=1.00D-06.
 SCF Done:  E(RB3LYP) =  -1971.74860682     A.U. after   13 cycles
            NFock= 13  Conv=0.60D-08     -V/T= 2.0058
 Mulliken charges:
     1  C   -0.461476
     2  H    0.150927
     3  H    0.158840
     4  H    0.147763
     5  C   -0.016937
     6  H    0.125256
     7  H    0.147631
     8  O   -0.470330
     9  C   -0.020704
    10  H    0.133406
    11  H    0.119727
    12  C   -0.036548
    13  H    0.137294
    14  H    0.139262
    15  O   -0.479546
    16  C   -0.038278
    17  H    0.147021
    18  H    0.125485
    19  C   -0.054128
    20  H    0.156412
    21  H    0.146181
    22  O   -0.479130
    23  C   -0.004337
    24  H    0.122048
    25  H    0.142456
    26  C   -0.444556
    27  H    0.197078
    28  H    0.176296
    29  S    0.088243
    30  C   -0.408543
    31  H    0.187161
    32  H    0.183632
    33  C   -0.419804
    34  H    0.166159
    35  H    0.190038
    36  S    0.122477
    37  C   -0.416915
    38  H    0.165372
    39  H    0.177557
    40  C   -0.412867
    41  H    0.169509
    42  H    0.179178
    43  S    0.102587
    44  C   -0.412503
    45  H    0.177935
    46  H    0.167737
    47  C   -0.435569
    48  H    0.149066
    49  H    0.164311
    50  H    0.148128
 Sum of Mulliken charges =  -0.00000
 Dipole moment (field-independent basis, Debye):
    X=             -3.5124    Y=             -3.3563    Z=              0.8449  Tot=              4.9311
 Quadrupole moment (field-independent basis, Debye-Ang):
   XX=           -121.8135   YY=           -155.2350   ZZ=           -141.8900
   XY=            -13.4366   XZ=              7.8611   YZ=             -2.2921
 Traceless Quadrupole moment (field-independent basis, Debye-Ang):
   XX=             17.8326   YY=            -15.5888   ZZ=             -2.2438
   XY=            -13.4366   XZ=              7.8611   YZ=             -2.2921
 Octapole moment (field-independent basis, Debye-Ang**2):
  XXX=           -158.8151  YYY=            -28.5260  ZZZ=              6.7195  XYY=            -21.5084
  XXY=            -77.5084  XXZ=             37.0374  XZZ=            -44.6651  YZZ=              3.8383
  YYZ=              1.8790  XYZ=              0.1529
 Hexadecapole moment (field-independent basis, Debye-Ang**3):
 XXXX=         -18524.5550 YYYY=          -2343.5573 ZZZZ=           -849.4381 XXXY=           -104.5327
 XXXZ=            629.6049 YYYX=            -20.4265 YYYZ=            -10.0841 ZZZX=             31.5263
 ZZZY=              1.5171 XXYY=          -3761.2739 XXZZ=          -3586.3403 YYZZ=           -486.9727
 XXYZ=            -92.1342 YYXZ=            -25.3587 ZZXY=             12.6733
 Step number   1 out of a maximum of   55
     Eigenvalues ---    0.00230   0.00230   0.00230   0.00230   0.00230
     Eigenvalues ---    0.00230   0.00305   0.00311   0.00390   0.00399
     Eigenvalues ---    0.00407   0.00426   0.00470   0.01295   0.01317
     Eigenvalues ---    0.01331   0.01367   0.01416   0.01467   0.04158
     Eigenvalues ---    0.04192   0.04203   0.04253   0.04260   0.04665
     Eigenvalues ---    0.04682   0.04732   0.04744   0.04858   0.05183
     Eigenvalues ---    0.05273   0.05462   0.05479   0.05563   0.05567
     Eigenvalues ---    0.05580   0.05610   0.05673   0.05676   0.05709
     Eigenvalues ---    0.05740   0.05820   0.05867   0.05924   0.05997
     Eigenvalues ---    0.06008   0.06068   0.11187   0.11223   0.11236
     Eigenvalues ---    0.11499   0.11614   0.11663   0.11832   0.11838
     Eigenvalues ---    0.11847   0.11857   0.11875   0.11923   0.13703
     Eigenvalues ---    0.13768   0.13840   0.13890   0.13956   0.14037
     Eigenvalues ---    0.14056   0.14083   0.14106   0.14126   0.14132
     Eigenvalues ---    0.14162   0.16000   0.16000   0.16000   0.16000
     Eigenvalues ---    0.16000   0.16000   0.21989   0.22018   0.22024
     Eigenvalues ---    0.22034   0.22045   0.22049   0.22051   0.22053
     Eigenvalues ---    0.22065   0.22069   0.22097   0.22140   0.22987
     Eigenvalues ---    0.23067   0.23202   0.23471   0.23521   0.23546
     Eigenvalues ---    0.25000   0.25000   0.25000   0.25000   0.25000
     Eigenvalues ---    0.25000   0.28984   0.29019   0.29570   0.29633
     Eigenvalues ---    0.29687   0.29826   0.30143   0.33296   0.33390
     Eigenvalues ---    0.33446   0.33502   0.33632   0.33687   0.33695
     Eigenvalues ---    0.33789   0.33908   0.33963   0.34001   0.34041
     Eigenvalues ---    0.34072   0.34101   0.34132   0.34173   0.34187
     Eigenvalues ---    0.34191   0.34203   0.34207   0.34210   0.34222
     Eigenvalues ---    0.34246   0.34257   0.34271   0.34295   0.34305
     Eigenvalues ---    0.34324   0.34354   0.34443   0.40986   0.41229
     Eigenvalues ---    0.41379   0.41781   0.42328   0.42916
 Maximum Force            0.010881     0.000015     NO 
 RMS     Force            0.001229     0.000010     NO 
 Maximum Displacement     0.964975     0.000060     NO 
 RMS     Displacement     0.235626     0.000040     NO 
                          Input orientation:                          
 ---------------------------------------------------------------------
 Center     Atomic      Atomic             Coordinates (Angstroms)
 Number     Number       Type             X           Y           Z
 ---------------------------------------------------------------------
      1          6           0        7.750763    1.021968    1.346392
      2          1           0        8.459219    0.189629    1.274187
      3          1           0        7.858776    1.643667    0.451287
      4          1           0        8.032081    1.622365    2.219439
      5          6           0        6.309084    0.536521    1.486891
      6          1           0        6.200752   -0.095300    2.383483
      7          1           0        5.635477    1.392168    1.601966
      8          8           0        5.829971   -0.162821    0.343293
      9          6           0        6.325196   -1.482809    0.204480
     10          1           0        6.213836   -2.040431    1.148484
     11          1           0        7.393460   -1.485836   -0.067491
     12          6           0        5.549976   -2.195468   -0.891916
     13          1           0        5.516055   -1.552834   -1.783269
     14          1           0        6.081694   -3.119715   -1.155338
     15          8           0        4.242837   -2.560029   -0.482669
     16          6           0        3.174631   -1.779508   -0.995079
     17          1           0        2.320062   -2.453445   -1.123301
     18          1           0        3.434656   -1.371984   -1.983189
     19          6           0        2.794609   -0.655383   -0.025154
     20          1           0        3.639359    0.030818    0.113573
     21          1           0        2.550201   -1.094977    0.947641
     22          8           0        1.631206    0.036588   -0.469430
     23          6           0        1.891442    1.117672   -1.354601
     24          1           0        2.374651    0.760582   -2.280180
     25          1           0        2.570932    1.841526   -0.879896
     26          6           0        0.572174    1.786400   -1.714850
     27          1           0       -0.136099    1.048457   -2.103838
     28          1           0        0.744109    2.517850   -2.511954
     29         16           0       -0.229780    2.759195   -0.381592
     30          6           0       -0.720719    1.491613    0.863244
     31          1           0        0.180777    1.065792    1.311716
     32          1           0       -1.246138    2.074844    1.626579
     33          6           0       -1.603950    0.343913    0.378446
     34          1           0       -1.874425   -0.256719    1.255036
     35          1           0       -1.039062   -0.297280   -0.304706
     36         16           0       -3.146447    0.934539   -0.436894
     37          6           0       -4.051139   -0.659825   -0.539907
     38          1           0       -3.345795   -1.442218   -0.849544
     39          1           0       -4.760493   -0.533545   -1.364099
     40          6           0       -4.784864   -1.108178    0.730937
     41          1           0       -5.094357   -2.154868    0.623433
     42          1           0       -4.118074   -1.069136    1.598037
     43         16           0       -6.241118   -0.100179    1.212299
     44          6           0       -7.510275   -0.676972    0.011365
     45          1           0       -8.306443    0.070251    0.097719
     46          1           0       -7.112296   -0.591771   -1.006227
     47          6           0       -8.066089   -2.076659    0.272163
     48          1           0       -7.289486   -2.845372    0.194884
     49          1           0       -8.506465   -2.142754    1.271904
     50          1           0       -8.842434   -2.319586   -0.464528
 ---------------------------------------------------------------------
 Stoichiometry    C14H30O3S3
 Framework group  C1[X(C14H30O3S3)]
                         Standard orientation:                         
 ---------------------------------------------------------------------
 Center     Atomic      Atomic             Coordinates (Angstroms)
 Number     Number       Type             X           Y           Z
 ---------------------------------------------------------------------
      1          6           0       -7.717052    1.016149   -1.454211
      2          1           0       -8.425645    0.183781   -1.383700
      3          1           0       -7.837224    1.645770   -0.566222
      4          1           0       -7.987550    1.608379   -2.336210
      5          6           0       -6.273240    0.530906   -1.571621
      6          1           0       -6.152721   -0.108850   -2.461001
      7          1           0       -5.598957    1.386159   -1.685660
      8          8           0       -5.808386   -0.157631   -0.415649
      9          6           0       -6.304198   -1.476814   -0.271377
     10          1           0       -6.180101   -2.042798   -1.208794
     11          1           0       -7.375897   -1.478467   -0.013267
     12          6           0       -5.542638   -2.178795    0.841359
     13          1           0       -5.520856   -1.528130    1.727248
     14          1           0       -6.076908   -3.101168    1.106183
     15          8           0       -4.229974   -2.545711    0.452400
     16          6           0       -3.169201   -1.759535    0.971563
     17          1           0       -2.315770   -2.431432    1.116925
     18          1           0       -3.442389   -1.343395    1.952504
     19          6           0       -2.777624   -0.643805   -0.003446
     20          1           0       -3.621113    0.040270   -0.159296
     21          1           0       -2.520223   -1.091892   -0.968988
     22          8           0       -1.620700    0.053306    0.449625
     23          6           0       -1.893361    1.142052    1.321566
     24          1           0       -2.388223    0.792823    2.243982
     25          1           0       -2.567276    1.860920    0.831584
     26          6           0       -0.579473    1.815322    1.692851
     27          1           0        0.124347    1.081623    2.097626
     28          1           0       -0.762388    2.553744    2.481033
     29         16           0        0.238850    2.776883    0.361390
     30          6           0        0.747027    1.498641   -0.865498
     31          1           0       -0.148195    1.067894   -1.321767
     32          1           0        1.281789    2.075505   -1.627181
     33          6           0        1.624913    0.356240   -0.358962
     34          1           0        1.907273   -0.251986   -1.226521
     35          1           0        1.051776   -0.279346    0.322559
     36         16           0        3.156173    0.955732    0.470955
     37          6           0        4.060869   -0.636730    0.600059
     38          1           0        3.352262   -1.417013    0.907562
     39          1           0        4.759356   -0.502323    1.432208
     40          6           0        4.811421   -1.095766   -0.657070
     41          1           0        5.120424   -2.141134   -0.536132
     42          1           0        4.155905   -1.065201   -1.533061
     43         16           0        6.272903   -0.090677   -1.128574
     44          6           0        7.526881   -0.655360    0.093869
     45          1           0        8.323438    0.091855    0.011115
     46          1           0        7.115655   -0.561403    1.105405
     47          6           0        8.087276   -2.056778   -0.147073
     48          1           0        7.310419   -2.825545   -0.072945
     49          1           0        8.540647   -2.131428   -1.140382
     50          1           0        8.854211   -2.292284    0.601784
 ---------------------------------------------------------------------
 Standard basis: 6-31G(d) (6D, 7F)
   372 basis functions,   752 primitive gaussians,   372 cartesian basis functions
    93 alpha electrons       93 beta electrons
 Requested convergence on RMS density matrix=1.00D-08 within  64 cycles.
 Requested convergence on MAX density matrix=1.00D-06.
 Requested convergence on             energy=1.00D-06.
 SCF Done:  E(RB3LYP) =  -1971.74853671     A.U. after   11 cycles
            NFock= 11  Conv=0.68D-08     -V/T= 2.0058
 Step number   2 out of a maximum of   55
     Eigenvalues ---    0.00227   0.00230   0.00230   0.00230   0.00230
     Eigenvalues ---    0.00275   0.00310   0.00312   0.00390   0.00399
     Eigenvalues ---    0.00404   0.00445   0.00479   0.01297   0.01330
     Eigenvalues ---    0.01367   0.01415   0.01466   0.01616   0.04158
     Eigenvalues ---    0.04195   0.04206   0.04244   0.04254   0.04663
     Eigenvalues ---    0.04684   0.04872   0.04887   0.05155   0.05269
     Eigenvalues ---    0.05327   0.05462   0.05478   0.05562   0.05567
     Eigenvalues ---    0.05579   0.05610   0.05672   0.05673   0.05713
     Eigenvalues ---    0.05737   0.05834   0.05853   0.05922   0.05996
     Eigenvalues ---    0.06068   0.06184   0.11173   0.11184   0.11237
     Eigenvalues ---    0.11479   0.11510   0.11546   0.11831   0.11837
     Eigenvalues ---    0.11848   0.11857   0.11873   0.11921   0.13701
     Eigenvalues ---    0.13729   0.13839   0.13869   0.13897   0.14014
     Eigenvalues ---    0.14056   0.14082   0.14105   0.14130   0.14131
     Eigenvalues ---    0.14160   0.16000   0.16000   0.16000   0.16000
     Eigenvalues ---    0.16000   0.16000   0.21718   0.22004   0.22018
     Eigenvalues ---    0.22021   0.22036   0.22046   0.22050   0.22055
     Eigenvalues ---    0.22058   0.22064   0.22135   0.22964   0.23043
     Eigenvalues ---    0.23068   0.23202   0.23471   0.23521   0.23537
     Eigenvalues ---    0.24933   0.25000   0.25000   0.25000   0.25000
     Eigenvalues ---    0.28937   0.29015   0.29487   0.29570   0.29633
     Eigenvalues ---    0.29687   0.30136   0.33296   0.33383   0.33444
     Eigenvalues ---    0.33480   0.33606   0.33632   0.33685   0.33727
     Eigenvalues ---    0.33791   0.33909   0.33963   0.33984   0.34043
     Eigenvalues ---    0.34074   0.34101   0.34132   0.34173   0.34187
     Eigenvalues ---    0.34191   0.34203   0.34207   0.34210   0.34222
     Eigenvalues ---    0.34245   0.34271   0.34294   0.34305   0.34320
     Eigenvalues ---    0.34353   0.34417   0.35628   0.41112   0.41321
     Eigenvalues ---    0.41773   0.42318   0.42842   0.46974
 Maximum Force            0.013929     0.000015     NO 
 RMS     Force            0.001706     0.000010     NO 
 Maximum Displacement     0.910606     0.000060     NO 
 RMS     Displacement     0.194387     0.000040     NO 
                          Input orientation:                          
 ---------------------------------------------------------------------
 Center     Atomic      Atomic             Coordinates (Angstroms)
 Number     Number       Type             X           Y           Z
 ---------------------------------------------------------------------
      1          6           0        8.160429    0.899045    1.353023
      2          1           0        8.791889    0.008666    1.261595
      3          1           0        8.300099    1.512892    0.456884
      4          1           0        8.513953    1.469041    2.220150
      5          6           0        6.685975    0.539900    1.528038
      6          1           0        6.545313   -0.086499    2.423862
      7          1           0        6.092774    1.450220    1.664701
      8          8           0        6.118868   -0.107123    0.393597
      9          6           0        6.492344   -1.464020    0.235726
     10          1           0        6.357758   -2.018145    1.178618
     11          1           0        7.551990   -1.548312   -0.056320
     12          6           0        5.645616   -2.110615   -0.851979
     13          1           0        5.631068   -1.461846   -1.739433
     14          1           0        6.128222   -3.056028   -1.133083
     15          8           0        4.330239   -2.437659   -0.432259
     16          6           0        3.256884   -1.670252   -0.958521
     17          1           0        2.421221   -2.364211   -1.102356
     18          1           0        3.520298   -1.258129   -1.943769
     19          6           0        2.812438   -0.560587    0.001208
     20          1           0        3.622039    0.162718    0.149924
     21          1           0        2.573072   -1.009230    0.971232
     22          8           0        1.623574    0.076015   -0.460823
     23          6           0        1.846328    1.166724   -1.344066
     24          1           0        2.359310    0.827352   -2.260239
     25          1           0        2.486103    1.922501   -0.863790
     26          6           0        0.506048    1.776087   -1.732819
     27          1           0       -0.156856    1.009750   -2.146934
     28          1           0        0.669759    2.518718   -2.521319
     29         16           0       -0.375694    2.716984   -0.425858
     30          6           0       -0.860942    1.433949    0.803109
     31          1           0        0.042228    0.994586    1.232977
     32          1           0       -1.373391    2.009563    1.581139
     33          6           0       -1.756728    0.301472    0.305498
     34          1           0       -2.012143   -0.322369    1.170642
     35          1           0       -1.207667   -0.323262   -0.405457
     36         16           0       -3.311627    0.916714   -0.466310
     37          6           0       -4.226720   -0.671243   -0.574737
     38          1           0       -3.521984   -1.458648   -0.872611
     39          1           0       -4.927173   -0.546104   -1.406685
     40          6           0       -4.972743   -1.108327    0.692470
     41          1           0       -5.283194   -2.155638    0.592013
     42          1           0       -4.313577   -1.060640    1.565102
     43         16           0       -6.432328   -0.093303    1.148139
     44          6           0       -7.705447   -0.729428   -0.017877
     45          1           0       -8.488099    0.036429    0.006850
     46          1           0       -7.297995   -0.725847   -1.035290
     47          6           0       -8.287529   -2.096883    0.338768
     48          1           0       -7.523594   -2.881950    0.322502
     49          1           0       -8.734311   -2.083377    1.337735
     50          1           0       -9.064059   -2.378897   -0.383742
 ---------------------------------------------------------------------
 Stoichiometry    C14H30O3S3
 Framework group  C1[X(C14H30O3S3)]
                         Standard orientation:                         
 ---------------------------------------------------------------------
 Center     Atomic      Atomic             Coordinates (Angstroms)
 Number     Number       Type             X           Y           Z
 ---------------------------------------------------------------------
      1          6           0       -8.166418    0.807236   -1.449282
      2          1           0       -8.795496   -0.079416   -1.315175
      3          1           0       -8.313246    1.466367   -0.587094
      4          1           0       -8.516788    1.330098   -2.346856
      5          6           0       -6.689819    0.444706   -1.597130
      6          1           0       -6.541959   -0.226940   -2.458345
      7          1           0       -6.098803    1.348784   -1.777660
      8          8           0       -6.127159   -0.140416   -0.427406
      9          6           0       -6.497125   -1.488579   -0.201231
     10          1           0       -6.355305   -2.090520   -1.113243
     11          1           0       -7.558157   -1.561324    0.088880
     12          6           0       -5.654584   -2.074713    0.923362
     13          1           0       -5.647262   -1.380612    1.775921
     14          1           0       -6.135726   -3.005930    1.250579
     15          8           0       -4.335753   -2.418479    0.528585
     16          6           0       -3.267950   -1.620934    1.020190
     17          1           0       -2.430878   -2.303503    1.204608
     18          1           0       -3.538378   -1.159056    1.981171
     19          6           0       -2.821590   -0.561124    0.006518
     20          1           0       -3.632668    0.150590   -0.184157
     21          1           0       -2.575178   -1.058765   -0.937495
     22          8           0       -1.637485    0.102863    0.441432
     23          6           0       -1.868873    1.237242    1.265463
     24          1           0       -2.386021    0.944169    2.195174
     25          1           0       -2.508323    1.964739    0.742943
     26          6           0       -0.532844    1.870752    1.629463
     27          1           0        0.130150    1.129349    2.086593
     28          1           0       -0.703512    2.652808    2.377325
     29         16           0        0.353353    2.745513    0.280260
     30          6           0        0.849847    1.402018   -0.877548
     31          1           0       -0.049397    0.937688   -1.289011
     32          1           0        1.364898    1.938196   -1.681600
     33          6           0        1.746427    0.300142   -0.316683
     34          1           0        2.008852   -0.366946   -1.146752
     35          1           0        1.195311   -0.288708    0.422738
     36         16           0        3.294842    0.960210    0.430740
     37          6           0        4.214454   -0.616701    0.626763
     38          1           0        3.510577   -1.390041    0.961264
     39          1           0        4.909688   -0.445973    1.454972
     40          6           0        4.969186   -1.116461   -0.611795
     41          1           0        5.282457   -2.156021   -0.455243
     42          1           0        4.314910   -1.116568   -1.489395
     43         16           0        6.428066   -0.121342   -1.111501
     44          6           0        7.696504   -0.691433    0.093132
     45          1           0        8.476791    0.074872    0.032960
     46          1           0        7.283185   -0.636380    1.106688
     47          6           0        8.285075   -2.073516   -0.188615
     48          1           0        7.523617   -2.859378   -0.135788
     49          1           0        8.737563   -2.110406   -1.184419
     50          1           0        9.058340   -2.314809    0.551919
 ---------------------------------------------------------------------
 Standard basis: 6-31G(d) (6D, 7F)
   372 basis functions,   752 primitive gaussians,   372 cartesian basis functions
    93 alpha electrons       93 beta electrons
 Requested convergence on RMS density matrix=1.00D-08 within  64 cycles.
 Requested convergence on MAX density matrix=1.00D-06.
 Requested convergence on             energy=1.00D-06.
 SCF Done:  E(RB3LYP) =  -1971.74891647     A.U. after   11 cycles
            NFock= 11  Conv=0.58D-08     -V/T= 2.0058
 Step number   3 out of a maximum of   55
     Eigenvalues ---    0.00218   0.00230   0.00230   0.00230   0.00236
     Eigenvalues ---    0.00309   0.00310   0.00387   0.00391   0.00399
     Eigenvalues ---    0.00434   0.00454   0.00574   0.01286   0.01330
     Eigenvalues ---    0.01367   0.01418   0.01466   0.01736   0.04005
     Eigenvalues ---    0.04186   0.04211   0.04230   0.04266   0.04656
     Eigenvalues ---    0.04683   0.04724   0.04880   0.05122   0.05195
     Eigenvalues ---    0.05462   0.05479   0.05540   0.05563   0.05576
     Eigenvalues ---    0.05608   0.05637   0.05673   0.05732   0.05737
     Eigenvalues ---    0.05826   0.05857   0.05907   0.05997   0.06016
     Eigenvalues ---    0.06059   0.06262   0.11213   0.11231   0.11268
     Eigenvalues ---    0.11483   0.11652   0.11735   0.11821   0.11830
     Eigenvalues ---    0.11854   0.11859   0.11899   0.11936   0.13724
     Eigenvalues ---    0.13782   0.13834   0.13876   0.13978   0.14055
     Eigenvalues ---    0.14058   0.14076   0.14108   0.14123   0.14140
     Eigenvalues ---    0.14188   0.15998   0.16000   0.16000   0.16000
     Eigenvalues ---    0.16000   0.16001   0.20551   0.22006   0.22021
     Eigenvalues ---    0.22027   0.22041   0.22050   0.22058   0.22061
     Eigenvalues ---    0.22067   0.22109   0.22137   0.22918   0.23066
     Eigenvalues ---    0.23201   0.23470   0.23521   0.23529   0.24213
     Eigenvalues ---    0.24916   0.25000   0.25000   0.25000   0.25632
     Eigenvalues ---    0.28942   0.29028   0.29472   0.29570   0.29634
     Eigenvalues ---    0.29690   0.30139   0.33296   0.33390   0.33444
     Eigenvalues ---    0.33494   0.33631   0.33677   0.33686   0.33770
     Eigenvalues ---    0.33798   0.33908   0.33963   0.33986   0.34046
     Eigenvalues ---    0.34077   0.34101   0.34133   0.34173   0.34188
     Eigenvalues ---    0.34191   0.34204   0.34207   0.34210   0.34222
     Eigenvalues ---    0.34244   0.34271   0.34294   0.34305   0.34317
     Eigenvalues ---    0.34355   0.34416   0.36657   0.41116   0.41317
     Eigenvalues ---    0.41774   0.42317   0.42829   0.48983
 Maximum Force            0.003605     0.000015     NO 
 RMS     Force            0.000611     0.000010     NO 
 Maximum Displacement     0.399440     0.000060     NO 
 RMS     Displacement     0.129740     0.000040     NO 
                          Input orientation:                          
 ---------------------------------------------------------------------
 Center     Atomic      Atomic             Coordinates (Angstroms)
 Number     Number       Type             X           Y           Z
 ---------------------------------------------------------------------
      1          6           0        8.080923    0.892959    1.219662
      2          1           0        8.716950    0.005623    1.130321
      3          1           0        8.190894    1.487917    0.306802
      4          1           0        8.453463    1.484634    2.064011
      5          6           0        6.614750    0.526720    1.443091
      6          1           0        6.503969   -0.081077    2.355791
      7          1           0        6.018351    1.435381    1.576676
      8          8           0        6.021820   -0.148894    0.339041
      9          6           0        6.402547   -1.505917    0.199406
     10          1           0        6.297445   -2.040426    1.157292
     11          1           0        7.454016   -1.591066   -0.120695
     12          6           0        5.528455   -2.179053   -0.848653
     13          1           0        5.491664   -1.550620   -1.749910
     14          1           0        6.001028   -3.132303   -1.120758
     15          8           0        4.224120   -2.483919   -0.383775
     16          6           0        3.149029   -1.704869   -0.885692
     17          1           0        2.291943   -2.379846   -0.988845
     18          1           0        3.386990   -1.313914   -1.885871
     19          6           0        2.769429   -0.568686    0.070560
     20          1           0        3.604025    0.133837    0.179563
     21          1           0        2.552356   -0.995550    1.055455
     22          8           0        1.583704    0.094653   -0.360205
     23          6           0        1.806216    1.164417   -1.268848
     24          1           0        2.277993    0.795133   -2.195537
     25          1           0        2.482596    1.910141   -0.824271
     26          6           0        0.471719    1.804905   -1.625624
     27          1           0       -0.226740    1.048991   -1.998851
     28          1           0        0.631424    2.522913   -2.437493
     29         16           0       -0.335958    2.807716   -0.316550
     30          6           0       -0.894680    1.563788    0.919936
     31          1           0       -0.021344    1.167829    1.442695
     32          1           0       -1.486244    2.156231    1.625934
     33          6           0       -1.714695    0.387586    0.393591
     34          1           0       -2.031836   -0.208312    1.258185
     35          1           0       -1.089724   -0.250657   -0.238720
     36         16           0       -3.207732    0.926730   -0.539960
     37          6           0       -4.095179   -0.679108   -0.610087
     38          1           0       -3.371901   -1.463531   -0.868671
     39          1           0       -4.784316   -0.596028   -1.456607
     40          6           0       -4.852482   -1.083608    0.660943
     41          1           0       -5.148810   -2.137704    0.592495
     42          1           0       -4.205703   -0.996598    1.539860
     43         16           0       -6.331666   -0.072569    1.058778
     44          6           0       -7.572630   -0.761526   -0.111808
     45          1           0       -8.382933   -0.024672   -0.100970
     46          1           0       -7.155927   -0.751831   -1.125458
     47          6           0       -8.106087   -2.146852    0.251736
     48          1           0       -7.312220   -2.901907    0.250375
     49          1           0       -8.562717   -2.141529    1.246294
     50          1           0       -8.864257   -2.464777   -0.475411
 ---------------------------------------------------------------------
 Stoichiometry    C14H30O3S3
 Framework group  C1[X(C14H30O3S3)]
                         Standard orientation:                         
 ---------------------------------------------------------------------
 Center     Atomic      Atomic             Coordinates (Angstroms)
 Number     Number       Type             X           Y           Z
 ---------------------------------------------------------------------
      1          6           0       -8.079651    0.868364   -1.256529
      2          1           0       -8.714977   -0.018261   -1.155860
      3          1           0       -8.192380    1.476334   -0.352622
      4          1           0       -8.450807    1.447382   -2.110209
      5          6           0       -6.612581    0.500486   -1.471211
      6          1           0       -6.499030   -0.120319   -2.374770
      7          1           0       -6.016800    1.407752   -1.616518
      8          8           0       -6.021561   -0.158478   -0.356128
      9          6           0       -6.401226   -1.513743   -0.197786
     10          1           0       -6.293322   -2.061926   -1.147599
     11          1           0       -7.453358   -1.595370    0.121051
     12          6           0       -5.528915   -2.170739    0.861933
     13          1           0       -5.494889   -1.529310    1.754097
     14          1           0       -6.001152   -3.120458    1.146680
     15          8           0       -4.223178   -2.480911    0.404562
     16          6           0       -3.150069   -1.693553    0.897681
     17          1           0       -2.292538   -2.366063    1.012582
     18          1           0       -3.390785   -1.288440    1.891546
     19          6           0       -2.769383   -0.570906   -0.074001
     20          1           0       -3.604439    0.129085   -0.195097
     21          1           0       -2.549555   -1.011727   -1.052114
     22          8           0       -1.585355    0.099841    0.349905
     23          6           0       -1.811101    1.182388    1.242469
     24          1           0       -2.284680    0.826034    2.173293
     25          1           0       -2.487195    1.920894    0.785581
     26          6           0       -0.478103    1.829375    1.593072
     27          1           0        0.220248    1.079673    1.978818
     28          1           0       -0.640454    2.558870    2.394105
     29         16           0        0.331626    2.814020    0.271535
     30          6           0        0.894531    1.552946   -0.945533
     31          1           0        0.022833    1.148551   -1.464557
     32          1           0        1.487148    2.135751   -1.658634
     33          6           0        1.714508    0.385341   -0.400328
     34          1           0        2.034294   -0.222653   -1.255476
     35          1           0        1.088704   -0.244360    0.239677
     36         16           0        3.204790    0.939496    0.528823
     37          6           0        4.093713   -0.664221    0.624227
     38          1           0        3.370632   -1.445591    0.892428
     39          1           0        4.780770   -0.568190    1.471067
     40          6           0        4.854420   -1.086244   -0.639050
     41          1           0        5.151665   -2.138927   -0.554682
     42          1           0        4.209623   -1.012627   -1.520643
     43         16           0        6.333501   -0.079496   -1.047994
     44          6           0        7.572410   -0.750153    0.135326
     45          1           0        8.381982   -0.012676    0.115736
     46          1           0        7.153312   -0.726253    1.147752
     47          6           0        8.108139   -2.140022   -0.206910
     48          1           0        7.315045   -2.895818   -0.196494
     49          1           0        8.567104   -2.148589   -1.200370
     50          1           0        8.864921   -2.446605    0.526528
 ---------------------------------------------------------------------
 Standard basis: 6-31G(d) (6D, 7F)
   372 basis functions,   752 primitive gaussians,   372 cartesian basis functions
    93 alpha electrons       93 beta electrons
 Requested convergence on RMS density matrix=1.00D-08 within  64 cycles.
 Requested convergence on MAX density matrix=1.00D-06.
 Requested convergence on             energy=1.00D-06.
 SCF Done:  E(RB3LYP) =  -1971.74933387     A.U. after   11 cycles
            NFock= 11  Conv=0.63D-08     -V/T= 2.0058
 Step number   4 out of a maximum of   55
     Eigenvalues ---    0.00199   0.00230   0.00230   0.00231   0.00242
     Eigenvalues ---    0.00309   0.00310   0.00390   0.00398   0.00411
     Eigenvalues ---    0.00427   0.00449   0.00612   0.01282   0.01331
     Eigenvalues ---    0.01367   0.01418   0.01465   0.01689   0.04195
     Eigenvalues ---    0.04206   0.04235   0.04264   0.04488   0.04645
     Eigenvalues ---    0.04682   0.04764   0.04877   0.05140   0.05336
     Eigenvalues ---    0.05468   0.05478   0.05560   0.05564   0.05578
     Eigenvalues ---    0.05606   0.05657   0.05674   0.05729   0.05739
     Eigenvalues ---    0.05768   0.05857   0.05898   0.05911   0.06025
     Eigenvalues ---    0.06060   0.06222   0.11195   0.11241   0.11279
     Eigenvalues ---    0.11484   0.11607   0.11707   0.11806   0.11810
     Eigenvalues ---    0.11837   0.11859   0.11891   0.11976   0.13722
     Eigenvalues ---    0.13772   0.13873   0.13883   0.13926   0.13977
     Eigenvalues ---    0.14056   0.14070   0.14085   0.14103   0.14136
     Eigenvalues ---    0.14204   0.15994   0.16000   0.16000   0.16000
     Eigenvalues ---    0.16000   0.16002   0.21234   0.22018   0.22021
     Eigenvalues ---    0.22024   0.22043   0.22050   0.22057   0.22061
     Eigenvalues ---    0.22069   0.22113   0.22676   0.23059   0.23134
     Eigenvalues ---    0.23228   0.23471   0.23521   0.23955   0.24371
     Eigenvalues ---    0.24758   0.25000   0.25000   0.25006   0.25519
     Eigenvalues ---    0.28979   0.29042   0.29463   0.29572   0.29634
     Eigenvalues ---    0.29742   0.30233   0.33296   0.33390   0.33444
     Eigenvalues ---    0.33491   0.33632   0.33685   0.33705   0.33746
     Eigenvalues ---    0.33793   0.33911   0.33963   0.34030   0.34047
     Eigenvalues ---    0.34075   0.34101   0.34132   0.34175   0.34184
     Eigenvalues ---    0.34192   0.34204   0.34207   0.34211   0.34222
     Eigenvalues ---    0.34249   0.34271   0.34297   0.34305   0.34326
     Eigenvalues ---    0.34368   0.34632   0.36227   0.41115   0.41350
     Eigenvalues ---    0.41773   0.42303   0.42933   0.49277
 Maximum Force            0.001031     0.000015     NO 
 RMS     Force            0.000258     0.000010     NO 
 Maximum Displacement     0.649149     0.000060     NO 
 RMS     Displacement     0.221431     0.000040     NO 
                          Input orientation:                          
 ---------------------------------------------------------------------
 Center     Atomic      Atomic             Coordinates (Angstroms)
 Number     Number       Type             X           Y           Z
 ---------------------------------------------------------------------
      1          6           0        7.930543    0.722072    1.244319
      2          1           0        8.531147   -0.191040    1.171239
      3          1           0        8.077143    1.304111    0.328275
      4          1           0        8.315209    1.305525    2.088943
      5          6           0        6.447632    0.417875    1.449971
      6          1           0        6.299868   -0.178541    2.364958
      7          1           0        5.887684    1.351281    1.570061
      8          8           0        5.841957   -0.240386    0.342295
      9          6           0        6.169165   -1.612688    0.214893
     10          1           0        6.027814   -2.136097    1.174240
     11          1           0        7.221022   -1.743407   -0.088501
     12          6           0        5.281736   -2.255521   -0.841143
     13          1           0        5.294150   -1.635761   -1.748963
     14          1           0        5.714064   -3.232921   -1.095642
     15          8           0        3.954782   -2.486452   -0.398359
     16          6           0        2.929601   -1.649538   -0.911552
     17          1           0        2.034836   -2.271894   -1.028764
     18          1           0        3.200866   -1.269209   -1.907270
     19          6           0        2.602612   -0.494659    0.042245
     20          1           0        3.474900    0.158680    0.163649
     21          1           0        2.349888   -0.910847    1.023196
     22          8           0        1.462176    0.236945   -0.400393
     23          6           0        1.756206    1.294039   -1.303238
     24          1           0        2.217530    0.902565   -2.226121
     25          1           0        2.467173    1.999861   -0.847504
     26          6           0        0.464785    2.008464   -1.674644
     27          1           0       -0.263290    1.294999   -2.074135
     28          1           0        0.677366    2.731031   -2.470487
     29         16           0       -0.316236    3.027805   -0.363749
     30          6           0       -0.815328    1.800127    0.913336
     31          1           0        0.072812    1.473004    1.458405
     32          1           0       -1.447918    2.382967    1.591099
     33          6           0       -1.560896    0.562268    0.420096
     34          1           0       -1.862526   -0.017754    1.300997
     35          1           0       -0.890017   -0.065218   -0.174800
     36         16           0       -3.060471    0.983520   -0.562402
     37          6           0       -3.859147   -0.670018   -0.580380
     38          1           0       -3.086458   -1.425428   -0.774781
     39          1           0       -4.522452   -0.667300   -1.451136
     40          6           0       -4.637638   -1.047932    0.685970
     41          1           0       -4.872915   -2.119387    0.668710
     42          1           0       -4.028863   -0.874646    1.579063
     43         16           0       -6.186452   -0.104328    0.970092
     44          6           0       -7.345918   -0.964119   -0.171029
     45          1           0       -8.197417   -0.280099   -0.251924
     46          1           0       -6.893631   -1.018411   -1.167981
     47          6           0       -7.809836   -2.342278    0.299641
     48          1           0       -6.972594   -3.042918    0.392157
     49          1           0       -8.301878   -2.277151    1.274980
     50          1           0       -8.520742   -2.770433   -0.418711
 ---------------------------------------------------------------------
 Stoichiometry    C14H30O3S3
 Framework group  C1[X(C14H30O3S3)]
                         Standard orientation:                         
 ---------------------------------------------------------------------
 Center     Atomic      Atomic             Coordinates (Angstroms)
 Number     Number       Type             X           Y           Z
 ---------------------------------------------------------------------
      1          6           0       -7.930337    0.621533   -1.294083
      2          1           0       -8.528990   -0.288178   -1.176265
      3          1           0       -8.077874    1.247285   -0.407481
      4          1           0       -8.316502    1.162255   -2.166019
      5          6           0       -6.446853    0.310763   -1.485264
      6          1           0       -6.298121   -0.329296   -2.370110
      7          1           0       -5.888913    1.238363   -1.651008
      8          8           0       -5.839439   -0.291376   -0.347031
      9          6           0       -6.163710   -1.656505   -0.152657
     10          1           0       -6.021560   -2.225822   -1.085371
     11          1           0       -7.215192   -1.774458    0.157198
     12          6           0       -5.274591   -2.245164    0.933126
     13          1           0       -5.288025   -1.581856    1.809616
     14          1           0       -5.704775   -3.209878    1.235213
     15          8           0       -3.947294   -2.494657    0.501584
     16          6           0       -2.923718   -1.631547    0.972882
     17          1           0       -2.027605   -2.245567    1.119958
     18          1           0       -3.195469   -1.203635    1.948962
     19          6           0       -2.599469   -0.523922   -0.036289
     20          1           0       -3.473172    0.120885   -0.189072
     21          1           0       -2.346179   -0.986969   -0.995861
     22          8           0       -1.460439    0.230801    0.369631
     23          6           0       -1.756411    1.330089    1.219923
     24          1           0       -2.216615    0.983166    2.161009
     25          1           0       -2.469011    2.011335    0.730578
     26          6           0       -0.466384    2.064492    1.555470
     27          1           0        0.263323    1.372903    1.989005
     28          1           0       -0.680236    2.824599    2.315183
     29         16           0        0.312069    3.020260    0.196053
     30          6           0        0.813345    1.732752   -1.019793
     31          1           0       -0.074277    1.377555   -1.547871
     32          1           0        1.444489    2.283135   -1.725463
     33          6           0        1.561679    0.522007   -0.467030
     34          1           0        1.864253   -0.099690   -1.318695
     35          1           0        0.892315   -0.077093    0.158068
     36         16           0        3.060674    0.993853    0.493104
     37          6           0        3.862843   -0.655162    0.591439
     38          1           0        3.091811   -1.401796    0.822808
     39          1           0        4.526417   -0.608554    1.460746
     40          6           0        4.641728   -1.092811   -0.655281
     41          1           0        4.879269   -2.161652   -0.585839
     42          1           0        4.032305   -0.964601   -1.555513
     43         16           0        6.188456   -0.160963   -0.985776
     44          6           0        7.350097   -0.961599    0.195467
     45          1           0        8.200176   -0.272667    0.242519
     46          1           0        6.898242   -0.968108    1.194071
     47          6           0        7.816772   -2.360118   -0.207565
     48          1           0        6.980980   -3.066188   -0.265418
     49          1           0        8.308365   -2.341649   -1.185126
     50          1           0        8.528808   -2.751209    0.530532
 ---------------------------------------------------------------------
 Standard basis: 6-31G(d) (6D, 7F)
   372 basis functions,   752 primitive gaussians,   372 cartesian basis functions
    93 alpha electrons       93 beta electrons
 Requested convergence on RMS density matrix=1.00D-08 within  64 cycles.
 Requested convergence on MAX density matrix=1.00D-06.
 Requested convergence on             energy=1.00D-06.
 SCF Done:  E(RB3LYP) =  -1971.74895620     A.U. after   11 cycles
            NFock= 11  Conv=0.43D-08     -V/T= 2.0058
 Step number   5 out of a maximum of   55
     Eigenvalues ---    0.00137   0.00230   0.00230   0.00231   0.00300
     Eigenvalues ---    0.00309   0.00368   0.00390   0.00402   0.00418
     Eigenvalues ---    0.00450   0.00581   0.01206   0.01330   0.01366
     Eigenvalues ---    0.01417   0.01461   0.01683   0.01829   0.03927
     Eigenvalues ---    0.04231   0.04260   0.04390   0.04585   0.04681
     Eigenvalues ---    0.04768   0.04860   0.04971   0.05149   0.05246
     Eigenvalues ---    0.05462   0.05477   0.05523   0.05558   0.05577
     Eigenvalues ---    0.05602   0.05674   0.05681   0.05739   0.05750
     Eigenvalues ---    0.05822   0.05856   0.05906   0.05977   0.06047
     Eigenvalues ---    0.06115   0.06357   0.11061   0.11240   0.11273
     Eigenvalues ---    0.11488   0.11563   0.11688   0.11781   0.11795
     Eigenvalues ---    0.11815   0.11858   0.11865   0.11937   0.13263
     Eigenvalues ---    0.13770   0.13771   0.13882   0.13888   0.13960
     Eigenvalues ---    0.14057   0.14060   0.14084   0.14093   0.14150
     Eigenvalues ---    0.14625   0.15959   0.16000   0.16000   0.16000
     Eigenvalues ---    0.16000   0.16002   0.18414   0.22018   0.22022
     Eigenvalues ---    0.22041   0.22050   0.22050   0.22058   0.22068
     Eigenvalues ---    0.22080   0.22156   0.22887   0.23058   0.23173
     Eigenvalues ---    0.23234   0.23471   0.23525   0.23914   0.24383
     Eigenvalues ---    0.24878   0.25000   0.25005   0.25377   0.29000
     Eigenvalues ---    0.29020   0.29427   0.29571   0.29634   0.29728
     Eigenvalues ---    0.29796   0.33291   0.33385   0.33436   0.33466
     Eigenvalues ---    0.33528   0.33632   0.33687   0.33763   0.33802
     Eigenvalues ---    0.33907   0.33950   0.33964   0.34045   0.34058
     Eigenvalues ---    0.34101   0.34104   0.34132   0.34175   0.34183
     Eigenvalues ---    0.34192   0.34204   0.34207   0.34211   0.34222
     Eigenvalues ---    0.34251   0.34270   0.34297   0.34305   0.34327
     Eigenvalues ---    0.34554   0.36464   0.37321   0.41115   0.41335
     Eigenvalues ---    0.41772   0.42332   0.42942   0.49535
 Maximum Force            0.008478     0.000015     NO 
 RMS     Force            0.000879     0.000010     NO 
 Maximum Displacement     0.698335     0.000060     NO 
 RMS     Displacement     0.229263     0.000040     NO 
                          Input orientation:                          
 ---------------------------------------------------------------------
 Center     Atomic      Atomic             Coordinates (Angstroms)
 Number     Number       Type             X           Y           Z
 ---------------------------------------------------------------------
      1          6           0        8.075320    0.912473    1.184467
      2          1           0        8.718012    0.029283    1.102257
      3          1           0        8.176265    1.497864    0.264397
      4          1           0        8.447059    1.516703    2.020221
      5          6           0        6.613010    0.537586    1.418915
      6          1           0        6.511609   -0.062692    2.337682
      7          1           0        6.011021    1.443219    1.547933
      8          8           0        6.018926   -0.152267    0.324264
      9          6           0        6.409858   -1.507412    0.193011
     10          1           0        6.311962   -2.034645    1.155689
     11          1           0        7.461171   -1.587342   -0.129324
     12          6           0        5.535959   -2.195733   -0.845564
     13          1           0        5.501962   -1.579001   -1.754915
     14          1           0        6.012039   -3.151041   -1.105799
     15          8           0        4.230406   -2.491721   -0.379480
     16          6           0        3.155140   -1.709243   -0.874931
     17          1           0        2.292036   -2.377080   -0.978718
     18          1           0        3.389756   -1.314874   -1.874486
     19          6           0        2.782654   -0.573535    0.085225
     20          1           0        3.620725    0.125371    0.193027
     21          1           0        2.568619   -1.002913    1.069689
     22          8           0        1.597620    0.096315   -0.337704
     23          6           0        1.819960    1.167431   -1.244383
     24          1           0        2.286846    0.800110   -2.174360
     25          1           0        2.500107    1.909910   -0.799959
     26          6           0        0.487958    1.813901   -1.597656
     27          1           0       -0.207558    1.065487   -1.991396
     28          1           0        0.656035    2.547396   -2.394204
     29         16           0       -0.329181    2.795245   -0.279393
     30          6           0       -0.877298    1.533960    0.943733
     31          1           0       -0.000856    1.124490    1.450540
     32          1           0       -1.458565    2.118066    1.664999
     33          6           0       -1.710225    0.373368    0.404580
     34          1           0       -2.027027   -0.235410    1.260505
     35          1           0       -1.094238   -0.259875   -0.241124
     36         16           0       -3.203035    0.939640   -0.513333
     37          6           0       -4.098308   -0.661082   -0.607203
     38          1           0       -3.373735   -1.448497   -0.853090
     39          1           0       -4.771393   -0.573443   -1.465946
     40          6           0       -4.881169   -1.059421    0.650076
     41          1           0       -5.179264   -2.113082    0.581735
     42          1           0       -4.251824   -0.968071    1.541048
     43         16           0       -6.368861   -0.043909    1.004790
     44          6           0       -7.590386   -0.781351   -0.157105
     45          1           0       -8.398149   -0.043100   -0.201170
     46          1           0       -7.150602   -0.822831   -1.160273
     47          6           0       -8.135117   -2.146289    0.262802
     48          1           0       -7.342137   -2.900380    0.317570
     49          1           0       -8.613348   -2.090846    1.245572
     50          1           0       -8.877718   -2.499978   -0.463984
 ---------------------------------------------------------------------
 Stoichiometry    C14H30O3S3
 Framework group  C1[X(C14H30O3S3)]
                         Standard orientation:                         
 ---------------------------------------------------------------------
 Center     Atomic      Atomic             Coordinates (Angstroms)
 Number     Number       Type             X           Y           Z
 ---------------------------------------------------------------------
      1          6           0       -8.075716    0.902148   -1.207721
      2          1           0       -8.717899    0.018747   -1.123834
      3          1           0       -8.178985    1.490568   -0.289844
      4          1           0       -8.446209    1.503262   -2.046270
      5          6           0       -6.612644    0.527597   -1.437918
      6          1           0       -6.508910   -0.075705   -2.354441
      7          1           0       -6.011085    1.433253   -1.568771
      8          8           0       -6.020270   -0.158094   -0.339732
      9          6           0       -6.410433   -1.513088   -0.204693
     10          1           0       -6.310171   -2.043497   -1.165381
     11          1           0       -7.462342   -1.592737    0.115767
     12          6           0       -5.538131   -2.197221    0.837983
     13          1           0       -5.506461   -1.577392    1.745310
     14          1           0       -6.014011   -3.152010    1.100476
     15          8           0       -4.231404   -2.493776    0.375565
     16          6           0       -3.157749   -1.708801    0.870558
     17          1           0       -2.294349   -2.375617    0.978362
     18          1           0       -3.394705   -1.311236    1.868292
     19          6           0       -2.784171   -0.576058   -0.092673
     20          1           0       -3.622553    0.121834   -0.204546
     21          1           0       -2.567800   -1.008596   -1.075241
     22          8           0       -1.600515    0.096131    0.330403
     23          6           0       -1.825523    1.170134    1.232999
     24          1           0       -2.294025    0.805600    2.163259
     25          1           0       -2.505328    1.910583    0.784681
     26          6           0       -0.494739    1.818820    1.586798
     27          1           0        0.200544    1.072278    1.984484
     28          1           0       -0.665001    2.554875    2.380517
     29         16           0        0.324340    2.796331    0.266892
     30          6           0        0.875915    1.531341   -0.950842
     31          1           0        0.000823    1.119485   -1.458046
     32          1           0        1.458207    2.113454   -1.672893
     33          6           0        1.708626    0.373221   -0.406070
     34          1           0        2.027639   -0.238202   -1.259283
     35          1           0        1.091806   -0.258310    0.240516
     36         16           0        3.199126    0.943743    0.512964
     37          6           0        4.095428   -0.655963    0.614072
     38          1           0        3.370956   -1.443099    0.861143
     39          1           0        4.766692   -0.564902    1.473884
     40          6           0        4.881158   -1.057947   -0.640254
     41          1           0        5.179916   -2.111140   -0.567742
     42          1           0        4.253562   -0.970094   -1.532810
     43         16           0        6.368795   -0.042494   -0.995367
     44          6           0        7.588508   -0.775063    0.171503
     45          1           0        8.395615   -0.036044    0.214717
     46          1           0        7.146709   -0.813489    1.173907
     47          6           0        8.135137   -2.140992   -0.242674
     48          1           0        7.342846   -2.895874   -0.296508
     49          1           0        8.615330   -2.088503   -1.224649
     50          1           0        8.876523   -2.491650    0.486816
 ---------------------------------------------------------------------
 Standard basis: 6-31G(d) (6D, 7F)
   372 basis functions,   752 primitive gaussians,   372 cartesian basis functions
    93 alpha electrons       93 beta electrons
 Requested convergence on RMS density matrix=1.00D-08 within  64 cycles.
 Requested convergence on MAX density matrix=1.00D-06.
 Requested convergence on             energy=1.00D-06.
 SCF Done:  E(RB3LYP) =  -1971.74938073     A.U. after   11 cycles
            NFock= 11  Conv=0.55D-08     -V/T= 2.0058
 Step number   6 out of a maximum of   55
     Eigenvalues ---    0.00200   0.00230   0.00231   0.00238   0.00304
     Eigenvalues ---    0.00312   0.00387   0.00393   0.00405   0.00420
     Eigenvalues ---    0.00457   0.00638   0.01184   0.01331   0.01367
     Eigenvalues ---    0.01416   0.01459   0.01628   0.01747   0.04146
     Eigenvalues ---    0.04234   0.04278   0.04433   0.04652   0.04681
     Eigenvalues ---    0.04763   0.04869   0.05089   0.05133   0.05385
     Eigenvalues ---    0.05456   0.05477   0.05522   0.05557   0.05575
     Eigenvalues ---    0.05600   0.05673   0.05676   0.05739   0.05762
     Eigenvalues ---    0.05838   0.05873   0.05906   0.06029   0.06103
     Eigenvalues ---    0.06126   0.06415   0.11155   0.11243   0.11277
     Eigenvalues ---    0.11492   0.11592   0.11764   0.11788   0.11808
     Eigenvalues ---    0.11856   0.11881   0.11954   0.12102   0.13190
     Eigenvalues ---    0.13781   0.13796   0.13883   0.13903   0.13987
     Eigenvalues ---    0.14057   0.14058   0.14083   0.14126   0.14149
     Eigenvalues ---    0.14612   0.15982   0.16000   0.16000   0.16000
     Eigenvalues ---    0.16000   0.16008   0.19104   0.22019   0.22022
     Eigenvalues ---    0.22042   0.22050   0.22053   0.22058   0.22066
     Eigenvalues ---    0.22137   0.22363   0.23030   0.23059   0.23166
     Eigenvalues ---    0.23237   0.23466   0.23513   0.23999   0.24410
     Eigenvalues ---    0.24962   0.25000   0.25033   0.25744   0.28922
     Eigenvalues ---    0.29037   0.29339   0.29572   0.29633   0.29709
     Eigenvalues ---    0.29783   0.33039   0.33291   0.33394   0.33447
     Eigenvalues ---    0.33510   0.33630   0.33687   0.33724   0.33850
     Eigenvalues ---    0.33896   0.33932   0.33964   0.34020   0.34053
     Eigenvalues ---    0.34101   0.34113   0.34130   0.34175   0.34181
     Eigenvalues ---    0.34193   0.34203   0.34206   0.34211   0.34222
     Eigenvalues ---    0.34254   0.34270   0.34296   0.34305   0.34333
     Eigenvalues ---    0.34541   0.35814   0.37146   0.41133   0.41409
     Eigenvalues ---    0.41773   0.42294   0.42956   0.48636
 Maximum Force            0.000944     0.000015     NO 
 RMS     Force            0.000157     0.000010     NO 
 Maximum Displacement     0.091708     0.000060     NO 
 RMS     Displacement     0.027934     0.000040     NO 
                          Input orientation:                          
 ---------------------------------------------------------------------
 Center     Atomic      Atomic             Coordinates (Angstroms)
 Number     Number       Type             X           Y           Z
 ---------------------------------------------------------------------
      1          6           0        8.038131    0.912036    1.177899
      2          1           0        8.681303    0.028286    1.106211
      3          1           0        8.144021    1.490093    0.253748
      4          1           0        8.405327    1.522943    2.010799
      5          6           0        6.574553    0.538996    1.407510
      6          1           0        6.468066   -0.053352    2.330861
      7          1           0        5.971727    1.445625    1.525280
      8          8           0        5.986483   -0.160246    0.315523
      9          6           0        6.378018   -1.516608    0.198185
     10          1           0        6.273778   -2.035616    1.164728
     11          1           0        7.431037   -1.599973   -0.117533
     12          6           0        5.509651   -2.212576   -0.840544
     13          1           0        5.481414   -1.602393   -1.754726
     14          1           0        5.984085   -3.171641   -1.090567
     15          8           0        4.200187   -2.501371   -0.379004
     16          6           0        3.131043   -1.710537   -0.876595
     17          1           0        2.264032   -2.373289   -0.982630
     18          1           0        3.371508   -1.316706   -1.875166
     19          6           0        2.766106   -0.572760    0.084708
     20          1           0        3.609145    0.119744    0.193194
     21          1           0        2.548258   -1.000980    1.068969
     22          8           0        1.586460    0.106182   -0.338780
     23          6           0        1.817064    1.175487   -1.245224
     24          1           0        2.282692    0.806454   -2.175184
     25          1           0        2.501142    1.913064   -0.798675
     26          6           0        0.488764    1.829971   -1.597151
     27          1           0       -0.213119    1.085750   -1.987056
     28          1           0        0.657626    2.562097   -2.394838
     29         16           0       -0.318504    2.811015   -0.273577
     30          6           0       -0.865952    1.548514    0.950051
     31          1           0        0.010439    1.144874    1.462333
     32          1           0       -1.453803    2.130134    1.667919
     33          6           0       -1.690578    0.381544    0.411870
     34          1           0       -2.013871   -0.221241    1.269507
     35          1           0       -1.066292   -0.254495   -0.222894
     36         16           0       -3.177810    0.935881   -0.522711
     37          6           0       -4.067263   -0.668697   -0.612844
     38          1           0       -3.342251   -1.452948   -0.867456
     39          1           0       -4.747943   -0.580265   -1.465464
     40          6           0       -4.839678   -1.072306    0.649499
     41          1           0       -5.138248   -2.125586    0.579738
     42          1           0       -4.203294   -0.984872    1.535695
     43         16           0       -6.325505   -0.058687    1.019089
     44          6           0       -7.550274   -0.780657   -0.149703
     45          1           0       -8.356369   -0.040134   -0.183944
     46          1           0       -7.112238   -0.811467   -1.154045
     47          6           0       -8.098942   -2.148502    0.255663
     48          1           0       -7.308437   -2.905618    0.302560
     49          1           0       -8.577246   -2.101999    1.238878
     50          1           0       -8.842403   -2.492409   -0.474879
 ---------------------------------------------------------------------
 Stoichiometry    C14H30O3S3
 Framework group  C1[X(C14H30O3S3)]
                         Standard orientation:                         
 ---------------------------------------------------------------------
 Center     Atomic      Atomic             Coordinates (Angstroms)
 Number     Number       Type             X           Y           Z
 ---------------------------------------------------------------------
      1          6           0       -8.034684    0.898338   -1.204634
      2          1           0       -8.677021    0.014153   -1.130856
      3          1           0       -8.143502    1.480099   -0.283151
      4          1           0       -8.400530    1.505364   -2.040958
      5          6           0       -6.570121    0.526034   -1.429108
      6          1           0       -6.460693   -0.070015   -2.349729
      7          1           0       -5.968042    1.432860   -1.549160
      8          8           0       -5.983938   -0.167998   -0.332792
      9          6           0       -6.374212   -1.524311   -0.210787
     10          1           0       -6.267007   -2.047202   -1.174910
     11          1           0       -7.427908   -1.607578    0.102692
     12          6           0       -5.507605   -2.214967    0.832945
     13          1           0       -5.482308   -1.600967    1.744654
     14          1           0       -5.981558   -3.173533    1.085782
     15          8           0       -4.196684   -2.504166    0.375817
     16          6           0       -3.129667   -1.710047    0.872742
     17          1           0       -2.262164   -2.371355    0.983650
     18          1           0       -3.373032   -1.312356    1.869078
     19          6           0       -2.763668   -0.575846   -0.092376
     20          1           0       -3.607228    0.115232   -0.205799
     21          1           0       -2.542917   -1.007892   -1.074315
     22          8           0       -1.585841    0.106203    0.331181
     23          6           0       -1.819890    1.178991    1.232613
     24          1           0       -2.287379    0.813281    2.162953
     25          1           0       -2.503710    1.913923    0.781333
     26          6           0       -0.493205    1.836457    1.585076
     27          1           0        0.208567    1.094666    1.979784
     28          1           0       -0.664860    2.571689    2.379302
[...]
     18          1           0        3.688365   -1.218965   -1.257492
     19          6           0        2.688907   -0.888150    0.646827
     20          1           0        3.485171   -0.236111    1.030281
     21          1           0        2.318530   -1.504001    1.472667
     22          8           0        1.580733   -0.122898    0.187548
     23          6           0        1.930483    1.049158   -0.535637
     24          1           0        2.456822    0.790210   -1.469497
     25          1           0        2.604695    1.679637    0.064321
     26          6           0        0.663372    1.815284   -0.888434
     27          1           0       -0.037123    1.169770   -1.427966
     28          1           0        0.925468    2.638550   -1.562393
     29         16           0       -0.203957    2.648706    0.497178
     30          6           0       -0.906502    1.262740    1.485539
     31          1           0       -0.095563    0.751706    2.009671
     32          1           0       -1.534035    1.771874    2.224581
     33          6           0       -1.721933    0.219004    0.725768
     34          1           0       -2.145347   -0.473685    1.463450
     35          1           0       -1.066276   -0.358196    0.066844
     36         16           0       -3.094832    0.964522   -0.250001
     37          6           0       -4.021861   -0.570242   -0.649377
     38          1           0       -3.300092   -1.345757   -0.937523
     39          1           0       -4.606416   -0.335507   -1.544527
     40          6           0       -4.934932   -1.104312    0.461483
     41          1           0       -5.258890   -2.123289    0.216308
     42          1           0       -4.392687   -1.167627    1.410078
     43         16           0       -6.417876   -0.081666    0.818826
     44          6           0       -7.538320   -0.587439   -0.551090
     45          1           0       -8.314783    0.184804   -0.560888
     46          1           0       -7.001462   -0.502047   -1.502905
     47          6           0       -8.165079   -1.972487   -0.392699
     48          1           0       -7.405924   -2.762154   -0.371928
     49          1           0       -8.741089   -2.036848    0.535589
     50          1           0       -8.838548   -2.184086   -1.233157
 ---------------------------------------------------------------------
 Stoichiometry    C14H30O3S3
 Framework group  C1[X(C14H30O3S3)]
                         Standard orientation:                         
 ---------------------------------------------------------------------
 Center     Atomic      Atomic             Coordinates (Angstroms)
 Number     Number       Type             X           Y           Z
 ---------------------------------------------------------------------
      1          6           0       -7.892666    1.245354    0.295275
      2          1           0       -8.606964    0.467181    0.005638
      3          1           0       -7.845811    1.278871    1.388860
      4          1           0       -8.284195    2.204565   -0.062999
      5          6           0       -6.503538    0.995790   -0.289185
      6          1           0       -6.549120    0.954157   -1.389522
      7          1           0       -5.831635    1.817087   -0.017990
      8          8           0       -5.878057   -0.180997    0.214432
      9          6           0       -6.365900   -1.393103   -0.336955
     10          1           0       -6.291359   -1.372927   -1.436481
     11          1           0       -7.423782   -1.555927   -0.072324
     12          6           0       -5.549081   -2.558263    0.205485
     13          1           0       -5.556961   -2.525645    1.305405
     14          1           0       -6.034489   -3.490608   -0.107273
     15          8           0       -4.224953   -2.622702   -0.291286
     16          6           0       -3.251061   -1.813339    0.363032
     17          1           0       -2.441089   -2.463366    0.721172
     18          1           0       -3.687153   -1.298234    1.225743
     19          6           0       -2.678196   -0.806400   -0.638362
     20          1           0       -3.472913   -0.124272   -0.969048
     21          1           0       -2.303205   -1.349682   -1.511684
     22          8           0       -1.572879   -0.082759   -0.109952
     23          6           0       -1.927080    1.023450    0.708510
     24          1           0       -2.458014    0.685883    1.614235
     25          1           0       -2.598628    1.702541    0.160902
     26          6           0       -0.662285    1.757054    1.131718
     27          1           0        0.035864    1.068129    1.617976
     28          1           0       -0.928355    2.519944    1.871912
     29         16           0        0.211569    2.705518   -0.173491
     30          6           0        0.920053    1.408809   -1.272546
     31          1           0        0.112134    0.944045   -1.842418
     32          1           0        1.551022    1.979103   -1.962359
     33          6           0        1.732271    0.304394   -0.600136
     34          1           0        2.159897   -0.322937   -1.391884
     35          1           0        1.073631   -0.326909    0.003914
     36         16           0        3.099683    0.964489    0.442568
     37          6           0        4.025656   -0.598490    0.714695
     38          1           0        3.302929   -1.395861    0.932106
     39          1           0        4.605479   -0.440635    1.629565
     40          6           0        4.944736   -1.035926   -0.432859
     41          1           0        5.268099   -2.071997   -0.273595
     42          1           0        4.407385   -1.018425   -1.386179
     43         16           0        6.428821    0.013729   -0.694275
     44          6           0        7.542581   -0.606516    0.633395
     45          1           0        8.318483    0.162259    0.712847
     46          1           0        7.000813   -0.602522    1.586248
     47          6           0        8.171041   -1.972934    0.360977
     48          1           0        7.412515   -2.758133    0.269198
     49          1           0        8.751827   -1.957967   -0.566446
     50          1           0        8.840345   -2.255123    1.183841
 ---------------------------------------------------------------------
 Standard basis: 6-31G(d) (6D, 7F)
   372 basis functions,   752 primitive gaussians,   372 cartesian basis functions
    93 alpha electrons       93 beta electrons
 Requested convergence on RMS density matrix=1.00D-08 within  64 cycles.
 Requested convergence on MAX density matrix=1.00D-06.
 Requested convergence on             energy=1.00D-06.
 SCF Done:  E(RB3LYP) =  -1971.75009258     A.U. after    4 cycles
            NFock=  4  Conv=0.35D-08     -V/T= 2.0058
 Step number  40 out of a maximum of   55
     Eigenvalues ---    0.00095   0.00198   0.00242   0.00285   0.00315
     Eigenvalues ---    0.00339   0.00367   0.00389   0.00427   0.00463
     Eigenvalues ---    0.00493   0.00607   0.00634   0.00708   0.00740
     Eigenvalues ---    0.00879   0.01053   0.01411   0.01546   0.04322
     Eigenvalues ---    0.04387   0.04559   0.04664   0.04711   0.04846
     Eigenvalues ---    0.04899   0.04948   0.05081   0.05314   0.05440
     Eigenvalues ---    0.05471   0.05512   0.05544   0.05585   0.05600
     Eigenvalues ---    0.05642   0.05659   0.05694   0.05776   0.05801
     Eigenvalues ---    0.05864   0.05902   0.05970   0.06041   0.06085
     Eigenvalues ---    0.06172   0.06612   0.11052   0.11252   0.11330
     Eigenvalues ---    0.11417   0.11456   0.11648   0.11790   0.11807
     Eigenvalues ---    0.11842   0.11867   0.11936   0.12040   0.12661
     Eigenvalues ---    0.13004   0.13546   0.13697   0.13757   0.13905
     Eigenvalues ---    0.13986   0.14056   0.14115   0.14278   0.14734
     Eigenvalues ---    0.14851   0.15840   0.15986   0.15999   0.16002
     Eigenvalues ---    0.16019   0.16085   0.19854   0.20662   0.20923
     Eigenvalues ---    0.21451   0.21862   0.22154   0.22261   0.22314
     Eigenvalues ---    0.22771   0.22840   0.23058   0.23162   0.23307
     Eigenvalues ---    0.23498   0.23702   0.23886   0.24213   0.24622
     Eigenvalues ---    0.25180   0.26585   0.26675   0.27341   0.29082
     Eigenvalues ---    0.29517   0.29629   0.29771   0.29840   0.29952
     Eigenvalues ---    0.30477   0.33041   0.33336   0.33381   0.33430
     Eigenvalues ---    0.33538   0.33642   0.33777   0.33840   0.33920
     Eigenvalues ---    0.33967   0.34023   0.34055   0.34098   0.34102
     Eigenvalues ---    0.34136   0.34174   0.34183   0.34195   0.34204
     Eigenvalues ---    0.34212   0.34220   0.34233   0.34267   0.34301
     Eigenvalues ---    0.34302   0.34342   0.34396   0.34441   0.34680
     Eigenvalues ---    0.34710   0.35251   0.37964   0.40758   0.42013
     Eigenvalues ---    0.42237   0.42528   0.43163   0.49772
 Maximum Force            0.000000     0.000015     YES
 RMS     Force            0.000000     0.000010     YES
 Maximum Displacement     0.000056     0.000060     YES
 RMS     Displacement     0.000021     0.000040     YES
 Optimization completed.
    -- Stationary point found.
                          Input orientation:                          
 ---------------------------------------------------------------------
 Center     Atomic      Atomic             Coordinates (Angstroms)
 Number     Number       Type             X           Y           Z
 ---------------------------------------------------------------------
      1          6           0        7.898069    1.238977   -0.135500
      2          1           0        8.614013    0.439450    0.083233
      3          1           0        7.845581    1.365375   -1.222015
      4          1           0        8.291232    2.164487    0.301074
      5          6           0        6.512019    0.939696    0.432698
      6          1           0        6.563270    0.804635    1.525257
      7          1           0        5.838555    1.780649    0.235793
      8          8           0        5.884206   -0.190389   -0.166005
      9          6           0        6.375136   -1.444690    0.277766
     10          1           0        6.306249   -1.518174    1.375389
     11          1           0        7.431677   -1.583725   -0.005158
     12          6           0        5.555786   -2.560011   -0.357652
     13          1           0        5.558000   -2.433934   -1.450835
     14          1           0        6.042995   -3.515267   -0.127829
     15          8           0        4.234244   -2.667337    0.138593
     16          6           0        3.256827   -1.805878   -0.439514
     17          1           0        2.445161   -2.423606   -0.847513
     18          1           0        3.688365   -1.218965   -1.257492
     19          6           0        2.688907   -0.888150    0.646827
     20          1           0        3.485171   -0.236111    1.030281
     21          1           0        2.318530   -1.504001    1.472667
     22          8           0        1.580733   -0.122898    0.187548
     23          6           0        1.930483    1.049158   -0.535637
     24          1           0        2.456822    0.790210   -1.469497
     25          1           0        2.604695    1.679637    0.064321
     26          6           0        0.663372    1.815284   -0.888434
     27          1           0       -0.037123    1.169770   -1.427966
     28          1           0        0.925468    2.638550   -1.562393
     29         16           0       -0.203957    2.648706    0.497178
     30          6           0       -0.906502    1.262740    1.485539
     31          1           0       -0.095563    0.751706    2.009671
     32          1           0       -1.534035    1.771874    2.224581
     33          6           0       -1.721933    0.219004    0.725768
     34          1           0       -2.145347   -0.473685    1.463450
     35          1           0       -1.066276   -0.358196    0.066844
     36         16           0       -3.094832    0.964522   -0.250001
     37          6           0       -4.021861   -0.570242   -0.649377
     38          1           0       -3.300092   -1.345757   -0.937523
     39          1           0       -4.606416   -0.335507   -1.544527
     40          6           0       -4.934932   -1.104312    0.461483
     41          1           0       -5.258890   -2.123289    0.216308
     42          1           0       -4.392687   -1.167627    1.410078
     43         16           0       -6.417876   -0.081666    0.818826
     44          6           0       -7.538320   -0.587439   -0.551090
     45          1           0       -8.314783    0.184804   -0.560888
     46          1           0       -7.001462   -0.502047   -1.502905
     47          6           0       -8.165079   -1.972487   -0.392699
     48          1           0       -7.405924   -2.762154   -0.371928
     49          1           0       -8.741089   -2.036848    0.535589
     50          1           0       -8.838548   -2.184086   -1.233157
 ---------------------------------------------------------------------
 Stoichiometry    C14H30O3S3
 Framework group  C1[X(C14H30O3S3)]
                         Standard orientation:                         
 ---------------------------------------------------------------------
 Center     Atomic      Atomic             Coordinates (Angstroms)
 Number     Number       Type             X           Y           Z
 ---------------------------------------------------------------------
      1          6           0       -7.892666    1.245354    0.295275
      2          1           0       -8.606964    0.467181    0.005638
      3          1           0       -7.845811    1.278871    1.388860
      4          1           0       -8.284195    2.204565   -0.062999
      5          6           0       -6.503538    0.995790   -0.289185
      6          1           0       -6.549120    0.954157   -1.389522
      7          1           0       -5.831635    1.817087   -0.017990
      8          8           0       -5.878057   -0.180997    0.214432
      9          6           0       -6.365900   -1.393103   -0.336955
     10          1           0       -6.291359   -1.372927   -1.436481
     11          1           0       -7.423782   -1.555927   -0.072324
     12          6           0       -5.549081   -2.558263    0.205485
     13          1           0       -5.556961   -2.525645    1.305405
     14          1           0       -6.034489   -3.490608   -0.107273
     15          8           0       -4.224953   -2.622702   -0.291286
     16          6           0       -3.251061   -1.813339    0.363032
     17          1           0       -2.441089   -2.463366    0.721172
     18          1           0       -3.687153   -1.298234    1.225743
     19          6           0       -2.678196   -0.806400   -0.638362
     20          1           0       -3.472913   -0.124272   -0.969048
     21          1           0       -2.303205   -1.349682   -1.511684
     22          8           0       -1.572879   -0.082759   -0.109952
     23          6           0       -1.927080    1.023450    0.708510
     24          1           0       -2.458014    0.685883    1.614235
     25          1           0       -2.598628    1.702541    0.160902
     26          6           0       -0.662285    1.757054    1.131718
     27          1           0        0.035864    1.068129    1.617976
     28          1           0       -0.928355    2.519944    1.871912
     29         16           0        0.211569    2.705518   -0.173491
     30          6           0        0.920053    1.408809   -1.272546
     31          1           0        0.112134    0.944045   -1.842418
     32          1           0        1.551022    1.979103   -1.962359
     33          6           0        1.732271    0.304394   -0.600136
     34          1           0        2.159897   -0.322937   -1.391884
     35          1           0        1.073631   -0.326909    0.003914
     36         16           0        3.099683    0.964489    0.442568
     37          6           0        4.025656   -0.598490    0.714695
     38          1           0        3.302929   -1.395861    0.932106
     39          1           0        4.605479   -0.440635    1.629565
     40          6           0        4.944736   -1.035926   -0.432859
     41          1           0        5.268099   -2.071997   -0.273595
     42          1           0        4.407385   -1.018425   -1.386179
     43         16           0        6.428821    0.013729   -0.694275
     44          6           0        7.542581   -0.606516    0.633395
     45          1           0        8.318483    0.162259    0.712847
     46          1           0        7.000813   -0.602522    1.586248
     47          6           0        8.171041   -1.972934    0.360977
     48          1           0        7.412515   -2.758133    0.269198
     49          1           0        8.751827   -1.957967   -0.566446
     50          1           0        8.840345   -2.255123    1.183841
 ---------------------------------------------------------------------
 Mulliken charges:
     1  C   -0.461702
     2  H    0.151643
     3  H    0.159070
     4  H    0.148677
     5  C   -0.016777
     6  H    0.125417
     7  H    0.146983
     8  O   -0.475132
     9  C   -0.023806
    10  H    0.130854
    11  H    0.120097
    12  C   -0.045207
    13  H    0.137086
    14  H    0.144702
    15  O   -0.477494
    16  C   -0.035997
    17  H    0.136567
    18  H    0.143422
    19  C   -0.039430
    20  H    0.139650
    21  H    0.148316
    22  O   -0.478769
    23  C   -0.004202
    24  H    0.127845
    25  H    0.138237
    26  C   -0.442588
    27  H    0.193097
    28  H    0.175759
    29  S    0.088958
    30  C   -0.410198
    31  H    0.189739
    32  H    0.182690
    33  C   -0.415655
    34  H    0.164710
    35  H    0.187502
    36  S    0.122662
    37  C   -0.416269
    38  H    0.164713
    39  H    0.178261
    40  C   -0.411530
    41  H    0.167910
    42  H    0.179886
    43  S    0.103029
    44  C   -0.413510
    45  H    0.177713
    46  H    0.166126
    47  C   -0.433365
    48  H    0.149326
    49  H    0.164106
    50  H    0.146877
 Sum of Mulliken charges =  -0.00000
 Dipole moment (field-independent basis, Debye):
    X=             -3.8648    Y=             -3.0755    Z=              1.2218  Tot=              5.0881
 Quadrupole moment (field-independent basis, Debye-Ang):
   XX=           -119.8570   YY=           -154.0535   ZZ=           -144.0038
   XY=            -15.3502   XZ=              7.7146   YZ=             -1.3160
 Traceless Quadrupole moment (field-independent basis, Debye-Ang):
   XX=             19.4478   YY=            -14.7487   ZZ=             -4.6990
   XY=            -15.3502   XZ=              7.7146   YZ=             -1.3160
 Octapole moment (field-independent basis, Debye-Ang**2):
  XXX=           -186.8538  YYY=            -27.7745  ZZZ=              0.1011  XYY=            -31.9951
  XXY=            -61.7116  XXZ=             56.1107  XZZ=            -19.4758  YZZ=              0.2825
  YYZ=              9.2526  XYZ=             -2.9444
 Hexadecapole moment (field-independent basis, Debye-Ang**3):
 XXXX=         -18751.8120 YYYY=          -2311.4310 ZZZZ=           -567.8466 XXXY=           -148.5179
 XXXZ=            641.5883 YYYX=             -4.0200 YYYZ=              3.0022 ZZZX=              9.7699
 ZZZY=              1.9626 XXYY=          -3745.2077 XXZZ=          -3612.0477 YYZZ=           -453.5707
 XXYZ=            -53.5576 YYXZ=            -35.6753 ZZXY=             15.3893
 Job cpu time:       0 days 10 hours 32 minutes 58.2 seconds.
 Normal termination of Gaussian 16 at Sun Jul  9 08:11:18 2023.
