 Copyright (c) 1988-2019, Gaussian, Inc.  All Rights Reserved.
  
 This is part of the Gaussian(R) 16 program.  It is based on
 the Gaussian(R) 09 system (copyright 2009, Gaussian, Inc.),
 the Gaussian(R) 03 system (copyright 2003, Gaussian, Inc.),
 the Gaussian(R) 98 system (copyright 1998, Gaussian, Inc.),
 the Gaussian(R) 94 system (copyright 1995, Gaussian, Inc.),
 the Gaussian 92(TM) system (copyright 1992, Gaussian, Inc.),
 the Gaussian 90(TM) system (copyright 1990, Gaussian, Inc.),
 the Gaussian 88(TM) system (copyright 1988, Gaussian, Inc.),
 the Gaussian 86(TM) system (copyright 1986, Carnegie Mellon
 University), and the Gaussian 82(TM) system (copyright 1983,
 Carnegie Mellon University). Gaussian is a federally registered
 trademark of Gaussian, Inc.
 Cite this work as:
 Gaussian 16, Revision C.01,
 M. J. Frisch, G. W. Trucks, H. B. Schlegel, G. E. Scuseria, 
 M. A. Robb, J. R. Cheeseman, G. Scalmani, V. Barone, 
 G. A. Petersson, H. Nakatsuji, X. Li, M. Caricato, A. V. Marenich, 
 J. Bloino, B. G. Janesko, R. Gomperts, B. Mennucci, H. P. Hratchian, 
 J. V. Ortiz, A. F. Izmaylov, J. L. Sonnenberg, D. Williams-Young, 
 F. Ding, F. Lipparini, F. Egidi, J. Goings, B. Peng, A. Petrone, 
 T. Henderson, D. Ranasinghe, V. G. Zakrzewski, J. Gao, N. Rega, 
 G. Zheng, W. Liang, M. Hada, M. Ehara, K. Toyota, R. Fukuda, 
 J. Hasegawa, M. Ishida, T. Nakajima, Y. Honda, O. Kitao, H. Nakai, 
 T. Vreven, K. Throssell, J. A. Montgomery, Jr., J. E. Peralta, 
 F. Ogliaro, M. J. Bearpark, J. J. Heyd, E. N. Brothers, K. N. Kudin, 
 V. N. Staroverov, T. A. Keith, R. Kobayashi, J. Normand, 
 K. Raghavachari, A. P. Rendell, J. C. Burant, S. S. Iyengar, 
 J. Tomasi, M. Cossi, J. M. Millam, M. Klene, C. Adamo, R. Cammi, 
 J. W. Ochterski, R. L. Martin, K. Morokuma, O. Farkas, 
 J. B. Foresman, and D. J. Fox, Gaussian, Inc., Wallingford CT, 2019.
 
 ******************************************
 Gaussian 16:  EM64L-G16RevC.01  3-Jul-2019
                 8-Jul-2023 
 ******************************************
 ----------------------------------------------------------------------
 #P B3LYP/6-31G(d) Integral=Ultrafine Opt=(Tight,MaxCycle=55) GFInput G
 FPrint SCF(Conver=8,XQC,MaxConventionalCycles=64,MaxCycle=128) Test
 ----------------------------------------------------------------------
 1/6=55,7=10,18=20,19=15,26=4,38=1/1,3;
 2/9=110,12=2,17=6,18=5,40=1/2;
 3/5=1,6=6,7=1,11=2,24=110,25=1,30=1,71=1,74=-5,75=-5/1,2,3;
 4//1;
 5/5=2,6=8,7=128,8=3,13=1,38=5,85=64/2,8;
 6/7=2,8=2,9=2,10=2,28=1/1;
 7//1,2,3,16;
 1/6=55,7=10,18=20,19=15,26=4/3(2);
 2/9=110/2;
 99//99;
 2/9=110/2;
 3/5=1,6=6,7=1,11=2,25=1,30=1,71=1,74=-5,75=-5/1,2,3;
 4/5=5,16=3,69=1/1;
 5/5=2,6=8,7=128,8=3,13=1,38=5,85=64/2,8;
 7//1,2,3,16;
 1/6=55,7=10,18=20,19=15,26=4/3(-5);
 2/9=110/2;
 6/7=2,8=2,9=2,10=2,19=2,28=1/1;
 99/9=1/99;
 ----------------------------------------------------------
 Optimization step - Input generated by PyRED DVE-DMDS-OPLS
 ----------------------------------------------------------
 Symbolic Z-matrix:
 Charge =  0 Multiplicity = 1
 C                     12.302    0.937     0.001 
 H                     13.283    0.453     0.001 
 H                     12.228    1.574    -0.885 
 H                     12.228    1.573     0.887 
 C                     11.197   -0.098     0. 
 H                     11.274   -0.748    -0.886 
 H                     11.274   -0.749     0.886 
 O                     9.957     0.574     0.001 
 C                     8.856    -0.298     0. 
 H                     8.862    -0.949     0.887 
 H                     8.862    -0.948    -0.888 
 C                     7.601     0.551     0.001 
 H                     7.593     1.2       0.889 
 H                     7.593     1.202    -0.887 
 O                     6.496    -0.32      0.001 
 C                     5.261     0.352     0. 
 H                     5.158     0.993    -0.888 
 H                     5.158     0.994     0.888 
 C                     4.171    -0.7       0.001 
 H                     4.273    -1.341     0.889 
 H                     4.274    -1.341    -0.887 
 O                     2.934    -0.028     0. 
 C                     1.831    -0.902    -0.001 
 H                     1.852    -1.552     0.887 
 H                     1.853    -1.552    -0.888 
 C                     0.576    -0.047    -0.001 
 H                     0.575     0.592    -0.889 
 H                     0.575     0.593     0.886 
 S                    -0.9      -1.112    -0.001 
 C                    -2.182     0.183    -0.002 
 H                    -2.061     0.813     0.885 
 H                    -2.061     0.812    -0.889 
 C                    -3.558    -0.468    -0.001 
 H                    -3.679    -1.097     0.886 
 H                    -3.679    -1.099    -0.887 
 S                    -4.84      0.828    -0.002 
 C                    -6.323    -0.234     0. 
 H                    -6.309    -0.874     0.887 
 H                    -6.31     -0.875    -0.886 
 C                    -7.571     0.639     0. 
 H                    -7.581     1.281     0.886 
 H                    -7.583     1.279    -0.887 
 S                    -9.053    -0.422     0.002 
 C                    -10.34     0.868     0.001 
 H                    -10.211    1.5       0.885 
 H                    -10.212    1.498    -0.885 
 C                    -11.722    0.227     0.002 
 H                    -12.496    0.999     0.002 
 H                    -11.867   -0.4      -0.883 
 H                    -11.866   -0.398     0.888 
 
 ITRead=  0  0  0  0  0  0  0  0  0  0  0  0  0  0  0  0  0  0  0  0
 ITRead=  0  0  0  0  0  0  0  0  0  0  0  0  0  0  0  0  0  0  0  0
 ITRead=  0  0  0  0  0  0  0  0  0  0
 MicOpt= -1 -1 -1 -1 -1 -1 -1 -1 -1 -1 -1 -1 -1 -1 -1 -1 -1 -1 -1 -1
 MicOpt= -1 -1 -1 -1 -1 -1 -1 -1 -1 -1 -1 -1 -1 -1 -1 -1 -1 -1 -1 -1
 MicOpt= -1 -1 -1 -1 -1 -1 -1 -1 -1 -1
 NAtoms=     50 NQM=       50 NQMF=       0 NMMI=      0 NMMIF=      0
                NMic=       0 NMicF=      0.
                          Input orientation:                          
 ---------------------------------------------------------------------
 Center     Atomic      Atomic             Coordinates (Angstroms)
 Number     Number       Type             X           Y           Z
 ---------------------------------------------------------------------
      1          6           0       12.302000    0.937000    0.001000
      2          1           0       13.283000    0.453000    0.001000
      3          1           0       12.228000    1.574000   -0.885000
      4          1           0       12.228000    1.573000    0.887000
      5          6           0       11.197000   -0.098000    0.000000
      6          1           0       11.274000   -0.748000   -0.886000
      7          1           0       11.274000   -0.749000    0.886000
      8          8           0        9.957000    0.574000    0.001000
      9          6           0        8.856000   -0.298000    0.000000
     10          1           0        8.862000   -0.949000    0.887000
     11          1           0        8.862000   -0.948000   -0.888000
     12          6           0        7.601000    0.551000    0.001000
     13          1           0        7.593000    1.200000    0.889000
     14          1           0        7.593000    1.202000   -0.887000
     15          8           0        6.496000   -0.320000    0.001000
     16          6           0        5.261000    0.352000    0.000000
     17          1           0        5.158000    0.993000   -0.888000
     18          1           0        5.158000    0.994000    0.888000
     19          6           0        4.171000   -0.700000    0.001000
     20          1           0        4.273000   -1.341000    0.889000
     21          1           0        4.274000   -1.341000   -0.887000
     22          8           0        2.934000   -0.028000    0.000000
     23          6           0        1.831000   -0.902000   -0.001000
     24          1           0        1.852000   -1.552000    0.887000
     25          1           0        1.853000   -1.552000   -0.888000
     26          6           0        0.576000   -0.047000   -0.001000
     27          1           0        0.575000    0.592000   -0.889000
     28          1           0        0.575000    0.593000    0.886000
     29         16           0       -0.900000   -1.112000   -0.001000
     30          6           0       -2.182000    0.183000   -0.002000
     31          1           0       -2.061000    0.813000    0.885000
     32          1           0       -2.061000    0.812000   -0.889000
     33          6           0       -3.558000   -0.468000   -0.001000
     34          1           0       -3.679000   -1.097000    0.886000
     35          1           0       -3.679000   -1.099000   -0.887000
     36         16           0       -4.840000    0.828000   -0.002000
     37          6           0       -6.323000   -0.234000    0.000000
     38          1           0       -6.309000   -0.874000    0.887000
     39          1           0       -6.310000   -0.875000   -0.886000
     40          6           0       -7.571000    0.639000    0.000000
     41          1           0       -7.581000    1.281000    0.886000
     42          1           0       -7.583000    1.279000   -0.887000
     43         16           0       -9.053000   -0.422000    0.002000
     44          6           0      -10.340000    0.868000    0.001000
     45          1           0      -10.211000    1.500000    0.885000
     46          1           0      -10.212000    1.498000   -0.885000
     47          6           0      -11.722000    0.227000    0.002000
     48          1           0      -12.496000    0.999000    0.002000
     49          1           0      -11.867000   -0.400000   -0.883000
     50          1           0      -11.866000   -0.398000    0.888000
 ---------------------------------------------------------------------
 Stoichiometry    C14H30O3S3
 Framework group  C1[X(C14H30O3S3)]
                         Standard orientation:                         
 ---------------------------------------------------------------------
 Center     Atomic      Atomic             Coordinates (Angstroms)
 Number     Number       Type             X           Y           Z
 ---------------------------------------------------------------------
      1          6           0       12.301986   -0.937009   -0.000946
      2          1           0       13.282988   -0.453012   -0.000946
      3          1           0       12.227985   -1.574009    0.885054
      4          1           0       12.227985   -1.573009   -0.886946
      5          6           0       11.196990    0.097994    0.000054
      6          1           0       11.273991    0.747994    0.886054
      7          1           0       11.273991    0.748994   -0.885946
      8          8           0        9.956988   -0.574003   -0.000946
      9          6           0        8.855990    0.298001    0.000054
     10          1           0        8.861992    0.949001   -0.886946
     11          1           0        8.861992    0.948001    0.888054
     12          6           0        7.600988   -0.550996   -0.000946
     13          1           0        7.592986   -1.199996   -0.888946
     14          1           0        7.592986   -1.201996    0.887054
     15          8           0        6.495990    0.320008   -0.000946
     16          6           0        5.260988   -0.351989    0.000054
     17          1           0        5.157986   -0.992988    0.888054
     18          1           0        5.157986   -0.993988   -0.887946
     19          6           0        4.170991    0.700015   -0.000946
     20          1           0        4.272993    1.341014   -0.888946
     21          1           0        4.273993    1.341014    0.887054
     22          8           0        2.933989    0.028018    0.000054
     23          6           0        1.830992    0.902021    0.001054
     24          1           0        1.851994    1.552021   -0.886946
     25          1           0        1.852994    1.552021    0.888054
     26          6           0        0.575989    0.047025    0.001054
     27          1           0        0.574987   -0.591975    0.889054
     28          1           0        0.574987   -0.592975   -0.885946
     29         16           0       -0.900007    1.112030    0.001054
     30          6           0       -2.182011   -0.182967    0.002054
     31          1           0       -2.061013   -0.812967   -0.884946
     32          1           0       -2.061013   -0.811967    0.889054
     33          6           0       -3.558009    0.468037    0.001054
     34          1           0       -3.679008    1.097038   -0.885946
     35          1           0       -3.679008    1.099038    0.887054
     36         16           0       -4.840013   -0.827959    0.002054
     37          6           0       -6.323010    0.234046    0.000054
     38          1           0       -6.309008    0.874046   -0.886946
     39          1           0       -6.310008    0.875046    0.886054
     40          6           0       -7.571013   -0.638951    0.000054
     41          1           0       -7.581015   -1.280951   -0.885946
     42          1           0       -7.583015   -1.278951    0.887054
     43         16           0       -9.053010    0.422054   -0.001946
     44          6           0      -10.340013   -0.867943   -0.000946
     45          1           0      -10.211015   -1.499943   -0.884946
     46          1           0      -10.212015   -1.497943    0.885054
     47          6           0      -11.722011   -0.226938   -0.001946
     48          1           0      -12.496014   -0.998936   -0.001946
     49          1           0      -11.867010    0.400062    0.883054
     50          1           0      -11.866010    0.398062   -0.887946
 ---------------------------------------------------------------------
 Standard basis: 6-31G(d) (6D, 7F)
   372 basis functions,   752 primitive gaussians,   372 cartesian basis functions
    93 alpha electrons       93 beta electrons
 Requested convergence on RMS density matrix=1.00D-08 within  64 cycles.
 Requested convergence on MAX density matrix=1.00D-06.
 Requested convergence on             energy=1.00D-06.
 SCF Done:  E(RB3LYP) =  -1971.75584963     A.U. after   12 cycles
            NFock= 12  Conv=0.63D-08     -V/T= 2.0056
 Mulliken charges:
     1  C   -0.453952
     2  H    0.143490
     3  H    0.158086
     4  H    0.158281
     5  C   -0.001085
     6  H    0.119389
     7  H    0.119160
     8  O   -0.475742
     9  C   -0.021144
    10  H    0.128728
    11  H    0.128695
    12  C   -0.021398
    13  H    0.132231
    14  H    0.131897
    15  O   -0.488055
    16  C   -0.019701
    17  H    0.132423
    18  H    0.132163
    19  C   -0.024602
    20  H    0.133253
    21  H    0.133128
    22  O   -0.484953
    23  C   -0.014838
    24  H    0.137705
    25  H    0.137982
    26  C   -0.421526
    27  H    0.178892
    28  H    0.179011
    29  S    0.091047
    30  C   -0.417498
    31  H    0.184597
    32  H    0.184758
    33  C   -0.419704
    34  H    0.184943
    35  H    0.184828
    36  S    0.093484
    37  C   -0.418576
    38  H    0.184620
    39  H    0.184691
    40  C   -0.418868
    41  H    0.181745
    42  H    0.181842
    43  S    0.090825
    44  C   -0.394937
    45  H    0.167817
    46  H    0.167696
    47  C   -0.456426
    48  H    0.154855
    49  H    0.165327
    50  H    0.165417
 Sum of Mulliken charges =  -0.00000
 Dipole moment (field-independent basis, Debye):
    X=              0.1831    Y=             -0.6632    Z=              0.0032  Tot=              0.6880
 Quadrupole moment (field-independent basis, Debye-Ang):
   XX=           -117.1973   YY=           -149.9618   ZZ=           -148.1020
   XY=             15.7649   XZ=              0.0128   YZ=              0.0041
 Traceless Quadrupole moment (field-independent basis, Debye-Ang):
   XX=             21.2231   YY=            -11.5415   ZZ=             -9.6816
   XY=             15.7649   XZ=              0.0128   YZ=              0.0041
 Octapole moment (field-independent basis, Debye-Ang**2):
  XXX=             59.3385  YYY=             -3.5406  ZZZ=             -0.0056  XYY=             18.5375
  XXY=            -53.4864  XXZ=              0.1873  XZZ=             36.1208  YZZ=             -2.8332
  YYZ=             -0.0067  XYZ=             -0.0156
 Hexadecapole moment (field-independent basis, Debye-Ang**3):
 XXXX=         -40084.7686 YYYY=           -642.8488 ZZZZ=           -257.5534 XXXY=           1917.3090
 XXXZ=              0.5474 YYYX=              2.6439 YYYZ=              0.0004 ZZZX=             -0.1884
 ZZZY=              0.0030 XXYY=          -7955.1286 XXZZ=          -7854.2010 YYZZ=           -145.9521
 XXYZ=              0.5022 YYXZ=             -0.0100 ZZXY=             -0.9795
 Step number   1 out of a maximum of   55
     Eigenvalues ---    0.00230   0.00230   0.00230   0.00230   0.00230
     Eigenvalues ---    0.00230   0.00456   0.00461   0.00472   0.00520
     Eigenvalues ---    0.00565   0.00569   0.00581   0.01554   0.01589
     Eigenvalues ---    0.01595   0.01599   0.01613   0.01632   0.04957
     Eigenvalues ---    0.05049   0.05049   0.05055   0.05056   0.05057
     Eigenvalues ---    0.05348   0.05458   0.05472   0.05490   0.05493
     Eigenvalues ---    0.05499   0.05563   0.05669   0.05743   0.05759
     Eigenvalues ---    0.05782   0.05807   0.05812   0.05813   0.05824
     Eigenvalues ---    0.05929   0.05950   0.05972   0.06085   0.06086
     Eigenvalues ---    0.06089   0.06104   0.10937   0.10986   0.10996
     Eigenvalues ---    0.10998   0.11001   0.11079   0.11080   0.11080
     Eigenvalues ---    0.11098   0.11111   0.11157   0.11308   0.13600
     Eigenvalues ---    0.13601   0.13602   0.13602   0.13626   0.13626
     Eigenvalues ---    0.13626   0.13629   0.13634   0.13641   0.13660
     Eigenvalues ---    0.13715   0.16000   0.16000   0.16000   0.16000
     Eigenvalues ---    0.16000   0.16000   0.21943   0.21945   0.21959
     Eigenvalues ---    0.21960   0.21962   0.21963   0.22000   0.22003
     Eigenvalues ---    0.22006   0.22007   0.22007   0.22035   0.24311
     Eigenvalues ---    0.24389   0.24411   0.24440   0.24442   0.24594
     Eigenvalues ---    0.25000   0.25000   0.25000   0.25000   0.25000
     Eigenvalues ---    0.25000   0.30040   0.30076   0.30153   0.30505
     Eigenvalues ---    0.30834   0.30867   0.30950   0.33446   0.33511
     Eigenvalues ---    0.33561   0.33608   0.33616   0.33628   0.33652
     Eigenvalues ---    0.33680   0.33680   0.33691   0.33692   0.33695
     Eigenvalues ---    0.34278   0.34280   0.34305   0.34319   0.34326
     Eigenvalues ---    0.34332   0.34343   0.34343   0.34353   0.34366
     Eigenvalues ---    0.34369   0.34371   0.34379   0.34379   0.34385
     Eigenvalues ---    0.34395   0.34447   0.34452   0.43942   0.44360
     Eigenvalues ---    0.44432   0.44479   0.44642   0.44885
 Maximum Force            0.006242     0.000015     NO 
 RMS     Force            0.001596     0.000010     NO 
 Maximum Displacement     0.185119     0.000060     NO 
 RMS     Displacement     0.050700     0.000040     NO 
                          Input orientation:                          
 ---------------------------------------------------------------------
 Center     Atomic      Atomic             Coordinates (Angstroms)
 Number     Number       Type             X           Y           Z
 ---------------------------------------------------------------------
      1          6           0       12.383104    0.941341   -0.002265
      2          1           0       13.365049    0.455596   -0.004231
      3          1           0       12.310410    1.580773   -0.888125
      4          1           0       12.312636    1.578272    0.885535
      5          6           0       11.273229   -0.097735   -0.002286
      6          1           0       11.351692   -0.749185   -0.890045
      7          1           0       11.354073   -0.751856    0.883402
      8          8           0       10.024833    0.572824    0.000195
      9          6           0        8.914956   -0.299331   -0.000241
     10          1           0        8.920462   -0.954342    0.887071
     11          1           0        8.919072   -0.951532   -0.889605
     12          6           0        7.653203    0.553059    0.002058
     13          1           0        7.646955    1.204276    0.891315
     14          1           0        7.645480    1.206670   -0.885524
     15          8           0        6.540122   -0.318617    0.001692
     16          6           0        5.296803    0.352147    0.002249
     17          1           0        5.191999    0.996467   -0.885947
     18          1           0        5.192201    0.995906    0.890996
     19          6           0        4.199652   -0.703559    0.001757
     20          1           0        4.304012   -1.347572    0.890089
     21          1           0        4.304178   -1.346933   -0.887107
     22          8           0        2.954380   -0.032395    0.002077
     23          6           0        1.842893   -0.907356    0.001169
     24          1           0        1.862448   -1.561016    0.889108
     25          1           0        1.862841   -1.559315   -0.887884
     26          6           0        0.581685   -0.048654    0.001693
     27          1           0        0.580662    0.593675   -0.885668
     28          1           0        0.580839    0.592491    0.889857
     29         16           0       -0.907539   -1.116631    0.001045
     30          6           0       -2.203336    0.183561    0.000357
     31          1           0       -2.083392    0.815300    0.887479
     32          1           0       -2.083136    0.814652   -0.887141
     33          6           0       -3.585585   -0.470512    0.000422
     34          1           0       -3.705433   -1.101460    0.888177
     35          1           0       -3.705031   -1.102695   -0.886552
     36         16           0       -4.881529    0.830123   -0.000730
     37          6           0       -6.377857   -0.234727    0.000064
     38          1           0       -6.365250   -0.876343    0.888074
     39          1           0       -6.365163   -0.877807   -0.886884
     40          6           0       -7.631735    0.641160   -0.000592
     41          1           0       -7.642345    1.285224    0.886036
     42          1           0       -7.642691    1.283458   -0.888466
     43         16           0       -9.127837   -0.422023    0.000629
     44          6           0      -10.429270    0.871951   -0.001170
     45          1           0      -10.302134    1.506396    0.883895
     46          1           0      -10.301799    1.504309   -0.887720
     47          6           0      -11.816511    0.228253   -0.000643
     48          1           0      -12.591689    1.002643   -0.001488
     49          1           0      -11.963648   -0.398802   -0.886423
     50          1           0      -11.963961   -0.397129    0.886296
 ---------------------------------------------------------------------
 Stoichiometry    C14H30O3S3
 Framework group  C1[X(C14H30O3S3)]
                         Standard orientation:                         
 ---------------------------------------------------------------------
 Center     Atomic      Atomic             Coordinates (Angstroms)
 Number     Number       Type             X           Y           Z
 ---------------------------------------------------------------------
      1          6           0       12.387974   -0.942632    0.001882
      2          1           0       13.369956   -0.456964    0.004287
      3          1           0       12.315222   -1.582839    0.887178
      4          1           0       12.317466   -1.578775   -0.886479
      5          6           0       11.278177    0.096528    0.002809
      6          1           0       11.356681    0.747189    0.891142
      7          1           0       11.359080    0.751423   -0.882301
      8          8           0       10.029730   -0.573934   -0.000275
      9          6           0        8.919920    0.298305    0.000918
     10          1           0        8.925485    0.954098   -0.885816
     11          1           0        8.924077    0.949722    0.890857
     12          6           0        7.658102   -0.553986   -0.002145
     13          1           0        7.651813   -1.204419   -0.891975
     14          1           0        7.650320   -1.208379    0.884861
     15          8           0        6.545087    0.317774   -0.001021
     16          6           0        5.301718   -0.352895   -0.002181
     17          1           0        5.196856   -0.997990    0.885446
     18          1           0        5.197075   -0.995862   -0.891497
     19          6           0        4.204647    0.702894   -0.000769
     20          1           0        4.309065    1.347682   -0.888533
     21          1           0        4.309213    1.345476    0.888663
     22          8           0        2.959324    0.031826   -0.001693
     23          6           0        1.847904    0.906870   -0.000025
     24          1           0        1.867517    1.561311   -0.887387
     25          1           0        1.867892    1.558043    0.889602
     26          6           0        0.586630    0.048265   -0.001318
     27          1           0        0.585549   -0.594846    0.885477
     28          1           0        0.585744   -0.592097   -0.890046
     29         16           0       -0.902513    1.116355    0.000257
     30          6           0       -2.198409   -0.183740   -0.000214
     31          1           0       -2.078505   -0.814705   -0.887892
     32          1           0       -2.078266   -0.815621    0.886728
     33          6           0       -3.580608    0.470439    0.000284
     34          1           0       -3.700400    1.102178   -0.886916
     35          1           0       -3.700015    1.101849    0.887814
     36         16           0       -4.876651   -0.830098    0.000277
     37          6           0       -6.372897    0.234867    0.000408
     38          1           0       -6.360233    0.877264   -0.887037
     39          1           0       -6.360164    0.877163    0.887922
     40          6           0       -7.626842   -0.640925    0.000279
     41          1           0       -7.637493   -1.284207   -0.886917
     42          1           0       -7.637856   -1.284005    0.887586
     43         16           0       -9.122864    0.422372   -0.000020
     44          6           0      -10.424395   -0.871504    0.000626
     45          1           0      -10.297298   -1.505178   -0.884997
     46          1           0      -10.296981   -1.504653    0.886619
     47          6           0      -11.811587   -0.227700    0.000653
     48          1           0      -12.586824   -1.002031    0.000808
     49          1           0      -11.958685    0.398586    0.886983
     50          1           0      -11.958980    0.398475   -0.885736
 ---------------------------------------------------------------------
 Standard basis: 6-31G(d) (6D, 7F)
   372 basis functions,   752 primitive gaussians,   372 cartesian basis functions
    93 alpha electrons       93 beta electrons
 Requested convergence on RMS density matrix=1.00D-08 within  64 cycles.
 Requested convergence on MAX density matrix=1.00D-06.
 Requested convergence on             energy=1.00D-06.
 SCF Done:  E(RB3LYP) =  -1971.75676783     A.U. after    9 cycles
            NFock=  9  Conv=0.86D-08     -V/T= 2.0058
 Step number   2 out of a maximum of   55
     Eigenvalues ---    0.00230   0.00230   0.00230   0.00230   0.00230
     Eigenvalues ---    0.00230   0.00456   0.00461   0.00472   0.00520
     Eigenvalues ---    0.00565   0.00569   0.00581   0.01554   0.01589
     Eigenvalues ---    0.01595   0.01599   0.01613   0.01632   0.04928
     Eigenvalues ---    0.05017   0.05023   0.05027   0.05032   0.05033
     Eigenvalues ---    0.05319   0.05432   0.05443   0.05456   0.05458
     Eigenvalues ---    0.05462   0.05534   0.05669   0.05741   0.05758
     Eigenvalues ---    0.05765   0.05809   0.05814   0.05817   0.05838
     Eigenvalues ---    0.05943   0.05960   0.05987   0.06088   0.06092
     Eigenvalues ---    0.06101   0.06200   0.10959   0.11012   0.11016
     Eigenvalues ---    0.11019   0.11023   0.11104   0.11107   0.11111
     Eigenvalues ---    0.11123   0.11133   0.11173   0.11325   0.13616
     Eigenvalues ---    0.13617   0.13620   0.13623   0.13643   0.13646
     Eigenvalues ---    0.13649   0.13651   0.13656   0.13659   0.13679
     Eigenvalues ---    0.13734   0.15945   0.16000   0.16000   0.16000
     Eigenvalues ---    0.16000   0.16019   0.19480   0.21943   0.21946
     Eigenvalues ---    0.21957   0.21959   0.21961   0.21989   0.22001
     Eigenvalues ---    0.22005   0.22006   0.22007   0.22028   0.23307
     Eigenvalues ---    0.24329   0.24398   0.24423   0.24441   0.24567
     Eigenvalues ---    0.24999   0.25000   0.25000   0.25000   0.25000
     Eigenvalues ---    0.26976   0.30051   0.30115   0.30321   0.30624
     Eigenvalues ---    0.30850   0.30928   0.32546   0.33457   0.33522
     Eigenvalues ---    0.33566   0.33611   0.33620   0.33637   0.33661
     Eigenvalues ---    0.33680   0.33685   0.33691   0.33693   0.34012
     Eigenvalues ---    0.34278   0.34287   0.34307   0.34323   0.34327
     Eigenvalues ---    0.34336   0.34343   0.34349   0.34357   0.34366
     Eigenvalues ---    0.34370   0.34376   0.34379   0.34384   0.34392
     Eigenvalues ---    0.34434   0.34450   0.35826   0.43966   0.44385
     Eigenvalues ---    0.44451   0.44539   0.44788   0.45490
 Maximum Force            0.001754     0.000015     NO 
 RMS     Force            0.000424     0.000010     NO 
 Maximum Displacement     0.033266     0.000060     NO 
 RMS     Displacement     0.009243     0.000040     NO 
                          Input orientation:                          
 ---------------------------------------------------------------------
 Center     Atomic      Atomic             Coordinates (Angstroms)
 Number     Number       Type             X           Y           Z
 ---------------------------------------------------------------------
      1          6           0       12.366433    0.941334   -0.000821
      2          1           0       13.347446    0.453524   -0.001854
      3          1           0       12.294609    1.579972   -0.887366
      4          1           0       12.295675    1.578503    0.886926
      5          6           0       11.257586   -0.098582   -0.000986
      6          1           0       11.335612   -0.749789   -0.888942
      7          1           0       11.336797   -0.751340    0.885678
      8          8           0       10.010346    0.575511    0.000399
      9          6           0        8.902659   -0.300293   -0.000010
     10          1           0        8.908403   -0.953874    0.888344
     11          1           0        8.907787   -0.952178   -0.889581
     12          6           0        7.643372    0.555018    0.001182
     13          1           0        7.636082    1.205745    0.890749
     14          1           0        7.635299    1.207025   -0.887327
     15          8           0        6.532564   -0.320502    0.000974
     16          6           0        5.290729    0.353885    0.001066
     17          1           0        5.186483    0.997120   -0.888000
     18          1           0        5.186472    0.996968    0.890186
     19          6           0        4.196931   -0.704811    0.000923
     20          1           0        4.300774   -1.347680    0.890143
     21          1           0        4.300910   -1.347659   -0.888297
     22          8           0        2.953089   -0.030053    0.000862
     23          6           0        1.843915   -0.909080    0.000376
     24          1           0        1.864321   -1.561037    0.889344
     25          1           0        1.864641   -1.560443   -0.889081
     26          6           0        0.585160   -0.047576    0.000423
     27          1           0        0.582611    0.593139   -0.887975
     28          1           0        0.582655    0.592957    0.888973
     29         16           0       -0.903677   -1.120388    0.000332
     30          6           0       -2.198068    0.185150   -0.000041
     31          1           0       -2.076422    0.815066    0.887920
     32          1           0       -2.076433    0.814534   -0.888441
     33          6           0       -3.578278   -0.471975    0.000149
     34          1           0       -3.699345   -1.101293    0.888762
     35          1           0       -3.699226   -1.102176   -0.887825
     36         16           0       -4.872934    0.833781   -0.000618
     37          6           0       -6.368956   -0.235962    0.000149
     38          1           0       -6.354773   -0.876395    0.888896
     39          1           0       -6.354891   -0.877602   -0.887751
     40          6           0       -7.620132    0.642455   -0.000334
     41          1           0       -7.632325    1.285098    0.887209
     42          1           0       -7.632586    1.283734   -0.888893
     43         16           0       -9.116085   -0.425547    0.000729
     44          6           0      -10.416802    0.873121   -0.000336
     45          1           0      -10.287907    1.505721    0.885739
     46          1           0      -10.287950    1.504170   -0.887488
     47          6           0      -11.802844    0.227804    0.000273
     48          1           0      -12.576847    1.003704   -0.000272
     49          1           0      -11.949990   -0.398548   -0.885999
     50          1           0      -11.949891   -0.397257    0.887529
 ---------------------------------------------------------------------
 Stoichiometry    C14H30O3S3
 Framework group  C1[X(C14H30O3S3)]
                         Standard orientation:                         
 ---------------------------------------------------------------------
 Center     Atomic      Atomic             Coordinates (Angstroms)
 Number     Number       Type             X           Y           Z
 ---------------------------------------------------------------------
      1          6           0       12.370244   -0.942402    0.000691
      2          1           0       13.351279   -0.454638    0.001910
      3          1           0       12.298388   -1.581372    0.886995
      4          1           0       12.299458   -1.579233   -0.887297
      5          6           0       11.261445    0.097565    0.001247
      6          1           0       11.339500    0.748433    0.889450
      7          1           0       11.340688    0.750654   -0.885170
      8          8           0       10.014174   -0.576470   -0.000395
      9          6           0        8.906528    0.299385    0.000344
     10          1           0        8.912303    0.953302   -0.887763
     11          1           0        8.911684    0.950934    0.890161
     12          6           0        7.647200   -0.555867   -0.001174
     13          1           0        7.639882   -1.206258   -0.890986
     14          1           0        7.639096   -1.208209    0.887090
     15          8           0        6.536433    0.319704   -0.000637
     16          6           0        5.294567   -0.354626   -0.000985
     17          1           0        5.190289   -0.998191    0.887838
     18          1           0        5.190282   -0.997368   -0.890348
     19          6           0        4.200818    0.704122   -0.000444
     20          1           0        4.304692    1.347321   -0.889421
     21          1           0        4.304825    1.346628    0.889018
     22          8           0        2.956945    0.029420   -0.000640
     23          6           0        1.847811    0.908499    0.000176
     24          1           0        1.868248    1.560790   -0.888546
     25          1           0        1.868566    1.559525    0.889879
     26          6           0        0.589017    0.047053   -0.000198
     27          1           0        0.586436   -0.593997    0.887958
     28          1           0        0.586483   -0.593144   -0.888990
     29         16           0       -0.899771    1.119934    0.000296
     30          6           0       -2.194222   -0.185544    0.000174
     31          1           0       -2.072604   -0.815131   -0.888025
     32          1           0       -2.072618   -0.815270    0.888336
     33          6           0       -3.574401    0.471645    0.000230
     34          1           0       -3.695438    1.101304   -0.888146
     35          1           0       -3.695323    1.101516    0.888442
     36         16           0       -4.869118   -0.834052    0.000501
     37          6           0       -6.365090    0.235761    0.000137
     38          1           0       -6.350876    0.876529   -0.888369
     39          1           0       -6.350997    0.877065    0.888278
     40          6           0       -7.616307   -0.642599    0.000285
     41          1           0       -7.628529   -1.284905   -0.887501
     42          1           0       -7.628793   -1.284213    0.888602
     43         16           0       -9.112211    0.425474   -0.000377
     44          6           0      -10.412988   -0.873135    0.000196
     45          1           0      -10.284121   -1.505406   -0.886118
     46          1           0      -10.284167   -1.504525    0.887110
     47          6           0      -11.799001   -0.227754   -0.000172
     48          1           0      -12.573039   -1.003618    0.000079
     49          1           0      -11.946119    0.398270    0.886337
     50          1           0      -11.946017    0.397649   -0.887192
 ---------------------------------------------------------------------
 Standard basis: 6-31G(d) (6D, 7F)
   372 basis functions,   752 primitive gaussians,   372 cartesian basis functions
    93 alpha electrons       93 beta electrons
 Requested convergence on RMS density matrix=1.00D-08 within  64 cycles.
 Requested convergence on MAX density matrix=1.00D-06.
 Requested convergence on             energy=1.00D-06.
 SCF Done:  E(RB3LYP) =  -1971.75686742     A.U. after    8 cycles
            NFock=  8  Conv=0.83D-08     -V/T= 2.0058
 Step number   3 out of a maximum of   55
     Eigenvalues ---    0.00230   0.00230   0.00230   0.00230   0.00230
     Eigenvalues ---    0.00230   0.00456   0.00461   0.00472   0.00520
     Eigenvalues ---    0.00565   0.00569   0.00581   0.01554   0.01589
     Eigenvalues ---    0.01595   0.01599   0.01613   0.01632   0.04954
     Eigenvalues ---    0.05049   0.05055   0.05057   0.05062   0.05069
     Eigenvalues ---    0.05070   0.05343   0.05470   0.05480   0.05491
     Eigenvalues ---    0.05494   0.05499   0.05541   0.05689   0.05759
     Eigenvalues ---    0.05759   0.05761   0.05799   0.05803   0.05807
     Eigenvalues ---    0.05928   0.05939   0.05957   0.06082   0.06087
     Eigenvalues ---    0.06095   0.06108   0.10867   0.10964   0.10995
     Eigenvalues ---    0.10998   0.11002   0.11075   0.11077   0.11084
     Eigenvalues ---    0.11098   0.11109   0.11155   0.11311   0.13593
     Eigenvalues ---    0.13593   0.13597   0.13601   0.13617   0.13624
     Eigenvalues ---    0.13624   0.13625   0.13632   0.13634   0.13663
     Eigenvalues ---    0.13718   0.15944   0.16000   0.16000   0.16000
     Eigenvalues ---    0.16000   0.16071   0.19100   0.21942   0.21945
     Eigenvalues ---    0.21954   0.21957   0.21958   0.22001   0.22005
     Eigenvalues ---    0.22006   0.22007   0.22027   0.22140   0.23813
     Eigenvalues ---    0.24330   0.24399   0.24423   0.24445   0.24566
     Eigenvalues ---    0.25000   0.25000   0.25000   0.25000   0.25013
     Eigenvalues ---    0.29713   0.30058   0.30114   0.30290   0.30601
     Eigenvalues ---    0.30849   0.30937   0.32809   0.33454   0.33521
     Eigenvalues ---    0.33564   0.33610   0.33618   0.33636   0.33660
     Eigenvalues ---    0.33680   0.33685   0.33691   0.33694   0.33931
     Eigenvalues ---    0.34279   0.34285   0.34306   0.34323   0.34327
     Eigenvalues ---    0.34336   0.34343   0.34349   0.34359   0.34369
     Eigenvalues ---    0.34375   0.34377   0.34384   0.34386   0.34393
     Eigenvalues ---    0.34444   0.34464   0.35663   0.43967   0.44381
     Eigenvalues ---    0.44452   0.44560   0.44813   0.46426
 Maximum Force            0.000387     0.000015     NO 
 RMS     Force            0.000131     0.000010     NO 
 Maximum Displacement     0.009380     0.000060     NO 
 RMS     Displacement     0.002849     0.000040     NO 
                          Input orientation:                          
 ---------------------------------------------------------------------
 Center     Atomic      Atomic             Coordinates (Angstroms)
 Number     Number       Type             X           Y           Z
 ---------------------------------------------------------------------
      1          6           0       12.370394    0.937623   -0.000188
      2          1           0       13.350912    0.448862   -0.000671
      3          1           0       12.299210    1.575712   -0.886961
      4          1           0       12.299645    1.574822    0.887279
      5          6           0       11.260282   -0.100491   -0.000426
      6          1           0       11.337270   -0.751590   -0.888134
      7          1           0       11.337770   -0.752517    0.886528
      8          8           0       10.013458    0.575120    0.000298
      9          6           0        8.904997   -0.300531   -0.000037
     10          1           0        8.910919   -0.953106    0.888556
     11          1           0        8.910712   -0.952165   -0.889317
     12          6           0        7.645680    0.554160    0.000565
     13          1           0        7.637806    1.204554    0.889903
     14          1           0        7.637394    1.205233   -0.888226
     15          8           0        6.533930   -0.321164    0.000493
     16          6           0        5.292142    0.354446    0.000430
     17          1           0        5.189162    0.997165   -0.888715
     18          1           0        5.189147    0.997246    0.889480
     19          6           0        4.196773   -0.702203    0.000499
     20          1           0        4.299363   -1.344570    0.889783
     21          1           0        4.299410   -1.344735   -0.888645
     22          8           0        2.952963   -0.026185    0.000391
     23          6           0        1.842881   -0.905033    0.000213
     24          1           0        1.863885   -1.556073    0.889354
     25          1           0        1.864052   -1.555953   -0.889046
     26          6           0        0.584388   -0.043994    0.000150
     27          1           0        0.580477    0.595554   -0.888660
     28          1           0        0.580506    0.595700    0.888868
     29         16           0       -0.904637   -1.118075    0.000253
     30          6           0       -2.200305    0.187508   -0.000024
     31          1           0       -2.077817    0.816143    0.888326
     32          1           0       -2.077840    0.815746   -0.888683
     33          6           0       -3.579191   -0.470827    0.000147
     34          1           0       -3.701003   -1.099094    0.888946
     35          1           0       -3.700953   -1.099683   -0.888229
     36         16           0       -4.875100    0.834977   -0.000330
     37          6           0       -6.371231   -0.236115    0.000243
     38          1           0       -6.355450   -0.875750    0.889097
     39          1           0       -6.355547   -0.876596   -0.888006
     40          6           0       -7.621814    0.641910   -0.000127
     41          1           0       -7.635694    1.283351    0.887821
     42          1           0       -7.635811    1.282413   -0.888764
     43         16           0       -9.117628   -0.427703    0.000555
     44          6           0      -10.419233    0.871135   -0.000053
     45          1           0      -10.289295    1.502311    0.886447
     46          1           0      -10.289406    1.501344   -0.887242
     47          6           0      -11.804393    0.225045    0.000380
     48          1           0      -12.579057    1.000182    0.000053
     49          1           0      -11.950640   -0.401003   -0.886057
     50          1           0      -11.950485   -0.400108    0.887483
 ---------------------------------------------------------------------
 Stoichiometry    C14H30O3S3
 Framework group  C1[X(C14H30O3S3)]
                         Standard orientation:                         
 ---------------------------------------------------------------------
 Center     Atomic      Atomic             Coordinates (Angstroms)
 Number     Number       Type             X           Y           Z
 ---------------------------------------------------------------------
      1          6           0       12.374448   -0.938131    0.000116
      2          1           0       13.354977   -0.449393    0.000694
      3          1           0       12.303254   -1.576397    0.886761
      4          1           0       12.303682   -1.575150   -0.887479
      5          6           0       11.264360    0.100009    0.000567
      6          1           0       11.341367    0.750927    0.888406
      7          1           0       11.341860    0.752211   -0.886256
      8          8           0       10.017521   -0.575574   -0.000288
      9          6           0        8.909081    0.300103    0.000228
     10          1           0        8.915014    0.952857   -0.888234
     11          1           0        8.914813    0.951558    0.889638
     12          6           0        7.649744   -0.554559   -0.000542
     13          1           0        7.641851   -1.204774   -0.890011
     14          1           0        7.641446   -1.205811    0.888118
     15          8           0        6.538013    0.320791   -0.000290
     16          6           0        5.296210   -0.354791   -0.000358
     17          1           0        5.193219   -0.997686    0.888658
     18          1           0        5.193197   -0.997410   -0.889537
     19          6           0        4.200865    0.701884   -0.000211
     20          1           0        4.303467    1.344427   -0.889365
     21          1           0        4.303520    1.344234    0.889062
     22          8           0        2.957039    0.025894   -0.000234
     23          6           0        1.846978    0.904768    0.000125
     24          1           0        1.867994    1.555986   -0.888885
     25          1           0        1.868167    1.555508    0.889515
     26          6           0        0.588465    0.043757    0.000019
     27          1           0        0.584543   -0.595969    0.888701
     28          1           0        0.584565   -0.595758   -0.888827
     29         16           0       -0.900535    1.117873    0.000138
     30          6           0       -2.196233   -0.187680    0.000157
     31          1           0       -2.073763   -0.816140   -0.888320
     32          1           0       -2.073780   -0.816100    0.888690
     33          6           0       -3.575104    0.470687    0.000124
     34          1           0       -3.696905    1.099135   -0.888548
     35          1           0       -3.696849    1.099366    0.888627
     36         16           0       -4.871043   -0.835088    0.000343
     37          6           0       -6.367149    0.236038   -0.000009
     38          1           0       -6.351357    0.875852   -0.888734
     39          1           0       -6.351447    0.876341    0.888369
     40          6           0       -7.617752   -0.641958    0.000189
     41          1           0       -7.631651   -1.283220   -0.887888
     42          1           0       -7.631762   -1.282639    0.888697
     43         16           0       -9.113542    0.427690   -0.000272
     44          6           0      -10.415177   -0.871118    0.000079
     45          1           0      -10.285257   -1.502118   -0.886548
     46          1           0      -10.285361   -1.501508    0.887142
     47          6           0      -11.800322   -0.224996   -0.000219
     48          1           0      -12.575004   -1.000115   -0.000044
     49          1           0      -11.946551    0.400877    0.886345
     50          1           0      -11.946403    0.400339   -0.887195
 ---------------------------------------------------------------------
 Standard basis: 6-31G(d) (6D, 7F)
   372 basis functions,   752 primitive gaussians,   372 cartesian basis functions
    93 alpha electrons       93 beta electrons
 Requested convergence on RMS density matrix=1.00D-08 within  64 cycles.
 Requested convergence on MAX density matrix=1.00D-06.
 Requested convergence on             energy=1.00D-06.
 SCF Done:  E(RB3LYP) =  -1971.75687900     A.U. after    7 cycles
            NFock=  7  Conv=0.75D-08     -V/T= 2.0058
 Step number   4 out of a maximum of   55
     Eigenvalues ---    0.00230   0.00230   0.00230   0.00230   0.00230
     Eigenvalues ---    0.00230   0.00456   0.00461   0.00472   0.00520
     Eigenvalues ---    0.00565   0.00569   0.00581   0.01554   0.01589
     Eigenvalues ---    0.01595   0.01599   0.01613   0.01632   0.04824
     Eigenvalues ---    0.04960   0.05057   0.05063   0.05066   0.05076
     Eigenvalues ---    0.05077   0.05343   0.05468   0.05477   0.05489
     Eigenvalues ---    0.05491   0.05496   0.05541   0.05689   0.05749
     Eigenvalues ---    0.05758   0.05765   0.05790   0.05794   0.05798
     Eigenvalues ---    0.05917   0.05936   0.05957   0.06080   0.06086
     Eigenvalues ---    0.06093   0.06102   0.10663   0.10967   0.10999
     Eigenvalues ---    0.11002   0.11005   0.11081   0.11083   0.11090
     Eigenvalues ---    0.11101   0.11107   0.11158   0.11313   0.13589
     Eigenvalues ---    0.13589   0.13594   0.13597   0.13620   0.13622
     Eigenvalues ---    0.13627   0.13628   0.13634   0.13637   0.13660
     Eigenvalues ---    0.13719   0.15965   0.16000   0.16000   0.16000
     Eigenvalues ---    0.16026   0.16090   0.18758   0.21944   0.21949
     Eigenvalues ---    0.21957   0.21960   0.21961   0.22005   0.22008
     Eigenvalues ---    0.22008   0.22010   0.22035   0.22553   0.23667
     Eigenvalues ---    0.24331   0.24398   0.24423   0.24440   0.24590
     Eigenvalues ---    0.24991   0.25000   0.25000   0.25000   0.25131
     Eigenvalues ---    0.28977   0.30031   0.30122   0.30250   0.30569
     Eigenvalues ---    0.30850   0.30951   0.32558   0.33456   0.33516
     Eigenvalues ---    0.33567   0.33610   0.33622   0.33637   0.33660
     Eigenvalues ---    0.33682   0.33686   0.33691   0.33693   0.33872
     Eigenvalues ---    0.34268   0.34281   0.34297   0.34312   0.34325
     Eigenvalues ---    0.34332   0.34337   0.34344   0.34353   0.34361
     Eigenvalues ---    0.34370   0.34376   0.34382   0.34388   0.34392
     Eigenvalues ---    0.34435   0.34457   0.34668   0.43966   0.44370
     Eigenvalues ---    0.44450   0.44555   0.44817   0.46692
 Maximum Force            0.000143     0.000015     NO 
 RMS     Force            0.000029     0.000010     NO 
 Maximum Displacement     0.002127     0.000060     NO 
 RMS     Displacement     0.000634     0.000040     NO 
                          Input orientation:                          
 ---------------------------------------------------------------------
 Center     Atomic      Atomic             Coordinates (Angstroms)
 Number     Number       Type             X           Y           Z
 ---------------------------------------------------------------------
      1          6           0       12.370565    0.936913   -0.000152
      2          1           0       13.351091    0.448277   -0.000490
      3          1           0       12.299482    1.574885   -0.887003
      4          1           0       12.299787    1.574252    0.887179
      5          6           0       11.260393   -0.101053   -0.000324
      6          1           0       11.337250   -0.752248   -0.887887
      7          1           0       11.337595   -0.752915    0.886720
      8          8           0       10.013636    0.574799    0.000165
      9          6           0        8.905063   -0.300794   -0.000045
     10          1           0        8.911042   -0.953084    0.888662
     11          1           0        8.910909   -0.952473   -0.889200
     12          6           0        7.645985    0.553929    0.000359
     13          1           0        7.637944    1.204351    0.889584
     14          1           0        7.637632    1.204759   -0.888561
     15          8           0        6.534173   -0.321398    0.000347
     16          6           0        5.292577    0.354629    0.000310
     17          1           0        5.189915    0.997265   -0.888838
     18          1           0        5.189922    0.997401    0.889362
     19          6           0        4.197124   -0.701654    0.000393
     20          1           0        4.299408   -1.343965    0.889668
     21          1           0        4.299410   -1.344120   -0.888769
     22          8           0        2.953498   -0.025230    0.000341
     23          6           0        1.843237   -0.904054    0.000289
     24          1           0        1.864383   -1.554947    0.889454
     25          1           0        1.864456   -1.554919   -0.888897
     26          6           0        0.584797   -0.043345    0.000244
     27          1           0        0.580399    0.596035   -0.888600
     28          1           0        0.580430    0.596149    0.889007
     29         16           0       -0.904162   -1.117692    0.000332
     30          6           0       -2.200223    0.187818    0.000067
     31          1           0       -2.077505    0.816221    0.888457
     32          1           0       -2.077505    0.815862   -0.888577
     33          6           0       -3.578893   -0.470258    0.000204
     34          1           0       -3.700948   -1.098396    0.888951
     35          1           0       -3.700914   -1.098857   -0.888221
     36         16           0       -4.875243    0.835431   -0.000153
     37          6           0       -6.371535   -0.235837    0.000232
     38          1           0       -6.355336   -0.875450    0.888984
     39          1           0       -6.355383   -0.876026   -0.888108
     40          6           0       -7.622244    0.641571   -0.000025
     41          1           0       -7.636594    1.282684    0.888044
     42          1           0       -7.636653    1.282063   -0.888539
     43         16           0       -9.118179   -0.428215    0.000403
     44          6           0      -10.420072    0.870540   -0.000028
     45          1           0      -10.289853    1.501379    0.886569
     46          1           0      -10.289895    1.500749   -0.887078
     47          6           0      -11.805203    0.224613    0.000241
     48          1           0      -12.580157    0.999405   -0.000002
     49          1           0      -11.951332   -0.401332   -0.886269
     50          1           0      -11.951275   -0.400716    0.887194
 ---------------------------------------------------------------------
 Stoichiometry    C14H30O3S3
 Framework group  C1[X(C14H30O3S3)]
                         Standard orientation:                         
 ---------------------------------------------------------------------
 Center     Atomic      Atomic             Coordinates (Angstroms)
 Number     Number       Type             X           Y           Z
 ---------------------------------------------------------------------
      1          6           0       12.374594   -0.937402    0.000310
      2          1           0       13.355132   -0.448792    0.000649
      3          1           0       12.303494   -1.575373    0.887162
      4          1           0       12.303799   -1.574739   -0.887020
      5          6           0       11.264448    0.100592    0.000482
      6          1           0       11.341322    0.751785    0.888046
      7          1           0       11.341667    0.752452   -0.886561
      8          8           0       10.017674   -0.575228   -0.000006
      9          6           0        8.909124    0.300393    0.000203
     10          1           0        8.915119    0.952684   -0.888503
     11          1           0        8.914986    0.952072    0.889359
     12          6           0        7.650023   -0.554297   -0.000201
     13          1           0        7.641965   -1.204719   -0.889425
     14          1           0        7.641653   -1.205127    0.888720
     15          8           0        6.538234    0.321058   -0.000188
     16          6           0        5.296620   -0.354936   -0.000152
     17          1           0        5.193942   -0.997570    0.888997
     18          1           0        5.193948   -0.997706   -0.889204
     19          6           0        4.201195    0.701375   -0.000235
     20          1           0        4.303495    1.343683   -0.889509
     21          1           0        4.303497    1.343838    0.888928
     22          8           0        2.957551    0.024982   -0.000182
     23          6           0        1.847312    0.903835   -0.000130
     24          1           0        1.868476    1.554728   -0.889295
     25          1           0        1.868548    1.554700    0.889055
     26          6           0        0.588851    0.043159   -0.000085
     27          1           0        0.584436   -0.596222    0.888759
     28          1           0        0.584468   -0.596336   -0.888848
     29         16           0       -0.900081    1.117544   -0.000174
     30          6           0       -2.196175   -0.187933    0.000092
     31          1           0       -2.073474   -0.816339   -0.888298
     32          1           0       -2.073474   -0.815980    0.888736
     33          6           0       -3.574829    0.470178   -0.000045
     34          1           0       -3.696867    1.098320   -0.888792
     35          1           0       -3.696833    1.098781    0.888380
     36         16           0       -4.871212   -0.835477    0.000312
     37          6           0       -6.367477    0.235830   -0.000073
     38          1           0       -6.351261    0.875443   -0.888825
     39          1           0       -6.351308    0.876018    0.888267
     40          6           0       -7.618209   -0.641547    0.000184
     41          1           0       -7.632574   -1.282659   -0.887885
     42          1           0       -7.632633   -1.282038    0.888698
     43         16           0       -9.114116    0.428278   -0.000244
     44          6           0      -10.416042   -0.870443    0.000186
     45          1           0      -10.285839   -1.501285   -0.886410
     46          1           0      -10.285881   -1.500656    0.887237
     47          6           0      -11.801157   -0.224481   -0.000082
     48          1           0      -12.576130   -0.999252    0.000161
     49          1           0      -11.947269    0.401468    0.886428
     50          1           0      -11.947212    0.400852   -0.887035
 ---------------------------------------------------------------------
 Standard basis: 6-31G(d) (6D, 7F)
   372 basis functions,   752 primitive gaussians,   372 cartesian basis functions
    93 alpha electrons       93 beta electrons
 Requested convergence on RMS density matrix=1.00D-08 within  64 cycles.
 Requested convergence on MAX density matrix=1.00D-06.
 Requested convergence on             energy=1.00D-06.
 SCF Done:  E(RB3LYP) =  -1971.75687950     A.U. after    6 cycles
            NFock=  6  Conv=0.71D-08     -V/T= 2.0058
 Step number   5 out of a maximum of   55
     Eigenvalues ---    0.00230   0.00230   0.00230   0.00230   0.00230
     Eigenvalues ---    0.00230   0.00456   0.00461   0.00472   0.00520
     Eigenvalues ---    0.00565   0.00569   0.00581   0.01554   0.01589
     Eigenvalues ---    0.01595   0.01597   0.01612   0.01632   0.04857
     Eigenvalues ---    0.04959   0.05056   0.05062   0.05066   0.05075
     Eigenvalues ---    0.05075   0.05344   0.05467   0.05478   0.05489
     Eigenvalues ---    0.05492   0.05497   0.05541   0.05687   0.05747
     Eigenvalues ---    0.05757   0.05762   0.05788   0.05792   0.05796
     Eigenvalues ---    0.05920   0.05935   0.05953   0.06080   0.06085
     Eigenvalues ---    0.06094   0.06168   0.10115   0.10969   0.11002
     Eigenvalues ---    0.11007   0.11010   0.11081   0.11083   0.11086
     Eigenvalues ---    0.11098   0.11129   0.11165   0.11310   0.13590
     Eigenvalues ---    0.13590   0.13595   0.13598   0.13620   0.13622
     Eigenvalues ---    0.13626   0.13628   0.13635   0.13637   0.13661
     Eigenvalues ---    0.13718   0.15894   0.16000   0.16000   0.16000
     Eigenvalues ---    0.16042   0.16061   0.18558   0.21490   0.21954
     Eigenvalues ---    0.21959   0.21960   0.21963   0.21971   0.22008
     Eigenvalues ---    0.22009   0.22010   0.22028   0.22236   0.23731
     Eigenvalues ---    0.24326   0.24394   0.24420   0.24431   0.24579
     Eigenvalues ---    0.24983   0.25000   0.25000   0.25029   0.26894
     Eigenvalues ---    0.28240   0.30007   0.30113   0.30495   0.30597
     Eigenvalues ---    0.30850   0.31172   0.32406   0.33456   0.33519
     Eigenvalues ---    0.33566   0.33611   0.33621   0.33637   0.33661
     Eigenvalues ---    0.33682   0.33686   0.33691   0.33695   0.33928
     Eigenvalues ---    0.34280   0.34286   0.34307   0.34318   0.34327
     Eigenvalues ---    0.34336   0.34343   0.34352   0.34359   0.34369
     Eigenvalues ---    0.34374   0.34378   0.34387   0.34392   0.34405
     Eigenvalues ---    0.34445   0.34460   0.36290   0.43985   0.44380
     Eigenvalues ---    0.44521   0.44566   0.44826   0.46743
 Maximum Force            0.000054     0.000015     NO 
 RMS     Force            0.000009     0.000010     YES
 Maximum Displacement     0.000777     0.000060     NO 
 RMS     Displacement     0.000196     0.000040     NO 
                          Input orientation:                          
 ---------------------------------------------------------------------
 Center     Atomic      Atomic             Coordinates (Angstroms)
 Number     Number       Type             X           Y           Z
 ---------------------------------------------------------------------
      1          6           0       12.370576    0.936981   -0.000061
      2          1           0       13.351148    0.448434   -0.000293
      3          1           0       12.299519    1.574877   -0.886976
      4          1           0       12.299717    1.574423    0.887195
      5          6           0       11.260441   -0.101010   -0.000201
      6          1           0       11.337383   -0.752316   -0.887682
      7          1           0       11.337607   -0.752792    0.886912
      8          8           0       10.013664    0.574799    0.000136
      9          6           0        8.905059   -0.300770   -0.000017
     10          1           0        8.911009   -0.952982    0.888753
     11          1           0        8.910934   -0.952567   -0.889092
     12          6           0        7.645949    0.553901    0.000249
     13          1           0        7.637859    1.204430    0.889401
     14          1           0        7.637637    1.204678   -0.888721
     15          8           0        6.534089   -0.321390    0.000263
     16          6           0        5.292440    0.354582    0.000209
     17          1           0        5.189780    0.997233   -0.888935
     18          1           0        5.189784    0.997393    0.889240
     19          6           0        4.196932   -0.701646    0.000310
     20          1           0        4.299221   -1.343977    0.889576
     21          1           0        4.299221   -1.344144   -0.888836
     22          8           0        2.953270   -0.025262    0.000248
     23          6           0        1.843010   -0.904095    0.000246
     24          1           0        1.864210   -1.554962    0.889439
     25          1           0        1.864258   -1.555019   -0.888903
     26          6           0        0.584558   -0.043453    0.000185
     27          1           0        0.580101    0.595932   -0.888664
     28          1           0        0.580126    0.596084    0.888923
     29         16           0       -0.904345   -1.117865    0.000290
     30          6           0       -2.200311    0.187730    0.000061
     31          1           0       -2.077476    0.816123    0.888453
     32          1           0       -2.077487    0.815802   -0.888560
     33          6           0       -3.578999   -0.470175    0.000194
     34          1           0       -3.701158   -1.098359    0.888906
     35          1           0       -3.701149   -1.098750   -0.888244
     36         16           0       -4.875214    0.835634   -0.000097
     37          6           0       -6.371403   -0.235763    0.000224
     38          1           0       -6.355107   -0.875448    0.888934
     39          1           0       -6.355152   -0.875919   -0.888148
     40          6           0       -7.622140    0.641506    0.000022
     41          1           0       -7.636575    1.282578    0.888129
     42          1           0       -7.636634    1.282080   -0.888443
     43         16           0       -9.117984   -0.428381    0.000371
     44          6           0      -10.419725    0.870495    0.000039
     45          1           0      -10.289442    1.501286    0.886669
     46          1           0      -10.289499    1.500775   -0.886964
     47          6           0      -11.804861    0.224683    0.000272
     48          1           0      -12.579755    0.999525    0.000079
     49          1           0      -11.951075   -0.401212   -0.886273
     50          1           0      -11.951012   -0.400707    0.887182
 ---------------------------------------------------------------------
 Stoichiometry    C14H30O3S3
 Framework group  C1[X(C14H30O3S3)]
                         Standard orientation:                         
 ---------------------------------------------------------------------
 Center     Atomic      Atomic             Coordinates (Angstroms)
 Number     Number       Type             X           Y           Z
 ---------------------------------------------------------------------
      1          6           0       12.374616   -0.937453    0.000210
      2          1           0       13.355198   -0.448929    0.000442
      3          1           0       12.303543   -1.575348    0.887125
      4          1           0       12.303741   -1.574894   -0.887047
      5          6           0       11.264504    0.100564    0.000350
      6          1           0       11.341461    0.751868    0.887831
      7          1           0       11.341685    0.752344   -0.886764
      8          8           0       10.017712   -0.575217    0.000013
      9          6           0        8.909127    0.300378    0.000166
     10          1           0        8.915092    0.952590   -0.888605
     11          1           0        8.915017    0.952175    0.889241
     12          6           0        7.649997   -0.554263   -0.000100
     13          1           0        7.641891   -1.204792   -0.889252
     14          1           0        7.641670   -1.205040    0.888870
     15          8           0        6.538157    0.321053   -0.000114
     16          6           0        5.296493   -0.354889   -0.000060
     17          1           0        5.193818   -0.997539    0.889084
     18          1           0        5.193822   -0.997698   -0.889091
     19          6           0        4.201009    0.701364   -0.000162
     20          1           0        4.303313    1.343692   -0.889428
     21          1           0        4.303313    1.343860    0.888984
     22          8           0        2.957332    0.025009   -0.000100
     23          6           0        1.847092    0.903867   -0.000097
     24          1           0        1.868307    1.554734   -0.889291
     25          1           0        1.868355    1.554790    0.889051
     26          6           0        0.588620    0.043255   -0.000036
     27          1           0        0.584148   -0.596130    0.888812
     28          1           0        0.584173   -0.596282   -0.888774
     29         16           0       -0.900258    1.117702   -0.000141
     30          6           0       -2.196255   -0.187863    0.000088
     31          1           0       -2.073434   -0.816260   -0.888305
     32          1           0       -2.073445   -0.815938    0.888709
     33          6           0       -3.574927    0.470073   -0.000045
     34          1           0       -3.697072    1.098260   -0.888757
     35          1           0       -3.697062    1.098651    0.888393
     36         16           0       -4.871172   -0.835705    0.000245
     37          6           0       -6.367336    0.235727   -0.000076
     38          1           0       -6.351026    0.875411   -0.888786
     39          1           0       -6.351071    0.875882    0.888296
     40          6           0       -7.618094   -0.641514    0.000127
     41          1           0       -7.632544   -1.282585   -0.887981
     42          1           0       -7.632603   -1.282087    0.888592
     43         16           0       -9.113913    0.428409   -0.000222
     44          6           0      -10.415684   -0.870437    0.000110
     45          1           0      -10.285416   -1.501232   -0.886521
     46          1           0      -10.285473   -1.500721    0.887112
     47          6           0      -11.800805   -0.224593   -0.000123
     48          1           0      -12.575717   -0.999417    0.000070
     49          1           0      -11.947005    0.401305    0.886422
     50          1           0      -11.946942    0.400800   -0.887034
 ---------------------------------------------------------------------
 Standard basis: 6-31G(d) (6D, 7F)
   372 basis functions,   752 primitive gaussians,   372 cartesian basis functions
    93 alpha electrons       93 beta electrons
 Requested convergence on RMS density matrix=1.00D-08 within  64 cycles.
 Requested convergence on MAX density matrix=1.00D-06.
 Requested convergence on             energy=1.00D-06.
 SCF Done:  E(RB3LYP) =  -1971.75687954     A.U. after    5 cycles
            NFock=  5  Conv=0.39D-08     -V/T= 2.0058
 Step number   6 out of a maximum of   55
     Eigenvalues ---    0.00230   0.00230   0.00230   0.00230   0.00230
     Eigenvalues ---    0.00230   0.00456   0.00461   0.00472   0.00520
     Eigenvalues ---    0.00564   0.00569   0.00580   0.01551   0.01578
     Eigenvalues ---    0.01591   0.01595   0.01612   0.01631   0.04884
     Eigenvalues ---    0.04959   0.05055   0.05061   0.05066   0.05074
     Eigenvalues ---    0.05075   0.05344   0.05467   0.05477   0.05489
     Eigenvalues ---    0.05492   0.05496   0.05539   0.05686   0.05738
     Eigenvalues ---    0.05756   0.05758   0.05787   0.05792   0.05796
     Eigenvalues ---    0.05920   0.05935   0.05951   0.06080   0.06084
     Eigenvalues ---    0.06094   0.06162   0.09025   0.10962   0.11003
     Eigenvalues ---    0.11008   0.11012   0.11082   0.11085   0.11091
     Eigenvalues ---    0.11109   0.11117   0.11158   0.11312   0.13590
     Eigenvalues ---    0.13591   0.13595   0.13598   0.13621   0.13622
     Eigenvalues ---    0.13627   0.13629   0.13634   0.13637   0.13661
     Eigenvalues ---    0.13718   0.15695   0.16000   0.16000   0.16008
     Eigenvalues ---    0.16030   0.16049   0.18718   0.19947   0.21952
     Eigenvalues ---    0.21956   0.21960   0.21962   0.21966   0.22008
     Eigenvalues ---    0.22009   0.22010   0.22029   0.22161   0.24003
     Eigenvalues ---    0.24326   0.24395   0.24411   0.24432   0.24589
     Eigenvalues ---    0.24976   0.25000   0.25001   0.25030   0.28241
     Eigenvalues ---    0.29000   0.30043   0.30110   0.30510   0.30843
     Eigenvalues ---    0.30945   0.31959   0.33032   0.33458   0.33519
     Eigenvalues ---    0.33565   0.33611   0.33622   0.33637   0.33661
     Eigenvalues ---    0.33683   0.33687   0.33691   0.33695   0.33991
     Eigenvalues ---    0.34277   0.34286   0.34305   0.34324   0.34330
     Eigenvalues ---    0.34336   0.34343   0.34348   0.34359   0.34369
     Eigenvalues ---    0.34375   0.34375   0.34385   0.34389   0.34393
     Eigenvalues ---    0.34441   0.34598   0.35192   0.43933   0.44378
     Eigenvalues ---    0.44536   0.44557   0.44831   0.49706
 Maximum Force            0.000010     0.000015     YES
 RMS     Force            0.000002     0.000010     YES
 Maximum Displacement     0.000303     0.000060     NO 
 RMS     Displacement     0.000102     0.000040     NO 
                          Input orientation:                          
 ---------------------------------------------------------------------
 Center     Atomic      Atomic             Coordinates (Angstroms)
 Number     Number       Type             X           Y           Z
 ---------------------------------------------------------------------
      1          6           0       12.370506    0.937047   -0.000040
      2          1           0       13.351096    0.448534   -0.000185
      3          1           0       12.299468    1.574860   -0.887020
      4          1           0       12.299594    1.574583    0.887149
      5          6           0       11.260397   -0.100964   -0.000121
      6          1           0       11.337397   -0.752373   -0.887527
      7          1           0       11.337537   -0.752659    0.887064
      8          8           0       10.013618    0.574820    0.000085
      9          6           0        8.905028   -0.300757    0.000004
     10          1           0        8.910963   -0.952885    0.888843
     11          1           0        8.910920   -0.952660   -0.888999
     12          6           0        7.645916    0.553907    0.000153
     13          1           0        7.637787    1.204521    0.889248
     14          1           0        7.637636    1.204623   -0.888867
     15          8           0        6.534070   -0.321392    0.000196
     16          6           0        5.292418    0.354561    0.000141
     17          1           0        5.189741    0.997217   -0.889006
     18          1           0        5.189753    0.997389    0.889164
     19          6           0        4.196929   -0.701684    0.000254
     20          1           0        4.299239   -1.344021    0.889520
     21          1           0        4.299228   -1.344197   -0.888887
     22          8           0        2.953261   -0.025324    0.000195
     23          6           0        1.843016   -0.904171    0.000241
     24          1           0        1.864248   -1.555021    0.889453
     25          1           0        1.864267   -1.555139   -0.888884
     26          6           0        0.584547   -0.043564    0.000171
     27          1           0        0.580080    0.595830   -0.888677
     28          1           0        0.580102    0.596001    0.888896
     29         16           0       -0.904352   -1.117982    0.000287
     30          6           0       -2.200276    0.187656    0.000104
     31          1           0       -2.077380    0.816030    0.888510
     32          1           0       -2.077392    0.815771   -0.888488
     33          6           0       -3.579005   -0.470129    0.000213
     34          1           0       -3.701221   -1.098372    0.888885
     35          1           0       -3.701222   -1.098670   -0.888249
     36         16           0       -4.875173    0.835726   -0.000005
     37          6           0       -6.371340   -0.235702    0.000220
     38          1           0       -6.355007   -0.875473    0.888876
     39          1           0       -6.355033   -0.875809   -0.888194
     40          6           0       -7.622125    0.641483    0.000072
     41          1           0       -7.636613    1.282500    0.888226
     42          1           0       -7.636648    1.282151   -0.888334
     43         16           0       -9.117957   -0.428421    0.000311
     44          6           0      -10.419656    0.870483    0.000075
     45          1           0      -10.289360    1.501210    0.886758
     46          1           0      -10.289393    1.500855   -0.886865
     47          6           0      -11.804821    0.224753    0.000230
     48          1           0      -12.579682    0.999632    0.000089
     49          1           0      -11.951071   -0.401067   -0.886366
     50          1           0      -11.951038   -0.400713    0.887081
 ---------------------------------------------------------------------
 Stoichiometry    C14H30O3S3
 Framework group  C1[X(C14H30O3S3)]
                         Standard orientation:                         
 ---------------------------------------------------------------------
 Center     Atomic      Atomic             Coordinates (Angstroms)
 Number     Number       Type             X           Y           Z
 ---------------------------------------------------------------------
      1          6           0       12.374543   -0.937527    0.000184
      2          1           0       13.355144   -0.449036    0.000330
      3          1           0       12.303490   -1.575337    0.887164
      4          1           0       12.303616   -1.575061   -0.887005
      5          6           0       11.264458    0.100511    0.000265
      6          1           0       11.341473    0.751918    0.887672
      7          1           0       11.341613    0.752204   -0.886920
      8          8           0       10.017663   -0.575245    0.000059
      9          6           0        8.909093    0.300358    0.000140
     10          1           0        8.915044    0.952486   -0.888699
     11          1           0        8.915001    0.952261    0.889143
     12          6           0        7.649962   -0.554277   -0.000009
     13          1           0        7.641818   -1.204891   -0.889104
     14          1           0        7.641666   -1.204993    0.889011
     15          8           0        6.538136    0.321048   -0.000052
     16          6           0        5.296469   -0.354877    0.000003
     17          1           0        5.193776   -0.997529    0.889150
     18          1           0        5.193789   -0.997702   -0.889020
     19          6           0        4.201004    0.701394   -0.000110
     20          1           0        4.303329    1.343729   -0.889375
     21          1           0        4.303318    1.343905    0.889031
     22          8           0        2.957320    0.025063   -0.000050
     23          6           0        1.847096    0.903936   -0.000096
     24          1           0        1.868343    1.554785   -0.889309
     25          1           0        1.868362    1.554903    0.889028
     26          6           0        0.588607    0.043358   -0.000026
     27          1           0        0.584125   -0.596037    0.888821
     28          1           0        0.584147   -0.596207   -0.888751
     29         16           0       -0.900267    1.117811   -0.000143
     30          6           0       -2.196221   -0.187798    0.000040
[...]
     19          6           0        4.196930   -0.701717    0.000125
     20          1           0        4.299246   -1.344077    0.889375
     21          1           0        4.299247   -1.344205   -0.889032
     22          8           0        2.953258   -0.025373    0.000075
     23          6           0        1.843024   -0.904229    0.000150
     24          1           0        1.864267   -1.555064    0.889373
     25          1           0        1.864264   -1.555212   -0.888965
     26          6           0        0.584552   -0.043622    0.000081
     27          1           0        0.580097    0.595781   -0.888761
     28          1           0        0.580105    0.595936    0.888812
     29         16           0       -0.904356   -1.118029    0.000182
     30          6           0       -2.200257    0.187637    0.000065
     31          1           0       -2.077341    0.815973    0.888497
     32          1           0       -2.077367    0.815787   -0.888501
     33          6           0       -3.579001   -0.470114    0.000155
     34          1           0       -3.701217   -1.098408    0.888792
     35          1           0       -3.701242   -1.098600   -0.888342
     36         16           0       -4.875155    0.835761    0.000034
     37          6           0       -6.371322   -0.235674    0.000202
     38          1           0       -6.354972   -0.875508    0.888813
     39          1           0       -6.355019   -0.875721   -0.888257
     40          6           0       -7.622117    0.641492    0.000130
     41          1           0       -7.636605    1.282445    0.888332
     42          1           0       -7.636655    1.282227   -0.888228
     43         16           0       -9.117945   -0.428422    0.000304
     44          6           0      -10.419640    0.870485    0.000181
     45          1           0      -10.289329    1.501146    0.886910
     46          1           0      -10.289382    1.500926   -0.886712
     47          6           0      -11.804817    0.224779    0.000303
     48          1           0      -12.579661    0.999677    0.000230
     49          1           0      -11.951091   -0.400971   -0.886338
     50          1           0      -11.951038   -0.400750    0.887109
 ---------------------------------------------------------------------
 Stoichiometry    C14H30O3S3
 Framework group  C1[X(C14H30O3S3)]
                         Standard orientation:                         
 ---------------------------------------------------------------------
 Center     Atomic      Atomic             Coordinates (Angstroms)
 Number     Number       Type             X           Y           Z
 ---------------------------------------------------------------------
      1          6           0       12.374520   -0.937572    0.000105
      2          1           0       13.355121   -0.449081    0.000082
      3          1           0       12.303527   -1.575198    0.887222
      4          1           0       12.303530   -1.575288   -0.886948
      5          6           0       11.264441    0.100475    0.000052
      6          1           0       11.341535    0.752072    0.887314
      7          1           0       11.341534    0.751979   -0.887278
      8          8           0       10.017641   -0.575268    0.000088
      9          6           0        8.909081    0.300342    0.000037
     10          1           0        8.915011    0.952306   -0.888924
     11          1           0        8.915014    0.952412    0.888919
     12          6           0        7.649941   -0.554286    0.000090
     13          1           0        7.641720   -1.205007   -0.888928
     14          1           0        7.641719   -1.204895    0.889189
     15          8           0        6.538126    0.321047    0.000034
     16          6           0        5.296455   -0.354865    0.000077
     17          1           0        5.193757   -0.997541    0.889207
     18          1           0        5.193762   -0.997663   -0.888964
     19          6           0        4.201005    0.701424    0.000002
     20          1           0        4.303335    1.343781   -0.889249
     21          1           0        4.303336    1.343910    0.889159
     22          8           0        2.957317    0.025109    0.000051
     23          6           0        1.847103    0.903991   -0.000023
     24          1           0        1.868361    1.554826   -0.889246
     25          1           0        1.868358    1.554973    0.889091
     26          6           0        0.588611    0.043413    0.000046
     27          1           0        0.584141   -0.595990    0.888888
     28          1           0        0.584149   -0.596145   -0.888685
     29         16           0       -0.900272    1.117855   -0.000055
     30          6           0       -2.196204   -0.187781    0.000061
     31          1           0       -2.073302   -0.816120   -0.888370
     32          1           0       -2.073329   -0.815934    0.888628
     33          6           0       -3.574932    0.470002   -0.000029
     34          1           0       -3.697133    1.098299   -0.888665
     35          1           0       -3.697159    1.098491    0.888469
     36         16           0       -4.871116   -0.835843    0.000093
     37          6           0       -6.367259    0.235627   -0.000075
     38          1           0       -6.350893    0.875460   -0.888687
     39          1           0       -6.350941    0.875674    0.888383
     40          6           0       -7.618074   -0.641510   -0.000003
     41          1           0       -7.632577   -1.282462   -0.888205
     42          1           0       -7.632627   -1.282245    0.888355
     43         16           0       -9.113877    0.428439   -0.000177
     44          6           0      -10.415603   -0.870438   -0.000055
     45          1           0      -10.285306   -1.501102   -0.886784
     46          1           0      -10.285359   -1.500881    0.886839
     47          6           0      -11.800765   -0.224699   -0.000177
     48          1           0      -12.575626   -0.999580   -0.000104
     49          1           0      -11.947024    0.401054    0.886465
     50          1           0      -11.946971    0.400833   -0.886983
 ---------------------------------------------------------------------
 Standard basis: 6-31G(d) (6D, 7F)
   372 basis functions,   752 primitive gaussians,   372 cartesian basis functions
    93 alpha electrons       93 beta electrons
 Requested convergence on RMS density matrix=1.00D-08 within  64 cycles.
 Requested convergence on MAX density matrix=1.00D-06.
 Requested convergence on             energy=1.00D-06.
 SCF Done:  E(RB3LYP) =  -1971.75687954     A.U. after    4 cycles
            NFock=  4  Conv=0.31D-08     -V/T= 2.0058
 Step number  12 out of a maximum of   55
     Eigenvalues ---    0.00164   0.00230   0.00230   0.00230   0.00231
     Eigenvalues ---    0.00249   0.00321   0.00456   0.00463   0.00480
     Eigenvalues ---    0.00522   0.00571   0.00580   0.00934   0.01543
     Eigenvalues ---    0.01596   0.01601   0.01619   0.01627   0.04943
     Eigenvalues ---    0.04969   0.05057   0.05062   0.05070   0.05073
     Eigenvalues ---    0.05081   0.05345   0.05471   0.05480   0.05489
     Eigenvalues ---    0.05499   0.05511   0.05540   0.05686   0.05729
     Eigenvalues ---    0.05753   0.05756   0.05789   0.05792   0.05798
     Eigenvalues ---    0.05927   0.05942   0.05988   0.06084   0.06090
     Eigenvalues ---    0.06112   0.06232   0.09287   0.10946   0.11002
     Eigenvalues ---    0.11009   0.11014   0.11080   0.11086   0.11093
     Eigenvalues ---    0.11124   0.11207   0.11263   0.11389   0.13499
     Eigenvalues ---    0.13591   0.13597   0.13597   0.13604   0.13620
     Eigenvalues ---    0.13628   0.13629   0.13636   0.13639   0.13671
     Eigenvalues ---    0.13720   0.15591   0.15868   0.16000   0.16002
     Eigenvalues ---    0.16029   0.16083   0.17464   0.19282   0.21306
     Eigenvalues ---    0.21959   0.21961   0.21979   0.22000   0.22009
     Eigenvalues ---    0.22022   0.22026   0.22067   0.22830   0.24003
     Eigenvalues ---    0.24347   0.24402   0.24427   0.24446   0.24748
     Eigenvalues ---    0.24949   0.24999   0.25115   0.25847   0.28044
     Eigenvalues ---    0.29073   0.30190   0.30380   0.30547   0.30944
     Eigenvalues ---    0.31375   0.31938   0.33175   0.33460   0.33531
     Eigenvalues ---    0.33571   0.33616   0.33632   0.33654   0.33667
     Eigenvalues ---    0.33685   0.33689   0.33699   0.33728   0.34088
     Eigenvalues ---    0.34287   0.34291   0.34311   0.34325   0.34340
     Eigenvalues ---    0.34344   0.34357   0.34365   0.34369   0.34379
     Eigenvalues ---    0.34383   0.34397   0.34402   0.34419   0.34445
     Eigenvalues ---    0.34493   0.34662   0.37579   0.44089   0.44408
     Eigenvalues ---    0.44545   0.44706   0.45280   0.48007
 Maximum Force            0.000000     0.000015     YES
 RMS     Force            0.000000     0.000010     YES
 Maximum Displacement     0.000187     0.000060     NO 
 RMS     Displacement     0.000038     0.000040     YES
 Optimization completed on the basis of negligible forces.
    -- Stationary point found.
                          Input orientation:                          
 ---------------------------------------------------------------------
 Center     Atomic      Atomic             Coordinates (Angstroms)
 Number     Number       Type             X           Y           Z
 ---------------------------------------------------------------------
      1          6           0       12.370484    0.937088    0.000021
      2          1           0       13.351074    0.448575    0.000045
      3          1           0       12.299506    1.574717   -0.887096
      4          1           0       12.299509    1.574806    0.887074
      5          6           0       11.260380   -0.100932    0.000075
      6          1           0       11.337459   -0.752531   -0.887187
      7          1           0       11.337459   -0.752439    0.887405
      8          8           0       10.013597    0.574839    0.000039
      9          6           0        8.905016   -0.300745    0.000090
     10          1           0        8.910931   -0.952708    0.889050
     11          1           0        8.910934   -0.952815   -0.888792
     12          6           0        7.645896    0.553912    0.000037
     13          1           0        7.637690    1.204634    0.889054
     14          1           0        7.637689    1.204522   -0.889062
     15          8           0        6.534061   -0.321394    0.000093
     16          6           0        5.292405    0.354546    0.000049
     17          1           0        5.189722    0.997225   -0.889081
     18          1           0        5.189727    0.997347    0.889091
     19          6           0        4.196930   -0.701717    0.000125
     20          1           0        4.299246   -1.344077    0.889375
     21          1           0        4.299247   -1.344205   -0.889032
     22          8           0        2.953258   -0.025373    0.000075
     23          6           0        1.843024   -0.904229    0.000150
     24          1           0        1.864267   -1.555064    0.889373
     25          1           0        1.864264   -1.555212   -0.888965
     26          6           0        0.584552   -0.043622    0.000081
     27          1           0        0.580097    0.595781   -0.888761
     28          1           0        0.580105    0.595936    0.888812
     29         16           0       -0.904356   -1.118029    0.000182
     30          6           0       -2.200257    0.187637    0.000065
     31          1           0       -2.077341    0.815973    0.888497
     32          1           0       -2.077367    0.815787   -0.888501
     33          6           0       -3.579001   -0.470114    0.000155
     34          1           0       -3.701217   -1.098408    0.888792
     35          1           0       -3.701242   -1.098600   -0.888342
     36         16           0       -4.875155    0.835761    0.000034
     37          6           0       -6.371322   -0.235674    0.000202
     38          1           0       -6.354972   -0.875508    0.888813
     39          1           0       -6.355019   -0.875721   -0.888257
     40          6           0       -7.622117    0.641492    0.000130
     41          1           0       -7.636605    1.282445    0.888332
     42          1           0       -7.636655    1.282227   -0.888228
     43         16           0       -9.117945   -0.428422    0.000304
     44          6           0      -10.419640    0.870485    0.000181
     45          1           0      -10.289329    1.501146    0.886910
     46          1           0      -10.289382    1.500926   -0.886712
     47          6           0      -11.804817    0.224779    0.000303
     48          1           0      -12.579661    0.999677    0.000230
     49          1           0      -11.951091   -0.400971   -0.886338
     50          1           0      -11.951038   -0.400750    0.887109
 ---------------------------------------------------------------------
 Stoichiometry    C14H30O3S3
 Framework group  C1[X(C14H30O3S3)]
                         Standard orientation:                         
 ---------------------------------------------------------------------
 Center     Atomic      Atomic             Coordinates (Angstroms)
 Number     Number       Type             X           Y           Z
 ---------------------------------------------------------------------
      1          6           0       12.374520   -0.937572    0.000105
      2          1           0       13.355121   -0.449081    0.000082
      3          1           0       12.303527   -1.575198    0.887222
      4          1           0       12.303530   -1.575288   -0.886948
      5          6           0       11.264441    0.100475    0.000052
      6          1           0       11.341535    0.752072    0.887314
      7          1           0       11.341534    0.751979   -0.887278
      8          8           0       10.017641   -0.575268    0.000088
      9          6           0        8.909081    0.300342    0.000037
     10          1           0        8.915011    0.952306   -0.888924
     11          1           0        8.915014    0.952412    0.888919
     12          6           0        7.649941   -0.554286    0.000090
     13          1           0        7.641720   -1.205007   -0.888928
     14          1           0        7.641719   -1.204895    0.889189
     15          8           0        6.538126    0.321047    0.000034
     16          6           0        5.296455   -0.354865    0.000077
     17          1           0        5.193757   -0.997541    0.889207
     18          1           0        5.193762   -0.997663   -0.888964
     19          6           0        4.201005    0.701424    0.000002
     20          1           0        4.303335    1.343781   -0.889249
     21          1           0        4.303336    1.343910    0.889159
     22          8           0        2.957317    0.025109    0.000051
     23          6           0        1.847103    0.903991   -0.000023
     24          1           0        1.868361    1.554826   -0.889246
     25          1           0        1.868358    1.554973    0.889091
     26          6           0        0.588611    0.043413    0.000046
     27          1           0        0.584141   -0.595990    0.888888
     28          1           0        0.584149   -0.596145   -0.888685
     29         16           0       -0.900272    1.117855   -0.000055
     30          6           0       -2.196204   -0.187781    0.000061
     31          1           0       -2.073302   -0.816120   -0.888370
     32          1           0       -2.073329   -0.815934    0.888628
     33          6           0       -3.574932    0.470002   -0.000029
     34          1           0       -3.697133    1.098299   -0.888665
     35          1           0       -3.697159    1.098491    0.888469
     36         16           0       -4.871116   -0.835843    0.000093
     37          6           0       -6.367259    0.235627   -0.000075
     38          1           0       -6.350893    0.875460   -0.888687
     39          1           0       -6.350941    0.875674    0.888383
     40          6           0       -7.618074   -0.641510   -0.000003
     41          1           0       -7.632577   -1.282462   -0.888205
     42          1           0       -7.632627   -1.282245    0.888355
     43         16           0       -9.113877    0.428439   -0.000177
     44          6           0      -10.415603   -0.870438   -0.000055
     45          1           0      -10.285306   -1.501102   -0.886784
     46          1           0      -10.285359   -1.500881    0.886839
     47          6           0      -11.800765   -0.224699   -0.000177
     48          1           0      -12.575626   -0.999580   -0.000104
     49          1           0      -11.947024    0.401054    0.886465
     50          1           0      -11.946971    0.400833   -0.886983
 ---------------------------------------------------------------------
 Mulliken charges:
     1  C   -0.453661
     2  H    0.143506
     3  H    0.158422
     4  H    0.158422
     5  C   -0.001380
     6  H    0.120129
     7  H    0.120129
     8  O   -0.479673
     9  C   -0.021411
    10  H    0.129657
    11  H    0.129657
    12  C   -0.021538
    13  H    0.133229
    14  H    0.133229
    15  O   -0.491826
    16  C   -0.019937
    17  H    0.133276
    18  H    0.133276
    19  C   -0.024831
    20  H    0.134126
    21  H    0.134126
    22  O   -0.488588
    23  C   -0.014516
    24  H    0.138867
    25  H    0.138867
    26  C   -0.420183
    27  H    0.179522
    28  H    0.179522
    29  S    0.085114
    30  C   -0.415662
    31  H    0.185233
    32  H    0.185233
    33  C   -0.417755
    34  H    0.185412
    35  H    0.185412
    36  S    0.087679
    37  C   -0.416386
    38  H    0.185030
    39  H    0.185030
    40  C   -0.416992
    41  H    0.182118
    42  H    0.182118
    43  S    0.084648
    44  C   -0.393839
    45  H    0.168217
    46  H    0.168217
    47  C   -0.455194
    48  H    0.154694
    49  H    0.165628
    50  H    0.165628
 Sum of Mulliken charges =  -0.00000
 Dipole moment (field-independent basis, Debye):
    X=              0.1714    Y=             -0.6604    Z=              0.0001  Tot=              0.6822
 Quadrupole moment (field-independent basis, Debye-Ang):
   XX=           -116.2729   YY=           -149.8762   ZZ=           -148.2237
   XY=             16.0548   XZ=             -0.0011   YZ=              0.0003
 Traceless Quadrupole moment (field-independent basis, Debye-Ang):
   XX=             21.8513   YY=            -11.7519   ZZ=            -10.0994
   XY=             16.0548   XZ=             -0.0011   YZ=              0.0003
 Octapole moment (field-independent basis, Debye-Ang**2):
  XXX=             58.0778  YYY=             -3.5403  ZZZ=              0.0015  XYY=             19.0031
  XXY=            -54.3410  XXZ=              0.0070  XZZ=             36.6193  YZZ=             -2.8403
  YYZ=             -0.0001  XYZ=             -0.0003
 Hexadecapole moment (field-independent basis, Debye-Ang**3):
 XXXX=         -40381.4803 YYYY=           -646.4573 ZZZZ=           -258.0164 XXXY=           1974.1118
 XXXZ=             -0.3100 YYYX=              2.7599 YYYZ=              0.0141 ZZZX=             -0.2008
 ZZZY=              0.0122 XXYY=          -8052.2613 XXZZ=          -7959.7962 YYZZ=           -146.4388
 XXYZ=              0.0241 YYXZ=             -0.0657 ZZXY=             -0.8438
 Job cpu time:       0 days  1 hours 48 minutes 33.3 seconds.
 Normal termination of Gaussian 16 at Sat Jul  8 15:26:05 2023.
