 Copyright (c) 1988-2019, Gaussian, Inc.  All Rights Reserved.
  
 This is part of the Gaussian(R) 16 program.  It is based on
 the Gaussian(R) 09 system (copyright 2009, Gaussian, Inc.),
 the Gaussian(R) 03 system (copyright 2003, Gaussian, Inc.),
 the Gaussian(R) 98 system (copyright 1998, Gaussian, Inc.),
 the Gaussian(R) 94 system (copyright 1995, Gaussian, Inc.),
 the Gaussian 92(TM) system (copyright 1992, Gaussian, Inc.),
 the Gaussian 90(TM) system (copyright 1990, Gaussian, Inc.),
 the Gaussian 88(TM) system (copyright 1988, Gaussian, Inc.),
 the Gaussian 86(TM) system (copyright 1986, Carnegie Mellon
 University), and the Gaussian 82(TM) system (copyright 1983,
 Carnegie Mellon University). Gaussian is a federally registered
 trademark of Gaussian, Inc.
 Cite this work as:
 Gaussian 16, Revision C.01,
 M. J. Frisch, G. W. Trucks, H. B. Schlegel, G. E. Scuseria, 
 M. A. Robb, J. R. Cheeseman, G. Scalmani, V. Barone, 
 G. A. Petersson, H. Nakatsuji, X. Li, M. Caricato, A. V. Marenich, 
 J. Bloino, B. G. Janesko, R. Gomperts, B. Mennucci, H. P. Hratchian, 
 J. V. Ortiz, A. F. Izmaylov, J. L. Sonnenberg, D. Williams-Young, 
 F. Ding, F. Lipparini, F. Egidi, J. Goings, B. Peng, A. Petrone, 
 T. Henderson, D. Ranasinghe, V. G. Zakrzewski, J. Gao, N. Rega, 
 G. Zheng, W. Liang, M. Hada, M. Ehara, K. Toyota, R. Fukuda, 
 J. Hasegawa, M. Ishida, T. Nakajima, Y. Honda, O. Kitao, H. Nakai, 
 T. Vreven, K. Throssell, J. A. Montgomery, Jr., J. E. Peralta, 
 F. Ogliaro, M. J. Bearpark, J. J. Heyd, E. N. Brothers, K. N. Kudin, 
 V. N. Staroverov, T. A. Keith, R. Kobayashi, J. Normand, 
 K. Raghavachari, A. P. Rendell, J. C. Burant, S. S. Iyengar, 
 J. Tomasi, M. Cossi, J. M. Millam, M. Klene, C. Adamo, R. Cammi, 
 J. W. Ochterski, R. L. Martin, K. Morokuma, O. Farkas, 
 J. B. Foresman, and D. J. Fox, Gaussian, Inc., Wallingford CT, 2019.
 
 ******************************************
 Gaussian 16:  EM64L-G16RevC.01  3-Jul-2019
                 9-Jul-2023 
 ******************************************
 ----------------------------------------------------------------------
 #P B3LYP/6-31G(d) Integral=Ultrafine SCF(Conver=8,XQC,MaxConventionalC
 ycles=64,MaxCycle=128) NoSymm Test Pop=mk IOp(6/33=2) GFInput GFPrint
 ----------------------------------------------------------------------
 1/38=1,172=1/1;
 2/12=2,15=1,17=6,18=5,40=1/2;
 3/5=1,6=6,7=1,11=2,24=110,25=1,30=1,74=-5,75=-5/1,2,3;
 4//1;
 5/5=2,6=8,7=128,8=3,13=1,38=5,85=64/2,8;
 6/7=2,8=2,9=2,10=2,15=8,20=1,28=1,33=2/1,2;
 99/5=1,9=1/99;
 -------------------------------------------------
 MEP step - Input generated by PyRED DVE-DMDS-OPLS
 -------------------------------------------------
 Symbolic Z-matrix:
 Charge =  0 Multiplicity = 1
 C                     6.48703  -3.23033  -0.85048 
 H                     7.53612  -2.9654   -0.68053 
 H                     6.12789  -3.78766   0.0211 
 H                     6.44968  -3.89276  -1.72314 
 C                     5.61555  -1.99886  -1.09037 
 H                     5.97942  -1.43204  -1.96265 
 H                     4.58603  -2.30608  -1.30306 
 O                     5.52295  -1.13885   0.04166 
 C                     6.66579  -0.32948   0.26544 
 H                     6.89983   0.26272  -0.63426 
 H                     7.5497   -0.94296   0.50628 
 C                     6.39781   0.60871   1.43464 
 H                     6.08282   0.01848   2.30834 
 H                     7.33744   1.11324   1.69006 
 O                     5.46674   1.63769   1.15436 
 C                     4.08552   1.30858   1.27925 
 H                     3.62621   1.99927   1.99955 
 H                     3.95977   0.28659   1.65275 
 C                     3.40264   1.47778  -0.08088 
 H                     3.82618   0.76036  -0.79652 
 H                     3.5957    2.48996  -0.45061 
 O                     1.98855   1.34221   0. 
 C                     1.52217   0.        0. 
 H                     1.8742   -0.53652   0.89688 
 H                     1.90513  -0.53605  -0.88205 
 C                     0.        0.        0. 
 H                    -0.38327   0.58869   0.83966 
 H                    -0.35239  -1.02788   0.1413 
 S                    -0.82032   0.52985  -1.55342 
 C                    -0.4785    2.33694  -1.64782 
 H                     0.57525   2.48813  -1.89328 
 H                    -1.08585   2.6651   -2.4979 
 C                    -0.80807   3.16599  -0.40862 
 H                    -0.64092   4.22058  -0.65995 
 H                    -0.12448   2.90661   0.40542 
 S                    -2.55231   2.95306   0.14369 
 C                    -2.6441    4.35154   1.33122 
 H                    -1.71973   4.36421   1.92349 
 H                    -3.45633   4.0988    2.02007 
 C                    -2.87791   5.7356    0.71265 
 H                    -2.69154   6.51296   1.46388 
 H                    -2.1748    5.91638  -0.10639 
 S                    -4.54426   6.00056  -0.0124 
 C                    -5.53991   6.34203   1.49755 
 H                    -6.57722   6.22517   1.16637 
 H                    -5.35659   5.55104   2.23388 
 C                    -5.32782   7.72646   2.10963 
 H                    -4.29361   7.87004   2.44146 
 H                    -5.55977   8.51352   1.38548 
 H                    -5.97674   7.85937   2.98482 
 
 ITRead=  0  0  0  0  0  0  0  0  0  0  0  0  0  0  0  0  0  0  0  0
 ITRead=  0  0  0  0  0  0  0  0  0  0  0  0  0  0  0  0  0  0  0  0
 ITRead=  0  0  0  0  0  0  0  0  0  0
 MicOpt= -1 -1 -1 -1 -1 -1 -1 -1 -1 -1 -1 -1 -1 -1 -1 -1 -1 -1 -1 -1
 MicOpt= -1 -1 -1 -1 -1 -1 -1 -1 -1 -1 -1 -1 -1 -1 -1 -1 -1 -1 -1 -1
 MicOpt= -1 -1 -1 -1 -1 -1 -1 -1 -1 -1
 NAtoms=     50 NQM=       50 NQMF=       0 NMMI=      0 NMMIF=      0
                NMic=       0 NMicF=      0.
                          Input orientation:                          
 ---------------------------------------------------------------------
 Center     Atomic      Atomic             Coordinates (Angstroms)
 Number     Number       Type             X           Y           Z
 ---------------------------------------------------------------------
      1          6           0        6.487026   -3.230333   -0.850483
      2          1           0        7.536116   -2.965397   -0.680531
      3          1           0        6.127890   -3.787656    0.021101
      4          1           0        6.449676   -3.892759   -1.723144
      5          6           0        5.615549   -1.998857   -1.090371
      6          1           0        5.979415   -1.432036   -1.962648
      7          1           0        4.586029   -2.306077   -1.303057
      8          8           0        5.522954   -1.138849    0.041661
      9          6           0        6.665786   -0.329479    0.265437
     10          1           0        6.899826    0.262717   -0.634257
     11          1           0        7.549697   -0.942956    0.506276
     12          6           0        6.397807    0.608706    1.434637
     13          1           0        6.082824    0.018475    2.308343
     14          1           0        7.337440    1.113241    1.690061
     15          8           0        5.466738    1.637689    1.154362
     16          6           0        4.085523    1.308580    1.279246
     17          1           0        3.626207    1.999269    1.999545
     18          1           0        3.959766    0.286590    1.652746
     19          6           0        3.402644    1.477784   -0.080878
     20          1           0        3.826180    0.760355   -0.796518
     21          1           0        3.595701    2.489958   -0.450607
     22          8           0        1.988545    1.342210    0.000000
     23          6           0        1.522165    0.000000    0.000000
     24          1           0        1.874199   -0.536519    0.896884
     25          1           0        1.905132   -0.536050   -0.882045
     26          6           0        0.000000    0.000000    0.000000
     27          1           0       -0.383274    0.588692    0.839655
     28          1           0       -0.352387   -1.027882    0.141296
     29         16           0       -0.820324    0.529848   -1.553417
     30          6           0       -0.478500    2.336937   -1.647822
     31          1           0        0.575249    2.488129   -1.893276
     32          1           0       -1.085847    2.665101   -2.497903
     33          6           0       -0.808067    3.165990   -0.408620
     34          1           0       -0.640918    4.220584   -0.659950
     35          1           0       -0.124480    2.906611    0.405418
     36         16           0       -2.552309    2.953059    0.143694
     37          6           0       -2.644103    4.351535    1.331222
     38          1           0       -1.719731    4.364213    1.923488
     39          1           0       -3.456328    4.098797    2.020072
     40          6           0       -2.877907    5.735600    0.712646
     41          1           0       -2.691543    6.512959    1.463880
     42          1           0       -2.174795    5.916383   -0.106392
     43         16           0       -4.544258    6.000565   -0.012399
     44          6           0       -5.539909    6.342032    1.497552
     45          1           0       -6.577219    6.225174    1.166369
     46          1           0       -5.356590    5.551035    2.233878
     47          6           0       -5.327825    7.726463    2.109632
     48          1           0       -4.293610    7.870035    2.441457
     49          1           0       -5.559772    8.513520    1.385482
     50          1           0       -5.976743    7.859369    2.984815
 ---------------------------------------------------------------------
 Stoichiometry    C14H30O3S3
 Framework group  C1[X(C14H30O3S3)]
 Standard basis: 6-31G(d) (6D, 7F)
   372 basis functions,   752 primitive gaussians,   372 cartesian basis functions
    93 alpha electrons       93 beta electrons
 Requested convergence on RMS density matrix=1.00D-08 within  64 cycles.
 Requested convergence on MAX density matrix=1.00D-06.
 Requested convergence on             energy=1.00D-06.
 SCF Done:  E(RB3LYP) =  -1971.75008835     A.U. after   13 cycles
            NFock= 13  Conv=0.53D-08     -V/T= 2.0058
 Mulliken charges:
     1  C   -0.461711
     2  H    0.151644
     3  H    0.159073
     4  H    0.148678
     5  C   -0.016768
     6  H    0.125416
     7  H    0.146979
     8  O   -0.475138
     9  C   -0.023779
    10  H    0.130848
    11  H    0.120093
    12  C   -0.045204
    13  H    0.137086
    14  H    0.144701
    15  O   -0.477494
    16  C   -0.036035
    17  H    0.136570
    18  H    0.143431
    19  C   -0.039414
    20  H    0.139647
    21  H    0.148316
    22  O   -0.478767
    23  C   -0.004202
    24  H    0.127845
    25  H    0.138237
    26  C   -0.442585
    27  H    0.193097
    28  H    0.175760
    29  S    0.088935
    30  C   -0.410164
    31  H    0.189733
    32  H    0.182686
    33  C   -0.415669
    34  H    0.164707
    35  H    0.187505
    36  S    0.122689
    37  C   -0.416284
    38  H    0.164715
    39  H    0.178262
    40  C   -0.411534
    41  H    0.167910
    42  H    0.179886
    43  S    0.103032
    44  C   -0.413519
    45  H    0.177714
    46  H    0.166127
    47  C   -0.433366
    48  H    0.149327
    49  H    0.164107
    50  H    0.146879
 Sum of Mulliken charges =  -0.00000
 Dipole moment (field-independent basis, Debye):
    X=              4.3538    Y=             -0.7429    Z=              2.5259  Tot=              5.0880
 Quadrupole moment (field-independent basis, Debye-Ang):
   XX=           -133.4269   YY=           -138.2060   ZZ=           -143.3573
   XY=             -8.3265   XZ=            -13.9022   YZ=             11.3238
 Traceless Quadrupole moment (field-independent basis, Debye-Ang):
   XX=              4.9032   YY=              0.1240   ZZ=             -5.0272
   XY=             -8.3265   XZ=            -13.9022   YZ=             11.3238
 Octapole moment (field-independent basis, Debye-Ang**2):
  XXX=            -87.5058  YYY=           -915.0134  ZZZ=            -52.0403  XYY=            -92.5211
  XXY=           -357.9104  XXZ=             18.4122  XZZ=            -75.5532  YZZ=           -295.6715
  YYZ=             40.7039  XYZ=            -54.8818
 Hexadecapole moment (field-independent basis, Debye-Ang**3):
 XXXX=         -13618.9163 YYYY=         -11472.2192 ZZZZ=          -1229.3274 XXXY=           3410.7031
 XXXZ=             36.1323 YYYX=           3801.4890 YYYZ=           -380.6733 ZZZX=            298.8477
 ZZZY=           -808.3686 XXYY=          -4350.4312 XXZZ=          -2613.4955 YYZZ=          -2034.6172
 XXYZ=             34.7890 YYXZ=           -294.3512 ZZXY=           1228.0805
 Merz-Kollman atomic radii used.
 Atom Element Radius
    1     6    1.50
    2     1    1.20
    3     1    1.20
    4     1    1.20
    5     6    1.50
    6     1    1.20
    7     1    1.20
    8     8    1.40
    9     6    1.50
   10     1    1.20
   11     1    1.20
   12     6    1.50
   13     1    1.20
   14     1    1.20
   15     8    1.40
   16     6    1.50
   17     1    1.20
   18     1    1.20
   19     6    1.50
   20     1    1.20
   21     1    1.20
   22     8    1.40
   23     6    1.50
   24     1    1.20
   25     1    1.20
   26     6    1.50
   27     1    1.20
   28     1    1.20
   29    16    1.75
   30     6    1.50
   31     1    1.20
   32     1    1.20
   33     6    1.50
   34     1    1.20
   35     1    1.20
   36    16    1.75
   37     6    1.50
   38     1    1.20
   39     1    1.20
   40     6    1.50
   41     1    1.20
   42     1    1.20
   43    16    1.75
   44     6    1.50
   45     1    1.20
   46     1    1.20
   47     6    1.50
   48     1    1.20
   49     1    1.20
   50     1    1.20
 Generate VDW surfaces: Layer= 4 Dens= 1 Start= 1.400 Inc= 0.200
            Electrostatic Properties Using The SCF Density.


       Atomic Center    1 is at   6.487026 -3.230333 -0.850483
       Atomic Center    2 is at   7.536116 -2.965397 -0.680531
       Atomic Center    3 is at   6.127890 -3.787656  0.021101
       Atomic Center    4 is at   6.449676 -3.892759 -1.723144
       Atomic Center    5 is at   5.615549 -1.998857 -1.090371
       Atomic Center    6 is at   5.979415 -1.432036 -1.962648
       Atomic Center    7 is at   4.586029 -2.306077 -1.303057
       Atomic Center    8 is at   5.522954 -1.138849  0.041661
       Atomic Center    9 is at   6.665786 -0.329479  0.265437
       Atomic Center   10 is at   6.899826  0.262717 -0.634257
       Atomic Center   11 is at   7.549697 -0.942956  0.506276
       Atomic Center   12 is at   6.397807  0.608706  1.434637
       Atomic Center   13 is at   6.082824  0.018475  2.308343
       Atomic Center   14 is at   7.337440  1.113241  1.690061
       Atomic Center   15 is at   5.466738  1.637689  1.154362
       Atomic Center   16 is at   4.085523  1.308580  1.279246
       Atomic Center   17 is at   3.626207  1.999269  1.999545
       Atomic Center   18 is at   3.959766  0.286590  1.652746
       Atomic Center   19 is at   3.402644  1.477784 -0.080878
       Atomic Center   20 is at   3.826180  0.760355 -0.796518
       Atomic Center   21 is at   3.595701  2.489958 -0.450607
       Atomic Center   22 is at   1.988545  1.342210  0.000000
       Atomic Center   23 is at   1.522165  0.000000  0.000000
       Atomic Center   24 is at   1.874199 -0.536519  0.896884
       Atomic Center   25 is at   1.905132 -0.536050 -0.882045
       Atomic Center   26 is at   0.000000  0.000000  0.000000
       Atomic Center   27 is at  -0.383274  0.588692  0.839655
       Atomic Center   28 is at  -0.352387 -1.027882  0.141296
       Atomic Center   29 is at  -0.820324  0.529848 -1.553417
       Atomic Center   30 is at  -0.478500  2.336937 -1.647822
       Atomic Center   31 is at   0.575249  2.488129 -1.893276
       Atomic Center   32 is at  -1.085847  2.665101 -2.497903
       Atomic Center   33 is at  -0.808067  3.165990 -0.408620
       Atomic Center   34 is at  -0.640918  4.220584 -0.659950
       Atomic Center   35 is at  -0.124480  2.906611  0.405418
       Atomic Center   36 is at  -2.552309  2.953059  0.143694
       Atomic Center   37 is at  -2.644103  4.351535  1.331222
       Atomic Center   38 is at  -1.719731  4.364213  1.923488
       Atomic Center   39 is at  -3.456328  4.098797  2.020072
       Atomic Center   40 is at  -2.877907  5.735600  0.712646
       Atomic Center   41 is at  -2.691543  6.512959  1.463880
       Atomic Center   42 is at  -2.174795  5.916383 -0.106392
       Atomic Center   43 is at  -4.544258  6.000565 -0.012399
       Atomic Center   44 is at  -5.539909  6.342032  1.497552
       Atomic Center   45 is at  -6.577219  6.225174  1.166369
       Atomic Center   46 is at  -5.356590  5.551035  2.233878
       Atomic Center   47 is at  -5.327825  7.726463  2.109632
       Atomic Center   48 is at  -4.293610  7.870035  2.441457
       Atomic Center   49 is at  -5.559772  8.513520  1.385482
       Atomic Center   50 is at  -5.976743  7.859369  2.984815
      ESP Fit Center   51 is at   4.915153 -4.622891 -0.850483
      ESP Fit Center   52 is at   5.742356 -5.193867 -0.850483
      ESP Fit Center   53 is at   6.740153 -5.315022 -0.850483
      ESP Fit Center   54 is at   7.679962 -4.958599 -0.850483
      ESP Fit Center   55 is at   7.536116 -2.965397  0.999469
      ESP Fit Center   56 is at   8.523595 -2.965397  0.678618
      ESP Fit Center   57 is at   7.841264 -3.904546  0.678618
      ESP Fit Center   58 is at   9.133891 -2.965397 -0.161382
      ESP Fit Center   59 is at   8.760083 -1.938367 -0.161382
      ESP Fit Center   60 is at   8.760083 -3.992427 -0.161382
      ESP Fit Center   61 is at   9.133891 -2.965397 -1.199680
      ESP Fit Center   62 is at   8.760083 -1.938367 -1.199680
      ESP Fit Center   63 is at   7.813567 -1.391896 -1.199680
      ESP Fit Center   64 is at   8.760083 -3.992427 -1.199680
      ESP Fit Center   65 is at   8.523595 -2.965397 -2.039680
      ESP Fit Center   66 is at   7.841264 -2.026248 -2.039680
      ESP Fit Center   67 is at   6.127890 -3.787656  1.701101
      ESP Fit Center   68 is at   7.115369 -3.787656  1.380250
      ESP Fit Center   69 is at   6.433038 -2.848507  1.380250
      ESP Fit Center   70 is at   5.329003 -3.207230  1.380250
      ESP Fit Center   71 is at   5.329003 -4.368082  1.380250
      ESP Fit Center   72 is at   6.433038 -4.726805  1.380250
      ESP Fit Center   73 is at   4.626473 -3.241185  0.540250
      ESP Fit Center   74 is at   4.626473 -4.334127  0.540250
      ESP Fit Center   75 is at   5.329003 -5.171370  0.540250
      ESP Fit Center   76 is at   6.405341 -5.361157  0.540250
      ESP Fit Center   77 is at   7.351857 -4.814686  0.540250
      ESP Fit Center   78 is at   4.626473 -4.334127 -0.498048
      ESP Fit Center   79 is at   5.329003 -5.171370 -0.498048
      ESP Fit Center   80 is at   6.405341 -5.361157 -0.498048
      ESP Fit Center   81 is at   5.650789 -5.276473 -1.203995
      ESP Fit Center   82 is at   6.727127 -5.466260 -1.203995
      ESP Fit Center   83 is at   8.047451 -3.892759 -2.242293
      ESP Fit Center   84 is at   4.948259 -4.439230 -2.242293
      ESP Fit Center   85 is at   5.650789 -5.276473 -2.242293
      ESP Fit Center   86 is at   6.727127 -5.466260 -2.242293
      ESP Fit Center   87 is at   7.673643 -4.919789 -2.242293
      ESP Fit Center   88 is at   7.437155 -3.892759 -3.082293
      ESP Fit Center   89 is at   6.754824 -2.953610 -3.082293
      ESP Fit Center   90 is at   5.650789 -3.312333 -3.082293
      ESP Fit Center   91 is at   5.650789 -4.473185 -3.082293
      ESP Fit Center   92 is at   6.754824 -4.831908 -3.082293
      ESP Fit Center   93 is at   6.449676 -3.892759 -3.403144
      ESP Fit Center   94 is at   4.424584 -0.624411 -2.140371
      ESP Fit Center   95 is at   5.090549 -2.908184 -2.909024
      ESP Fit Center   96 is at   7.577190 -1.432036 -2.481797
      ESP Fit Center   97 is at   7.203382 -0.405006 -2.481797
      ESP Fit Center   98 is at   6.256866  0.141465 -2.481797
      ESP Fit Center   99 is at   5.180528 -0.048322 -2.481797
      ESP Fit Center  100 is at   4.477998 -0.885565 -2.481797
      ESP Fit Center  101 is at   6.966894 -1.432036 -3.321797
      ESP Fit Center  102 is at   6.284563 -0.492887 -3.321797
      ESP Fit Center  103 is at   5.180528 -0.851610 -3.321797
      ESP Fit Center  104 is at   5.180528 -2.012462 -3.321797
      ESP Fit Center  105 is at   6.284563 -2.371185 -3.321797
      ESP Fit Center  106 is at   5.979415 -1.432036 -3.642648
      ESP Fit Center  107 is at   3.787142 -2.886503  0.056092
      ESP Fit Center  108 is at   3.084612 -1.759606 -0.783908
      ESP Fit Center  109 is at   3.084612 -2.852548 -0.783908
      ESP Fit Center  110 is at   3.787142 -3.689791 -0.783908
      ESP Fit Center  111 is at   3.787142 -0.922363 -1.822206
      ESP Fit Center  112 is at   3.084612 -1.759606 -1.822206
      ESP Fit Center  113 is at   3.084612 -2.852548 -1.822206
      ESP Fit Center  114 is at   3.787142 -3.689791 -1.822206
      ESP Fit Center  115 is at   3.787142 -1.725651 -2.662206
      ESP Fit Center  116 is at   3.787142 -2.886503 -2.662206
      ESP Fit Center  117 is at   4.891177 -3.245226 -2.662206
      ESP Fit Center  118 is at   4.586029 -2.306077 -2.983057
      ESP Fit Center  119 is at   5.032954 -1.987554  1.739071
      ESP Fit Center  120 is at   6.012954 -1.987554  1.739071
      ESP Fit Center  121 is at   4.149721 -2.136561  1.021661
      ESP Fit Center  122 is at   4.998426 -2.753182  1.021661
      ESP Fit Center  123 is at   3.562954 -1.138849  0.041661
      ESP Fit Center  124 is at   8.525244  0.646440  0.265437
      ESP Fit Center  125 is at   8.484439 -0.329479 -0.784563
      ESP Fit Center  126 is at   8.123793  1.289747 -0.115108
      ESP Fit Center  127 is at   7.177277  1.836218 -0.115108
      ESP Fit Center  128 is at   8.497601  0.262717 -1.153406
      ESP Fit Center  129 is at   8.123793  1.289747 -1.153406
      ESP Fit Center  130 is at   7.177277  1.836218 -1.153406
      ESP Fit Center  131 is at   6.100939  1.646431 -1.153406
      ESP Fit Center  132 is at   7.887305  0.262717 -1.993406
      ESP Fit Center  133 is at   7.204974  1.201866 -1.993406
      ESP Fit Center  134 is at   6.100939  0.843143 -1.993406
      ESP Fit Center  135 is at   6.899826  0.262717 -2.314257
      ESP Fit Center  136 is at   8.537176 -0.942956  1.865425
      ESP Fit Center  137 is at   7.854845 -1.882105  1.865425
      ESP Fit Center  138 is at   9.147472 -0.942956  1.025425
      ESP Fit Center  139 is at   8.773664  0.084074  1.025425
      ESP Fit Center  140 is at   7.827148 -2.516457  1.025425
      ESP Fit Center  141 is at   8.773664 -1.969986  1.025425
      ESP Fit Center  142 is at   9.147472 -0.942956 -0.012873
      ESP Fit Center  143 is at   8.773664  0.084074 -0.012873
      ESP Fit Center  144 is at   8.773664 -1.969986 -0.012873
      ESP Fit Center  145 is at   8.537176 -0.942956 -0.852873
      ESP Fit Center  146 is at   5.872807  1.518033  3.253290
      ESP Fit Center  147 is at   7.927756 -0.374532  2.484637
      ESP Fit Center  148 is at   6.082824  0.018475  3.988343
      ESP Fit Center  149 is at   7.070303  0.018475  3.667492
      ESP Fit Center  150 is at   6.387972  0.957624  3.667492
      ESP Fit Center  151 is at   5.283937  0.598901  3.667492
      ESP Fit Center  152 is at   5.283937 -0.561951  3.667492
      ESP Fit Center  153 is at   6.387972 -0.920674  3.667492
      ESP Fit Center  154 is at   5.283937 -1.365239  2.827492
      ESP Fit Center  155 is at   6.360275 -1.555026  2.827492
      ESP Fit Center  156 is at   7.306791 -1.008555  2.827492
      ESP Fit Center  157 is at   7.337440  1.113241  3.370061
      ESP Fit Center  158 is at   8.324919  1.113241  3.049210
      ESP Fit Center  159 is at   7.642588  2.052390  3.049210
      ESP Fit Center  160 is at   8.935215  1.113241  2.209210
      ESP Fit Center  161 is at   8.561407  2.140271  2.209210
      ESP Fit Center  162 is at   7.614891  2.686742  2.209210
      ESP Fit Center  163 is at   8.561407  0.086211  2.209210
      ESP Fit Center  164 is at   8.935215  1.113241  1.170912
      ESP Fit Center  165 is at   8.561407  2.140271  1.170912
      ESP Fit Center  166 is at   7.614891  2.686742  1.170912
      ESP Fit Center  167 is at   8.324919  1.113241  0.330912
      ESP Fit Center  168 is at   7.642588  2.052390  0.330912
      ESP Fit Center  169 is at   5.466738  1.637689  3.114362
      ESP Fit Center  170 is at   5.956738  2.486394  2.851772
      ESP Fit Center  171 is at   5.991266  3.252022  2.134362
      ESP Fit Center  172 is at   4.942210  3.252022  2.134362
      ESP Fit Center  173 is at   6.446738  3.335099  1.154362
      ESP Fit Center  174 is at   5.466738  3.597689  1.154362
      ESP Fit Center  175 is at   6.839971  2.635401  0.174362
      ESP Fit Center  176 is at   5.991266  3.252022  0.174362
      ESP Fit Center  177 is at   5.956738  2.486394 -0.543048
      ESP Fit Center  178 is at   5.466738  1.637689 -0.805638
      ESP Fit Center  179 is at   5.135523  1.308580  3.097899
      ESP Fit Center  180 is at   2.340538  0.796206  2.329246
      ESP Fit Center  181 is at   4.338650  3.393269  1.279246
      ESP Fit Center  182 is at   3.626207  1.999269  3.679545
      ESP Fit Center  183 is at   4.613686  1.999269  3.358694
      ESP Fit Center  184 is at   3.931355  2.938418  3.358694
      ESP Fit Center  185 is at   2.827320  2.579695  3.358694
      ESP Fit Center  186 is at   2.827320  1.418843  3.358694
      ESP Fit Center  187 is at   4.850174  3.026299  2.518694
      ESP Fit Center  188 is at   3.903658  3.572770  2.518694
      ESP Fit Center  189 is at   2.827320  3.382983  2.518694
      ESP Fit Center  190 is at   2.124790  2.545740  2.518694
      ESP Fit Center  191 is at   2.124790  1.452798  2.518694
      ESP Fit Center  192 is at   3.903658  3.572770  1.480396
      ESP Fit Center  193 is at   2.827320  3.382983  1.480396
      ESP Fit Center  194 is at   3.959766  0.286590  3.332746
      ESP Fit Center  195 is at   3.160879 -0.293836  3.011895
      ESP Fit Center  196 is at   4.264914 -0.652559  3.011895
      ESP Fit Center  197 is at   3.160879 -1.097124  2.171895
      ESP Fit Center  198 is at   4.237217 -1.286911  2.171895
      ESP Fit Center  199 is at   3.143823  3.277926  0.969122
      ESP Fit Center  200 is at   5.423955  0.760355 -1.315667
      ESP Fit Center  201 is at   4.813659  0.760355 -2.155667
      ESP Fit Center  202 is at   4.131328  1.699504 -2.155667
      ESP Fit Center  203 is at   3.027293  1.340781 -2.155667
      ESP Fit Center  204 is at   3.027293  0.179929 -2.155667
      ESP Fit Center  205 is at   4.131328 -0.178794 -2.155667
      ESP Fit Center  206 is at   3.826180  0.760355 -2.476518
      ESP Fit Center  207 is at   3.900849  3.429107  0.908542
      ESP Fit Center  208 is at   4.819668  3.516988  0.068542
      ESP Fit Center  209 is at   3.873152  4.063459  0.068542
      ESP Fit Center  210 is at   2.796814  3.873672  0.068542
      ESP Fit Center  211 is at   5.193476  2.489958 -0.969756
      ESP Fit Center  212 is at   4.819668  3.516988 -0.969756
      ESP Fit Center  213 is at   3.873152  4.063459 -0.969756
      ESP Fit Center  214 is at   2.796814  3.873672 -0.969756
      ESP Fit Center  215 is at   4.583180  2.489958 -1.809756
      ESP Fit Center  216 is at   3.900849  3.429107 -1.809756
      ESP Fit Center  217 is at   2.796814  3.070384 -1.809756
      ESP Fit Center  218 is at   3.595701  2.489958 -2.130607
      ESP Fit Center  219 is at   1.988545  1.342210  1.960000
      ESP Fit Center  220 is at   1.498545  2.190915  1.697410
      ESP Fit Center  221 is at   1.008545  1.342210  1.697410
      ESP Fit Center  222 is at   1.464017  2.956543  0.980000
      ESP Fit Center  223 is at   1.988545  3.302210  0.000000
      ESP Fit Center  224 is at   1.988545  1.342210 -1.960000
      ESP Fit Center  225 is at   0.997165  0.909327  1.818653
      ESP Fit Center  226 is at   1.775292 -2.084689  0.000000
      ESP Fit Center  227 is at   2.715101 -1.728266  0.000000
      ESP Fit Center  228 is at   3.381623 -0.975919  0.000000
      ESP Fit Center  229 is at   1.874199 -0.536519  2.576884
      ESP Fit Center  230 is at   2.179347  0.402630  2.256033
      ESP Fit Center  231 is at   1.075312  0.043907  2.256033
      ESP Fit Center  232 is at   1.075312 -1.116945  2.256033
      ESP Fit Center  233 is at   2.179347 -1.475668  2.256033
      ESP Fit Center  234 is at   1.075312 -1.920233  1.416033
      ESP Fit Center  235 is at   2.151650 -2.110020  1.416033
      ESP Fit Center  236 is at   3.098166 -1.563549  1.416033
      ESP Fit Center  237 is at   2.151650 -2.110020  0.377735
      ESP Fit Center  238 is at   3.098166 -1.563549  0.377735
      ESP Fit Center  239 is at   2.182583 -2.109551 -0.362896
      ESP Fit Center  240 is at   3.129099 -1.563080 -0.362896
      ESP Fit Center  241 is at   1.106245 -1.919764 -1.401194
      ESP Fit Center  242 is at   2.182583 -2.109551 -1.401194
      ESP Fit Center  243 is at   2.892611 -0.536050 -2.241194
      ESP Fit Center  244 is at   2.210280  0.403099 -2.241194
      ESP Fit Center  245 is at   1.106245 -1.116476 -2.241194
      ESP Fit Center  246 is at   2.210280 -1.475199 -2.241194
      ESP Fit Center  247 is at   1.905132 -0.536050 -2.562045
      ESP Fit Center  248 is at  -0.525000 -0.909327  1.818653
      ESP Fit Center  249 is at  -1.744985 -0.512374  1.050000
      ESP Fit Center  250 is at  -0.383274  0.588692  2.519655
      ESP Fit Center  251 is at   0.604205  0.588692  2.198804
      ESP Fit Center  252 is at  -0.078126  1.527841  2.198804
      ESP Fit Center  253 is at  -1.182161  1.169118  2.198804
      ESP Fit Center  254 is at  -1.182161  0.008266  2.198804
      ESP Fit Center  255 is at  -0.078126 -0.350457  2.198804
      ESP Fit Center  256 is at  -1.884691  0.042221  1.358804
      ESP Fit Center  257 is at  -0.352387 -1.027882  1.821296
      ESP Fit Center  258 is at  -1.151274 -1.608308  1.500445
      ESP Fit Center  259 is at  -0.047239 -1.967031  1.500445
      ESP Fit Center  260 is at  -1.853804 -1.574353  0.660445
      ESP Fit Center  261 is at  -1.151274 -2.411596  0.660445
      ESP Fit Center  262 is at  -0.074936 -2.601383  0.660445
      ESP Fit Center  263 is at   0.871580 -2.054912  0.660445
      ESP Fit Center  264 is at  -1.853804 -1.574353 -0.377853
      ESP Fit Center  265 is at  -1.151274 -2.411596 -0.377853
      ESP Fit Center  266 is at  -0.074936 -2.601383 -0.377853
      ESP Fit Center  267 is at   0.871580 -2.054912 -0.377853
      ESP Fit Center  268 is at  -0.047239 -1.967031 -1.217853
      ESP Fit Center  269 is at  -2.658220 -0.009807 -0.025867
      ESP Fit Center  270 is at  -2.074701 -0.917781 -0.025867
      ESP Fit Center  271 is at  -3.208897  0.529848 -1.008241
      ESP Fit Center  272 is at  -2.972354 -0.506515 -1.008241
      ESP Fit Center  273 is at  -2.309575 -1.337614 -1.008241
      ESP Fit Center  274 is at  -1.351832 -1.798839 -1.008241
      ESP Fit Center  275 is at  -2.972354  1.566211 -2.098593
      ESP Fit Center  276 is at  -3.208897  0.529848 -2.098593
      ESP Fit Center  277 is at  -2.972354 -0.506515 -2.098593
      ESP Fit Center  278 is at  -2.309575 -1.337614 -2.098593
      ESP Fit Center  279 is at  -1.351832 -1.798839 -2.098593
      ESP Fit Center  280 is at  -0.288816 -1.798839 -2.098593
      ESP Fit Center  281 is at   0.668927 -1.337614 -2.098593
      ESP Fit Center  282 is at   1.095163  0.529848 -3.080967
      ESP Fit Center  283 is at  -2.658220  1.069503 -3.080967
      ESP Fit Center  284 is at  -2.658220 -0.009807 -3.080967
      ESP Fit Center  285 is at  -2.074701 -0.917781 -3.080967
      ESP Fit Center  286 is at  -1.092926 -1.366142 -3.080967
      ESP Fit Center  287 is at  -0.024602 -1.212540 -3.080967
      ESP Fit Center  288 is at   0.791086 -0.505743 -3.080967
      ESP Fit Center  289 is at   0.242691  0.529848 -3.760791
      ESP Fit Center  290 is at  -0.288816  1.450446 -3.760791
      ESP Fit Center  291 is at  -1.351832  1.450446 -3.760791
      ESP Fit Center  292 is at  -1.883339  0.529848 -3.760791
      ESP Fit Center  293 is at  -1.351832 -0.390750 -3.760791
      ESP Fit Center  294 is at  -0.288816 -0.390750 -3.760791
      ESP Fit Center  295 is at  -0.820324  0.529848 -4.003417
      ESP Fit Center  296 is at   0.276996  3.991242 -2.697822
      ESP Fit Center  297 is at   1.799216  3.515159 -1.374127
      ESP Fit Center  298 is at   2.173024  2.488129 -2.412425
      ESP Fit Center  299 is at   1.799216  3.515159 -2.412425
      ESP Fit Center  300 is at   0.852700  4.061630 -2.412425
      ESP Fit Center  301 is at   1.799216  1.461099 -2.412425
      ESP Fit Center  302 is at   1.562728  2.488129 -3.252425
      ESP Fit Center  303 is at   0.880397  3.427278 -3.252425
      ESP Fit Center  304 is at   0.880397  1.548980 -3.252425
      ESP Fit Center  305 is at   0.575249  2.488129 -3.573276
      ESP Fit Center  306 is at  -0.808396  4.238602 -3.017052
      ESP Fit Center  307 is at  -1.884734  4.048815 -3.017052
      ESP Fit Center  308 is at  -2.587264  3.211572 -3.017052
      ESP Fit Center  309 is at  -2.587264  2.118630 -3.017052
      ESP Fit Center  310 is at  -0.098368  2.665101 -3.857052
      ESP Fit Center  311 is at  -0.780699  3.604250 -3.857052
      ESP Fit Center  312 is at  -1.884734  3.245527 -3.857052
      ESP Fit Center  313 is at  -1.884734  2.084675 -3.857052
      ESP Fit Center  314 is at  -0.780699  1.725952 -3.857052
      ESP Fit Center  315 is at  -1.085847  2.665101 -4.177903
      ESP Fit Center  316 is at   1.051391  4.141909 -0.408620
      ESP Fit Center  317 is at  -0.335770  5.159733  0.699199
      ESP Fit Center  318 is at   0.583049  5.247614 -0.140801
      ESP Fit Center  319 is at  -0.363467  5.794085 -0.140801
      ESP Fit Center  320 is at   0.956857  4.220584 -1.179099
      ESP Fit Center  321 is at   0.583049  5.247614 -1.179099
      ESP Fit Center  322 is at  -0.363467  5.794085 -1.179099
      ESP Fit Center  323 is at  -0.335770  5.159733 -2.019099
      ESP Fit Center  324 is at  -1.439805  4.801010 -2.019099
      ESP Fit Center  325 is at  -0.124480  2.906611  2.085418
      ESP Fit Center  326 is at   0.862999  2.906611  1.764567
      ESP Fit Center  327 is at   0.180668  3.845760  1.764567
      ESP Fit Center  328 is at   0.180668  1.967462  1.764567
      ESP Fit Center  329 is at   1.099487  3.933641  0.924567
      ESP Fit Center  330 is at   0.152971  4.480112  0.924567
      ESP Fit Center  331 is at  -3.083817  2.032461  2.351068
      ESP Fit Center  332 is at  -2.020801  2.032461  2.351068
      ESP Fit Center  333 is at  -4.390205  2.413404  1.671244
      ESP Fit Center  334 is at  -3.806686  1.505430  1.671244
      ESP Fit Center  335 is at  -2.824911  1.057069  1.671244
      ESP Fit Center  336 is at  -1.756587  1.210671  1.671244
      ESP Fit Center  337 is at  -4.940882  2.953059  0.688870
      ESP Fit Center  338 is at  -4.704339  1.916696  0.688870
      ESP Fit Center  339 is at  -4.041560  1.085597  0.688870
      ESP Fit Center  340 is at  -3.083817  0.624372  0.688870
      ESP Fit Center  341 is at  -4.940882  2.953059 -0.401482
      ESP Fit Center  342 is at  -4.704339  1.916696 -0.401482
      ESP Fit Center  343 is at  -4.041560  1.085597 -0.401482
      ESP Fit Center  344 is at  -3.083817  0.624372 -0.401482
      ESP Fit Center  345 is at  -2.824911  4.849049 -1.383856
      ESP Fit Center  346 is at  -4.390205  3.492714 -1.383856
      ESP Fit Center  347 is at  -4.390205  2.413404 -1.383856
      ESP Fit Center  348 is at  -3.806686  1.505430 -1.383856
      ESP Fit Center  349 is at  -3.083817  3.873657 -2.063680
      ESP Fit Center  350 is at  -3.615324  2.953059 -2.063680
      ESP Fit Center  351 is at  -3.083817  2.032461 -2.063680
      ESP Fit Center  352 is at  -1.719731  4.364213  3.603488
      ESP Fit Center  353 is at  -0.732252  4.364213  3.282637
      ESP Fit Center  354 is at  -1.414583  5.303362  3.282637
      ESP Fit Center  355 is at  -1.414583  3.425064  3.282637
      ESP Fit Center  356 is at  -0.121956  4.364213  2.442637
      ESP Fit Center  357 is at  -0.495764  5.391243  2.442637
      ESP Fit Center  358 is at  -1.442280  5.937714  2.442637
      ESP Fit Center  359 is at  -1.442280  2.790712  2.442637
      ESP Fit Center  360 is at  -0.495764  3.337183  2.442637
      ESP Fit Center  361 is at  -0.121956  4.364213  1.404339
      ESP Fit Center  362 is at  -0.495764  5.391243  1.404339
      ESP Fit Center  363 is at  -3.456328  4.098797  3.700072
      ESP Fit Center  364 is at  -3.151180  5.037946  3.379221
      ESP Fit Center  365 is at  -4.255215  4.679223  3.379221
      ESP Fit Center  366 is at  -4.255215  3.518371  3.379221
      ESP Fit Center  367 is at  -3.151180  3.159648  3.379221
      ESP Fit Center  368 is at  -4.957745  3.552326  2.539221
      ESP Fit Center  369 is at  -4.255215  2.715083  2.539221
      ESP Fit Center  370 is at  -3.178877  2.525296  2.539221
      ESP Fit Center  371 is at  -4.957745  3.552326  1.500923
      ESP Fit Center  372 is at  -2.691543  6.512959  3.143880
      ESP Fit Center  373 is at  -1.704064  6.512959  2.823029
      ESP Fit Center  374 is at  -2.386395  7.452108  2.823029
      ESP Fit Center  375 is at  -3.490430  5.932533  2.823029
      ESP Fit Center  376 is at  -1.093768  6.512959  1.983029
      ESP Fit Center  377 is at  -1.467576  7.539989  1.983029
      ESP Fit Center  378 is at  -2.414092  8.086460  1.983029
      ESP Fit Center  379 is at  -1.467576  7.539989  0.944731
      ESP Fit Center  380 is at  -2.414092  8.086460  0.944731
      ESP Fit Center  381 is at  -0.577020  5.916383  0.412757
      ESP Fit Center  382 is at  -0.950828  6.943413  0.412757
      ESP Fit Center  383 is at  -0.577020  5.916383 -0.625541
      ESP Fit Center  384 is at  -0.950828  6.943413 -0.625541
      ESP Fit Center  385 is at  -1.897344  7.489884 -0.625541
      ESP Fit Center  386 is at  -1.187316  5.916383 -1.465541
      ESP Fit Center  387 is at  -1.869647  6.855532 -1.465541
      ESP Fit Center  388 is at  -2.174795  5.916383 -1.786392
      ESP Fit Center  389 is at  -3.055007  7.868027  0.532777
      ESP Fit Center  390 is at  -4.012750  8.329252  0.532777
      ESP Fit Center  391 is at  -6.033509  4.133103  0.532777
      ESP Fit Center  392 is at  -5.075766  3.671878  0.532777
      ESP Fit Center  393 is at  -3.055007  7.868027 -0.557575
      ESP Fit Center  394 is at  -4.012750  8.329252 -0.557575
      ESP Fit Center  395 is at  -5.075766  8.329252 -0.557575
      ESP Fit Center  396 is at  -6.033509  7.868027 -0.557575
      ESP Fit Center  397 is at  -6.696288  7.036928 -0.557575
      ESP Fit Center  398 is at  -6.932831  6.000565 -0.557575
      ESP Fit Center  399 is at  -6.696288  4.964202 -0.557575
      ESP Fit Center  400 is at  -6.033509  4.133103 -0.557575
      ESP Fit Center  401 is at  -5.075766  3.671878 -0.557575
      ESP Fit Center  402 is at  -2.932848  7.036156 -1.539949
      ESP Fit Center  403 is at  -3.748536  7.742953 -1.539949
      ESP Fit Center  404 is at  -4.816860  7.896555 -1.539949
      ESP Fit Center  405 is at  -5.798635  7.448194 -1.539949
      ESP Fit Center  406 is at  -6.382154  6.540220 -1.539949
      ESP Fit Center  407 is at  -6.382154  5.460910 -1.539949
      ESP Fit Center  408 is at  -5.798635  4.552936 -1.539949
      ESP Fit Center  409 is at  -4.816860  4.104575 -1.539949
      ESP Fit Center  410 is at  -2.932848  4.964974 -1.539949
      ESP Fit Center  411 is at  -3.481243  6.000565 -2.219773
      ESP Fit Center  412 is at  -4.012750  6.921163 -2.219773
      ESP Fit Center  413 is at  -5.075766  6.921163 -2.219773
      ESP Fit Center  414 is at  -5.607273  6.000565 -2.219773
      ESP Fit Center  415 is at  -5.075766  5.079967 -2.219773
      ESP Fit Center  416 is at  -4.012750  5.079967 -2.219773
      ESP Fit Center  417 is at  -4.544258  6.000565 -2.462399
      ESP Fit Center  418 is at  -7.376106  6.805600  2.525518
      ESP Fit Center  419 is at  -7.376106  5.644748  2.525518
      ESP Fit Center  420 is at  -8.078636  6.771645  1.685518
      ESP Fit Center  421 is at  -8.078636  5.678703  1.685518
      ESP Fit Center  422 is at  -7.376106  4.841460  1.685518
      ESP Fit Center  423 is at  -7.376106  7.608888  0.647220
      ESP Fit Center  424 is at  -8.078636  6.771645  0.647220
      ESP Fit Center  425 is at  -8.078636  5.678703  0.647220
      ESP Fit Center  426 is at  -7.376106  4.841460  0.647220
      ESP Fit Center  427 is at  -7.376106  6.805600 -0.192780
      ESP Fit Center  428 is at  -7.376106  5.644748 -0.192780
      ESP Fit Center  429 is at  -5.356590  5.551035  3.913878
      ESP Fit Center  430 is at  -4.369111  5.551035  3.593027
      ESP Fit Center  431 is at  -6.155477  6.131461  3.593027
      ESP Fit Center  432 is at  -6.155477  4.970609  3.593027
      ESP Fit Center  433 is at  -5.051442  4.611886  3.593027
      ESP Fit Center  434 is at  -6.858007  5.004564  2.753027
      ESP Fit Center  435 is at  -6.155477  4.167321  2.753027
      ESP Fit Center  436 is at  -5.079139  3.977534  2.753027
      ESP Fit Center  437 is at  -6.155477  4.167321  1.714729
      ESP Fit Center  438 is at  -4.802825  8.635790  3.928285
      ESP Fit Center  439 is at  -4.802825  6.817136  3.928285
      ESP Fit Center  440 is at  -4.572329  9.380768  3.159632
      ESP Fit Center  441 is at  -5.586646  9.526605  3.159632
      ESP Fit Center  442 is at  -7.366803  8.229026  2.109632
      ESP Fit Center  443 is at  -3.797876  8.709701  1.059632
      ESP Fit Center  444 is at  -4.293610  7.870035  4.121457
      ESP Fit Center  445 is at  -3.306131  7.870035  3.800606
      ESP Fit Center  446 is at  -3.988462  8.809184  3.800606
      ESP Fit Center  447 is at  -3.988462  6.930886  3.800606
      ESP Fit Center  448 is at  -2.695835  7.870035  2.960606
      ESP Fit Center  449 is at  -3.069643  8.897065  2.960606
      ESP Fit Center  450 is at  -4.016159  9.443536  2.960606
      ESP Fit Center  451 is at  -4.016159  6.296534  2.960606
      ESP Fit Center  452 is at  -3.069643  8.897065  1.922308
      ESP Fit Center  453 is at  -4.016159  9.443536  1.922308
      ESP Fit Center  454 is at  -5.282321 10.087021  1.904631
      ESP Fit Center  455 is at  -6.358659  9.897234  1.904631
      ESP Fit Center  456 is at  -7.061189  9.059991  1.904631
      ESP Fit Center  457 is at  -4.335805  9.540550  0.866333
      ESP Fit Center  458 is at  -5.282321 10.087021  0.866333
      ESP Fit Center  459 is at  -6.358659  9.897234  0.866333
      ESP Fit Center  460 is at  -7.061189  9.059991  0.866333
      ESP Fit Center  461 is at  -7.061189  7.967049  0.866333
      ESP Fit Center  462 is at  -4.572293  8.513520  0.026333
      ESP Fit Center  463 is at  -5.254624  9.452669  0.026333
      ESP Fit Center  464 is at  -6.358659  9.093946  0.026333
      ESP Fit Center  465 is at  -6.358659  7.933094  0.026333
      ESP Fit Center  466 is at  -5.559772  8.513520 -0.294518
      ESP Fit Center  467 is at  -5.976743  7.859369  4.664815
      ESP Fit Center  468 is at  -4.989264  7.859369  4.343964
      ESP Fit Center  469 is at  -5.671595  8.798518  4.343964
      ESP Fit Center  470 is at  -6.775630  8.439795  4.343964
      ESP Fit Center  471 is at  -6.775630  7.278943  4.343964
      ESP Fit Center  472 is at  -5.671595  6.920220  4.343964
      ESP Fit Center  473 is at  -5.699292  9.432870  3.503964
      ESP Fit Center  474 is at  -6.775630  9.243083  3.503964
      ESP Fit Center  475 is at  -7.478160  8.405840  3.503964
      ESP Fit Center  476 is at  -7.478160  7.312898  3.503964
      ESP Fit Center  477 is at  -6.775630  6.475655  3.503964
      ESP Fit Center  478 is at  -6.775630  9.243083  2.465666
      ESP Fit Center  479 is at  -7.478160  8.405840  2.465666
      ESP Fit Center  480 is at  -7.478160  7.312898  2.465666
      ESP Fit Center  481 is at   7.528347 -3.230333  1.311842
      ESP Fit Center  482 is at   7.007686 -5.511496 -0.316433
      ESP Fit Center  483 is at   7.945884 -5.059683 -0.316433
      ESP Fit Center  484 is at   4.378915 -4.245546 -1.384533
      ESP Fit Center  485 is at   7.945884 -5.059683 -1.384533
      ESP Fit Center  486 is at   8.496116 -2.965397  0.982238
      ESP Fit Center  487 is at   8.016116 -3.796781  0.982238
      ESP Fit Center  488 is at   9.198885 -2.965397  0.279469
      ESP Fit Center  489 is at   8.881324 -3.942748  0.279469
      ESP Fit Center  490 is at   9.456116 -2.965397 -0.680531
      ESP Fit Center  491 is at   9.198885 -2.005397 -0.680531
      ESP Fit Center  492 is at   8.496116 -4.628166 -0.680531
      ESP Fit Center  493 is at   9.198885 -3.925397 -0.680531
      ESP Fit Center  494 is at   9.198885 -2.965397 -1.640531
      ESP Fit Center  495 is at   8.881324 -1.988046 -1.640531
      ESP Fit Center  496 is at   8.049940 -1.384010 -1.640531
      ESP Fit Center  497 is at   8.881324 -3.942748 -1.640531
      ESP Fit Center  498 is at   8.496116 -2.965397 -2.343300
      ESP Fit Center  499 is at   8.016116 -2.134013 -2.343300
      ESP Fit Center  500 is at   6.127890 -3.787656  1.941101
      ESP Fit Center  501 is at   7.087890 -3.787656  1.683870
      ESP Fit Center  502 is at   6.607890 -2.956272  1.683870
      ESP Fit Center  503 is at   5.647890 -2.956272  1.683870
      ESP Fit Center  504 is at   5.167890 -3.787656  1.683870
      ESP Fit Center  505 is at   5.647890 -4.619040  1.683870
      ESP Fit Center  506 is at   6.607890 -4.619040  1.683870
      ESP Fit Center  507 is at   4.465121 -3.787656  0.981101
      ESP Fit Center  508 is at   4.782682 -4.765007  0.981101
      ESP Fit Center  509 is at   5.614066 -5.369043  0.981101
      ESP Fit Center  510 is at   6.641714 -5.369043  0.981101
      ESP Fit Center  511 is at   7.473098 -4.765007  0.981101
      ESP Fit Center  512 is at   4.207890 -3.787656  0.021101
      ESP Fit Center  513 is at   4.465121 -4.747656  0.021101
      ESP Fit Center  514 is at   5.167890 -5.450425  0.021101
      ESP Fit Center  515 is at   6.127890 -5.707656  0.021101
      ESP Fit Center  516 is at   7.087890 -5.450425  0.021101
      ESP Fit Center  517 is at   4.786907 -4.852759 -1.723144
      ESP Fit Center  518 is at   5.489676 -5.555528 -1.723144
      ESP Fit Center  519 is at   6.449676 -5.812759 -1.723144
      ESP Fit Center  520 is at   7.409676 -5.555528 -1.723144
      ESP Fit Center  521 is at   8.112445 -4.852759 -1.723144
      ESP Fit Center  522 is at   8.112445 -3.892759 -2.683144
      ESP Fit Center  523 is at   4.786907 -3.892759 -2.683144
      ESP Fit Center  524 is at   5.104468 -4.870110 -2.683144
      ESP Fit Center  525 is at   5.935852 -5.474146 -2.683144
      ESP Fit Center  526 is at   6.963500 -5.474146 -2.683144
      ESP Fit Center  527 is at   7.794884 -4.870110 -2.683144
      ESP Fit Center  528 is at   7.409676 -3.892759 -3.385913
      ESP Fit Center  529 is at   6.929676 -3.061375 -3.385913
      ESP Fit Center  530 is at   5.969676 -3.061375 -3.385913
      ESP Fit Center  531 is at   5.489676 -3.892759 -3.385913
      ESP Fit Center  532 is at   5.969676 -4.724143 -3.385913
      ESP Fit Center  533 is at   6.929676 -4.724143 -3.385913
      ESP Fit Center  534 is at   6.449676 -3.892759 -3.643144
      ESP Fit Center  535 is at   4.574228 -1.998857 -3.252696
      ESP Fit Center  536 is at   5.094889 -2.900667 -3.252696
      ESP Fit Center  537 is at   7.899415 -1.432036 -1.962648
      ESP Fit Center  538 is at   7.642184 -1.432036 -2.922648
      ESP Fit Center  539 is at   7.324623 -0.454685 -2.922648
      ESP Fit Center  540 is at   6.493239  0.149351 -2.922648
      ESP Fit Center  541 is at   5.465591  0.149351 -2.922648
      ESP Fit Center  542 is at   4.634207 -0.454685 -2.922648
      ESP Fit Center  543 is at   6.939415 -1.432036 -3.625417
      ESP Fit Center  544 is at   6.459415 -0.600652 -3.625417
      ESP Fit Center  545 is at   5.499415 -0.600652 -3.625417
      ESP Fit Center  546 is at   5.019415 -1.432036 -3.625417
      ESP Fit Center  547 is at   5.499415 -2.263420 -3.625417
      ESP Fit Center  548 is at   6.459415 -2.263420 -3.625417
      ESP Fit Center  549 is at   5.979415 -1.432036 -3.882648
      ESP Fit Center  550 is at   3.626029 -2.306077  0.359712
      ESP Fit Center  551 is at   2.923260 -2.306077 -0.343057
      ESP Fit Center  552 is at   3.240821 -3.283428 -0.343057
      ESP Fit Center  553 is at   4.072205 -3.887464 -0.343057
      ESP Fit Center  554 is at   2.666029 -2.306077 -1.303057
      ESP Fit Center  555 is at   2.923260 -3.266077 -1.303057
      ESP Fit Center  556 is at   3.626029 -3.968846 -1.303057
      ESP Fit Center  557 is at   3.240821 -1.328726 -2.263057
      ESP Fit Center  558 is at   2.923260 -2.306077 -2.263057
      ESP Fit Center  559 is at   3.240821 -3.283428 -2.263057
      ESP Fit Center  560 is at   4.072205 -3.887464 -2.263057
      ESP Fit Center  561 is at   4.106029 -1.474693 -2.965826
      ESP Fit Center  562 is at   3.626029 -2.306077 -2.965826
      ESP Fit Center  563 is at   4.106029 -3.137461 -2.965826
      ESP Fit Center  564 is at   5.037004 -1.980539  2.059831
      ESP Fit Center  565 is at   6.008904 -1.980539  2.059831
      ESP Fit Center  566 is at   4.106120 -2.168239  1.438278
      ESP Fit Center  567 is at   4.981772 -2.804437  1.438278
      ESP Fit Center  568 is at   3.402574 -1.661476  0.540108
      ESP Fit Center  569 is at   3.888327 -2.587002  0.540108
      ESP Fit Center  570 is at   8.773897  0.685734 -0.268613
      ESP Fit Center  571 is at   8.819826  0.262717 -0.634257
      ESP Fit Center  572 is at   8.562595  1.222717 -0.634257
      ESP Fit Center  573 is at   7.859826  1.925486 -0.634257
      ESP Fit Center  574 is at   6.899826  2.182717 -0.634257
      ESP Fit Center  575 is at   8.562595  0.262717 -1.594257
      ESP Fit Center  576 is at   8.245034  1.240068 -1.594257
      ESP Fit Center  577 is at   7.413650  1.844104 -1.594257
      ESP Fit Center  578 is at   6.386002  1.844104 -1.594257
      ESP Fit Center  579 is at   5.554618  1.240068 -1.594257
      ESP Fit Center  580 is at   8.245034 -0.714634 -1.594257
      ESP Fit Center  581 is at   7.859826  0.262717 -2.297026
      ESP Fit Center  582 is at   7.379826  1.094101 -2.297026
      ESP Fit Center  583 is at   6.419826  1.094101 -2.297026
      ESP Fit Center  584 is at   6.899826  0.262717 -2.554257
      ESP Fit Center  585 is at   8.509697 -0.942956  2.169045
      ESP Fit Center  586 is at   7.069697 -1.774340  2.169045
      ESP Fit Center  587 is at   8.029697 -1.774340  2.169045
      ESP Fit Center  588 is at   9.212466 -0.942956  1.466276
      ESP Fit Center  589 is at   7.035873 -2.524343  1.466276
      ESP Fit Center  590 is at   8.063521 -2.524343  1.466276
      ESP Fit Center  591 is at   8.894905 -1.920307  1.466276
      ESP Fit Center  592 is at   9.469697 -0.942956  0.506276
      ESP Fit Center  593 is at   9.212466  0.017044  0.506276
      ESP Fit Center  594 is at   9.212466 -1.902956  0.506276
      ESP Fit Center  595 is at   9.212466 -0.942956 -0.453724
      ESP Fit Center  596 is at   8.509697 -0.942956 -1.156493
      ESP Fit Center  597 is at   7.439128  0.608706  3.596962
      ESP Fit Center  598 is at   6.918467  1.510516  3.596962
      ESP Fit Center  599 is at   5.877147  1.510516  3.596962
      ESP Fit Center  600 is at   7.976331 -0.405750  2.931013
      ESP Fit Center  601 is at   6.082824  0.018475  4.228343
      ESP Fit Center  602 is at   7.042824  0.018475  3.971112
      ESP Fit Center  603 is at   6.562824  0.849859  3.971112
      ESP Fit Center  604 is at   5.602824  0.849859  3.971112
      ESP Fit Center  605 is at   5.122824  0.018475  3.971112
      ESP Fit Center  606 is at   5.602824 -0.812909  3.971112
      ESP Fit Center  607 is at   6.562824 -0.812909  3.971112
      ESP Fit Center  608 is at   4.737616 -0.958876  3.268343
      ESP Fit Center  609 is at   5.569000 -1.562912  3.268343
      ESP Fit Center  610 is at   6.596648 -1.562912  3.268343
      ESP Fit Center  611 is at   7.428032 -0.958876  3.268343
      ESP Fit Center  612 is at   5.122824 -1.644294  2.308343
      ESP Fit Center  613 is at   6.082824 -1.901525  2.308343
      ESP Fit Center  614 is at   7.042824 -1.644294  2.308343
      ESP Fit Center  615 is at   7.337440  1.113241  3.610061
      ESP Fit Center  616 is at   8.297440  1.113241  3.352830
      ESP Fit Center  617 is at   7.817440  1.944625  3.352830
      ESP Fit Center  618 is at   7.817440  0.281857  3.352830
      ESP Fit Center  619 is at   9.000209  1.113241  2.650061
      ESP Fit Center  620 is at   8.682648  2.090592  2.650061
      ESP Fit Center  621 is at   7.851264  2.694628  2.650061
      ESP Fit Center  622 is at   6.823616  2.694628  2.650061
      ESP Fit Center  623 is at   8.682648  0.135890  2.650061
      ESP Fit Center  624 is at   9.257440  1.113241  1.690061
      ESP Fit Center  625 is at   9.000209  2.073241  1.690061
      ESP Fit Center  626 is at   8.297440  2.776010  1.690061
      ESP Fit Center  627 is at   7.337440  3.033241  1.690061
      ESP Fit Center  628 is at   9.000209  0.153241  1.690061
      ESP Fit Center  629 is at   9.000209  1.113241  0.730061
      ESP Fit Center  630 is at   8.682648  2.090592  0.730061
      ESP Fit Center  631 is at   7.851264  2.694628  0.730061
      ESP Fit Center  632 is at   7.817440  1.944625  0.027292
      ESP Fit Center  633 is at   5.466738  1.637689  3.394362
      ESP Fit Center  634 is at   5.952688  2.479379  3.172532
      ESP Fit Center  635 is at   6.007920  3.303277  2.550979
      ESP Fit Center  636 is at   4.925556  3.303277  2.550979
      ESP Fit Center  637 is at   6.707300  3.434953  1.652809
      ESP Fit Center  638 is at   5.729971  3.805605  1.652809
      ESP Fit Center  639 is at   4.692338  3.679613  1.652809
      ESP Fit Center  640 is at   6.707300  3.434953  0.655915
      ESP Fit Center  641 is at   5.729971  3.805605  0.655915
      ESP Fit Center  642 is at   4.692338  3.679613  0.655915
      ESP Fit Center  643 is at   6.883572  2.667079 -0.242255
      ESP Fit Center  644 is at   6.007920  3.303277 -0.242255
      ESP Fit Center  645 is at   5.952688  2.479379 -0.863808
      ESP Fit Center  646 is at   5.126844  1.308580  3.441571
      ESP Fit Center  647 is at   2.285135  0.779938  2.775622
      ESP Fit Center  648 is at   3.626207  1.999269  3.919545
      ESP Fit Center  649 is at   4.586207  1.999269  3.662314
      ESP Fit Center  650 is at   4.106207  2.830653  3.662314
      ESP Fit Center  651 is at   3.146207  2.830653  3.662314
      ESP Fit Center  652 is at   2.666207  1.999269  3.662314
      ESP Fit Center  653 is at   3.146207  1.167885  3.662314
      ESP Fit Center  654 is at   4.971415  2.976620  2.959545
      ESP Fit Center  655 is at   4.140031  3.580656  2.959545
      ESP Fit Center  656 is at   3.112383  3.580656  2.959545
      ESP Fit Center  657 is at   2.280999  2.976620  2.959545
      ESP Fit Center  658 is at   1.963438  1.999269  2.959545
      ESP Fit Center  659 is at   2.280999  1.021918  2.959545
      ESP Fit Center  660 is at   4.586207  3.662038  1.999545
      ESP Fit Center  661 is at   3.626207  3.919269  1.999545
      ESP Fit Center  662 is at   2.666207  3.662038  1.999545
      ESP Fit Center  663 is at   1.963438  2.959269  1.999545
      ESP Fit Center  664 is at   3.959766  0.286590  3.572746
      ESP Fit Center  665 is at   2.999766  0.286590  3.315515
      ESP Fit Center  666 is at   3.479766 -0.544794  3.315515
      ESP Fit Center  667 is at   4.439766 -0.544794  3.315515
      ESP Fit Center  668 is at   2.296997  0.286590  2.612746
      ESP Fit Center  669 is at   3.445942 -1.294797  2.612746
      ESP Fit Center  670 is at   4.473590 -1.294797  2.612746
      ESP Fit Center  671 is at   3.959766 -1.633410  1.652746
      ESP Fit Center  672 is at   2.881984  2.379594 -2.243203
      ESP Fit Center  673 is at   2.361323  1.477784 -2.243203
      ESP Fit Center  674 is at   5.171388  1.737706 -1.756518
      ESP Fit Center  675 is at   4.786180  0.760355 -2.459287
      ESP Fit Center  676 is at   4.306180  1.591739 -2.459287
      ESP Fit Center  677 is at   2.866180  0.760355 -2.459287
      ESP Fit Center  678 is at   3.346180 -0.071029 -2.459287
      ESP Fit Center  679 is at   4.306180 -0.071029 -2.459287
      ESP Fit Center  680 is at   3.826180  0.760355 -2.716518
      ESP Fit Center  681 is at   4.109525  4.071345  0.509393
      ESP Fit Center  682 is at   3.081877  4.071345  0.509393
      ESP Fit Center  683 is at   5.258470  3.449958 -0.450607
      ESP Fit Center  684 is at   4.555701  4.152727 -0.450607
      ESP Fit Center  685 is at   3.595701  4.409958 -0.450607
      ESP Fit Center  686 is at   2.635701  4.152727 -0.450607
      ESP Fit Center  687 is at   5.258470  2.489958 -1.410607
      ESP Fit Center  688 is at   4.940909  3.467309 -1.410607
      ESP Fit Center  689 is at   4.109525  4.071345 -1.410607
      ESP Fit Center  690 is at   3.081877  4.071345 -1.410607
      ESP Fit Center  691 is at   2.250493  3.467309 -1.410607
      ESP Fit Center  692 is at   4.555701  2.489958 -2.113376
      ESP Fit Center  693 is at   4.075701  3.321342 -2.113376
      ESP Fit Center  694 is at   3.115701  3.321342 -2.113376
      ESP Fit Center  695 is at   3.595701  2.489958 -2.370607
      ESP Fit Center  696 is at   1.502595  2.183900  2.018170
      ESP Fit Center  697 is at   1.016645  1.342210  2.018170
      ESP Fit Center  698 is at   2.251778  3.510126  0.498447
      ESP Fit Center  699 is at   1.001505  0.901810  2.162325
      ESP Fit Center  700 is at   1.001505 -2.281163 -0.534050
      ESP Fit Center  701 is at   1.874199 -0.536519  2.816884
      ESP Fit Center  702 is at   1.394199  0.294865  2.559653
      ESP Fit Center  703 is at   0.914199 -0.536519  2.559653
      ESP Fit Center  704 is at   1.394199 -1.367903  2.559653
      ESP Fit Center  705 is at   2.354199 -1.367903  2.559653
      ESP Fit Center  706 is at   0.528991 -1.513870  1.856884
      ESP Fit Center  707 is at   1.360375 -2.117906  1.856884
      ESP Fit Center  708 is at   2.388023 -2.117906  1.856884
      ESP Fit Center  709 is at   3.219407 -1.513870  1.856884
      ESP Fit Center  710 is at   1.874199 -2.456519  0.896884
      ESP Fit Center  711 is at   2.834199 -2.199288  0.896884
      ESP Fit Center  712 is at   0.945132 -2.198819 -0.882045
      ESP Fit Center  713 is at   1.905132 -2.456050 -0.882045
      ESP Fit Center  714 is at   1.391308 -2.117437 -1.842045
      ESP Fit Center  715 is at   2.418956 -2.117437 -1.842045
      ESP Fit Center  716 is at   2.865132 -0.536050 -2.544814
      ESP Fit Center  717 is at   2.385132  0.295334 -2.544814
      ESP Fit Center  718 is at   1.425132 -1.367434 -2.544814
      ESP Fit Center  719 is at   2.385132 -1.367434 -2.544814
      ESP Fit Center  720 is at   1.905132 -0.536050 -2.802045
      ESP Fit Center  721 is at  -0.520660 -0.901810  2.162325
      ESP Fit Center  722 is at  -1.800388 -0.528642  1.496376
      ESP Fit Center  723 is at  -0.383274  0.588692  2.759655
      ESP Fit Center  724 is at   0.576726  0.588692  2.502424
      ESP Fit Center  725 is at   0.096726  1.420076  2.502424
      ESP Fit Center  726 is at  -0.863274  1.420076  2.502424
      ESP Fit Center  727 is at  -1.343274  0.588692  2.502424
      ESP Fit Center  728 is at  -0.863274 -0.242692  2.502424
      ESP Fit Center  729 is at   0.096726 -0.242692  2.502424
      ESP Fit Center  730 is at  -2.046043  0.588692  1.799655
      ESP Fit Center  731 is at  -1.728482 -0.388659  1.799655
      ESP Fit Center  732 is at  -1.312387 -1.027882  1.804065
      ESP Fit Center  733 is at  -0.832387 -1.859266  1.804065
      ESP Fit Center  734 is at   0.127613 -1.859266  1.804065
      ESP Fit Center  735 is at  -2.015156 -1.027882  1.101296
      ESP Fit Center  736 is at  -1.697595 -2.005233  1.101296
      ESP Fit Center  737 is at  -0.866211 -2.609269  1.101296
      ESP Fit Center  738 is at   0.161437 -2.609269  1.101296
      ESP Fit Center  739 is at  -2.015156 -1.987882  0.141296
      ESP Fit Center  740 is at  -1.312387 -2.690651  0.141296
      ESP Fit Center  741 is at  -0.352387 -2.947882  0.141296
      ESP Fit Center  742 is at   0.607613 -2.690651  0.141296
      ESP Fit Center  743 is at  -0.866211 -2.609269 -0.818704
      ESP Fit Center  744 is at   0.161437 -2.609269 -0.818704
      ESP Fit Center  745 is at  -2.534967 -0.460101  0.426482
      ESP Fit Center  746 is at  -3.350658 -0.007991 -0.481903
      ESP Fit Center  747 is at  -2.913140 -0.990672 -0.481903
      ESP Fit Center  748 is at  -2.113755 -1.710441 -0.481903
      ESP Fit Center  749 is at  -3.572649  0.015349 -1.553417
      ESP Fit Center  750 is at  -3.200932 -0.944162 -1.553417
      ESP Fit Center  751 is at  -2.507701 -1.704600 -1.553417
      ESP Fit Center  752 is at  -1.586580 -2.163264 -1.553417
      ESP Fit Center  753 is at  -0.561973 -2.258208 -1.553417
      ESP Fit Center  754 is at   0.427743 -1.976609 -1.553417
      ESP Fit Center  755 is at   1.766539  0.529848 -2.624931
      ESP Fit Center  756 is at  -2.913140  2.050368 -2.624931
      ESP Fit Center  757 is at  -3.350658  1.067687 -2.624931
      ESP Fit Center  758 is at  -3.350658 -0.007991 -2.624931
      ESP Fit Center  759 is at  -2.913140 -0.990672 -2.624931
      ESP Fit Center  760 is at  -2.113755 -1.710441 -2.624931
      ESP Fit Center  761 is at  -1.090725 -2.042844 -2.624931
      ESP Fit Center  762 is at  -0.020939 -1.930405 -2.624931
      ESP Fit Center  763 is at   0.910625 -1.392566 -2.624931
      ESP Fit Center  764 is at   1.159575  0.529848 -3.533316
      ESP Fit Center  765 is at   0.894319  1.519797 -3.533316
      ESP Fit Center  766 is at  -2.534967  1.519797 -3.533316
      ESP Fit Center  767 is at  -2.800223  0.529848 -3.533316
      ESP Fit Center  768 is at  -2.534967 -0.460101 -3.533316
      ESP Fit Center  769 is at  -1.810273 -1.184795 -3.533316
      ESP Fit Center  770 is at  -0.820324 -1.450051 -3.533316
      ESP Fit Center  771 is at   0.169625 -1.184795 -3.533316
      ESP Fit Center  772 is at   0.894319 -0.460101 -3.533316
      ESP Fit Center  773 is at   0.251190  0.529848 -4.140280
      ESP Fit Center  774 is at  -0.284567  1.457806 -4.140280
      ESP Fit Center  775 is at  -1.356081  1.457806 -4.140280
      ESP Fit Center  776 is at  -1.891838  0.529848 -4.140280
      ESP Fit Center  777 is at  -1.356081 -0.398110 -4.140280
      ESP Fit Center  778 is at  -0.284567 -0.398110 -4.140280
      ESP Fit Center  779 is at  -0.820324  0.529848 -4.353417
      ESP Fit Center  780 is at   0.300983  4.043766 -3.144198
      ESP Fit Center  781 is at   0.562821  2.336937 -3.810147
      ESP Fit Center  782 is at   1.920457  3.465480 -0.933276
      ESP Fit Center  783 is at   2.238018  3.448129 -1.893276
      ESP Fit Center  784 is at   1.535249  4.150898 -1.893276
      ESP Fit Center  785 is at   2.238018  2.488129 -2.853276
      ESP Fit Center  786 is at   1.920457  3.465480 -2.853276
      ESP Fit Center  787 is at   1.089073  4.069516 -2.853276
      ESP Fit Center  788 is at   1.920457  1.510778 -2.853276
      ESP Fit Center  789 is at   1.535249  2.488129 -3.556045
      ESP Fit Center  790 is at   1.055249  3.319513 -3.556045
      ESP Fit Center  791 is at   1.055249  1.656745 -3.556045
      ESP Fit Center  792 is at   0.575249  2.488129 -3.813276
      ESP Fit Center  793 is at  -1.085847  4.585101 -2.497903
      ESP Fit Center  794 is at  -2.045847  4.327870 -2.497903
      ESP Fit Center  795 is at  -0.572023  4.246488 -3.457903
      ESP Fit Center  796 is at  -1.599671  4.246488 -3.457903
      ESP Fit Center  797 is at  -2.431055  3.642452 -3.457903
      ESP Fit Center  798 is at  -2.748616  2.665101 -3.457903
      ESP Fit Center  799 is at  -0.125847  2.665101 -4.160672
      ESP Fit Center  800 is at  -0.605847  3.496485 -4.160672
      ESP Fit Center  801 is at  -1.565847  3.496485 -4.160672
      ESP Fit Center  802 is at  -2.045847  2.665101 -4.160672
      ESP Fit Center  803 is at  -1.565847  1.833717 -4.160672
      ESP Fit Center  804 is at  -0.605847  1.833717 -4.160672
      ESP Fit Center  805 is at  -1.085847  2.665101 -4.417903
      ESP Fit Center  806 is at  -0.028584  4.872819  1.087756
      ESP Fit Center  807 is at   1.300044  4.181203  0.125430
      ESP Fit Center  808 is at   1.300044  4.181203 -0.942670
      ESP Fit Center  809 is at  -0.160918  5.051968  1.002819
      ESP Fit Center  810 is at   0.704290  5.197935  0.300050
      ESP Fit Center  811 is at  -0.127094  5.801971  0.300050
      ESP Fit Center  812 is at   1.021851  5.180584 -0.659950
      ESP Fit Center  813 is at   0.319082  5.883353 -0.659950
      ESP Fit Center  814 is at   0.704290  5.197935 -1.619950
      ESP Fit Center  815 is at  -0.127094  5.801971 -1.619950
      ESP Fit Center  816 is at  -0.160918  5.051968 -2.322719
      ESP Fit Center  817 is at  -1.120918  5.051968 -2.322719
      ESP Fit Center  818 is at  -0.124480  2.906611  2.325418
      ESP Fit Center  819 is at   0.835520  2.906611  2.068187
      ESP Fit Center  820 is at   0.355520  3.737995  2.068187
      ESP Fit Center  821 is at  -0.604480  2.075227  2.068187
      ESP Fit Center  822 is at   0.355520  2.075227  2.068187
      ESP Fit Center  823 is at   1.220728  3.883962  1.365418
      ESP Fit Center  824 is at   0.389344  4.487998  1.365418
      ESP Fit Center  825 is at   1.538289  3.866611  0.405418
      ESP Fit Center  826 is at  -3.088066  2.025101  2.730557
      ESP Fit Center  827 is at  -2.016552  2.025101  2.730557
      ESP Fit Center  828 is at  -4.266952  1.963110  2.123593
      ESP Fit Center  829 is at  -3.542258  1.238416  2.123593
      ESP Fit Center  830 is at  -2.552309  0.973160  2.123593
      ESP Fit Center  831 is at  -0.837666  1.963110  2.123593
      ESP Fit Center  832 is at  -5.082643  2.415220  1.215208
      ESP Fit Center  833 is at  -4.645125  1.432539  1.215208
      ESP Fit Center  834 is at  -3.845740  0.712770  1.215208
      ESP Fit Center  835 is at  -2.822710  0.380367  1.215208
      ESP Fit Center  836 is at  -5.304634  2.438560  0.143694
      ESP Fit Center  837 is at  -4.932917  1.479049  0.143694
      ESP Fit Center  838 is at  -4.239686  0.718611  0.143694
      ESP Fit Center  839 is at  -3.318565  0.259947  0.143694
      ESP Fit Center  840 is at  -5.082643  2.415220 -0.927820
      ESP Fit Center  841 is at  -4.645125  1.432539 -0.927820
      ESP Fit Center  842 is at  -3.845740  0.712770 -0.927820
      ESP Fit Center  843 is at  -2.552309  4.932958 -1.836205
      ESP Fit Center  844 is at  -4.532208  2.953059 -1.836205
      ESP Fit Center  845 is at  -4.266952  1.963110 -1.836205
      ESP Fit Center  846 is at  -3.542258  1.238416 -1.836205
      ESP Fit Center  847 is at  -3.088066  3.881017 -2.443169
      ESP Fit Center  848 is at  -3.623823  2.953059 -2.443169
      ESP Fit Center  849 is at  -3.088066  2.025101 -2.443169
      ESP Fit Center  850 is at  -1.719731  4.364213  3.843488
      ESP Fit Center  851 is at  -0.759731  4.364213  3.586257
      ESP Fit Center  852 is at  -1.239731  5.195597  3.586257
      ESP Fit Center  853 is at  -2.199731  5.195597  3.586257
      ESP Fit Center  854 is at  -2.199731  3.532829  3.586257
      ESP Fit Center  855 is at  -1.239731  3.532829  3.586257
      ESP Fit Center  856 is at  -0.056962  4.364213  2.883488
      ESP Fit Center  857 is at  -0.374523  5.341564  2.883488
      ESP Fit Center  858 is at  -1.205907  5.945600  2.883488
      ESP Fit Center  859 is at  -1.205907  2.782826  2.883488
      ESP Fit Center  860 is at  -0.374523  3.386862  2.883488
      ESP Fit Center  861 is at   0.200269  4.364213  1.923488
      ESP Fit Center  862 is at  -0.056962  5.324213  1.923488
      ESP Fit Center  863 is at  -0.759731  6.026982  1.923488
      ESP Fit Center  864 is at  -0.374523  5.341564  0.963488
      ESP Fit Center  865 is at  -3.456328  4.098797  3.940072
      ESP Fit Center  866 is at  -2.976328  4.930181  3.682841
      ESP Fit Center  867 is at  -3.936328  4.930181  3.682841
      ESP Fit Center  868 is at  -4.416328  4.098797  3.682841
      ESP Fit Center  869 is at  -3.936328  3.267413  3.682841
      ESP Fit Center  870 is at  -2.976328  3.267413  3.682841
      ESP Fit Center  871 is at  -4.801536  3.121446  2.980072
      ESP Fit Center  872 is at  -3.970152  2.517410  2.980072
      ESP Fit Center  873 is at  -2.942504  2.517410  2.980072
      ESP Fit Center  874 is at  -5.119097  3.138797  2.020072
      ESP Fit Center  875 is at  -0.538080  5.735600  1.246696
      ESP Fit Center  876 is at  -0.769796  6.750813  1.246696
      ESP Fit Center  877 is at  -2.357247  8.016763  0.178596
      ESP Fit Center  878 is at  -2.691543  6.512959  3.383880
      ESP Fit Center  879 is at  -1.731543  6.512959  3.126649
      ESP Fit Center  880 is at  -2.211543  7.344343  3.126649
      ESP Fit Center  881 is at  -1.028774  6.512959  2.423880
      ESP Fit Center  882 is at  -1.346335  7.490310  2.423880
      ESP Fit Center  883 is at  -2.177719  8.094346  2.423880
      ESP Fit Center  884 is at  -1.028774  7.472959  1.463880
      ESP Fit Center  885 is at  -1.731543  8.175728  1.463880
      ESP Fit Center  886 is at  -2.691543  8.432959  1.463880
      ESP Fit Center  887 is at  -2.177719  8.094346  0.503880
      ESP Fit Center  888 is at  -0.512026  6.876383 -0.106392
      ESP Fit Center  889 is at  -1.214795  7.579152 -0.106392
      ESP Fit Center  890 is at  -0.829587  6.893734 -1.066392
      ESP Fit Center  891 is at  -1.660971  7.497770 -1.066392
      ESP Fit Center  892 is at  -1.214795  5.916383 -1.769161
      ESP Fit Center  893 is at  -1.694795  6.747767 -1.769161
      ESP Fit Center  894 is at  -2.174795  5.916383 -2.026392
      ESP Fit Center  895 is at  -5.837689  3.760276  1.059115
      ESP Fit Center  896 is at  -3.296191  8.507022 -0.012399
      ESP Fit Center  897 is at  -6.924866  4.526555 -0.012399
      ESP Fit Center  898 is at  -6.231635  3.766117 -0.012399
      ESP Fit Center  899 is at  -2.813309  7.922979 -1.083913
      ESP Fit Center  900 is at  -3.744873  8.460818 -1.083913
      ESP Fit Center  901 is at  -4.814659  8.573257 -1.083913
      ESP Fit Center  902 is at  -5.837689  8.240854 -1.083913
      ESP Fit Center  903 is at  -6.637074  7.521085 -1.083913
      ESP Fit Center  904 is at  -7.074592  6.538404 -1.083913
      ESP Fit Center  905 is at  -7.074592  5.462726 -1.083913
      ESP Fit Center  906 is at  -6.637074  4.480045 -1.083913
      ESP Fit Center  907 is at  -5.837689  3.760276 -1.083913
      ESP Fit Center  908 is at  -2.564359  6.000565 -1.992298
      ESP Fit Center  909 is at  -2.829615  6.990514 -1.992298
      ESP Fit Center  910 is at  -3.554309  7.715208 -1.992298
      ESP Fit Center  911 is at  -4.544258  7.980464 -1.992298
      ESP Fit Center  912 is at  -5.534207  7.715208 -1.992298
      ESP Fit Center  913 is at  -6.258901  6.990514 -1.992298
      ESP Fit Center  914 is at  -6.524157  6.000565 -1.992298
      ESP Fit Center  915 is at  -6.258901  5.010616 -1.992298
      ESP Fit Center  916 is at  -5.534207  4.285922 -1.992298
      ESP Fit Center  917 is at  -4.544258  4.020666 -1.992298
      ESP Fit Center  918 is at  -2.829615  5.010616 -1.992298
      ESP Fit Center  919 is at  -3.472744  6.000565 -2.599262
      ESP Fit Center  920 is at  -4.008501  6.928523 -2.599262
      ESP Fit Center  921 is at  -5.080015  6.928523 -2.599262
      ESP Fit Center  922 is at  -5.615772  6.000565 -2.599262
      ESP Fit Center  923 is at  -5.080015  5.072607 -2.599262
      ESP Fit Center  924 is at  -4.008501  5.072607 -2.599262
      ESP Fit Center  925 is at  -4.544258  6.000565 -2.812399
      ESP Fit Center  926 is at  -7.340297  5.813390  2.993928
      ESP Fit Center  927 is at  -6.998767  4.512682  2.031602
      ESP Fit Center  928 is at  -6.768687  7.760117  0.001176
      ESP Fit Center  929 is at  -7.537219  6.225174  2.829138
      ESP Fit Center  930 is at  -7.922427  7.202525  2.126369
      ESP Fit Center  931 is at  -8.239988  6.225174  2.126369
      ESP Fit Center  932 is at  -7.922427  5.247823  2.126369
      ESP Fit Center  933 is at  -7.537219  7.887943  1.166369
      ESP Fit Center  934 is at  -8.239988  7.185174  1.166369
      ESP Fit Center  935 is at  -8.497219  6.225174  1.166369
      ESP Fit Center  936 is at  -8.239988  5.265174  1.166369
      ESP Fit Center  937 is at  -7.537219  4.562405  1.166369
      ESP Fit Center  938 is at  -7.091043  7.806561  0.206369
      ESP Fit Center  939 is at  -7.922427  7.202525  0.206369
      ESP Fit Center  940 is at  -8.239988  6.225174  0.206369
      ESP Fit Center  941 is at  -7.922427  5.247823  0.206369
      ESP Fit Center  942 is at  -7.091043  4.643787  0.206369
      ESP Fit Center  943 is at  -7.537219  6.225174 -0.496400
      ESP Fit Center  944 is at  -5.356590  5.551035  4.153878
      ESP Fit Center  945 is at  -4.396590  5.551035  3.896647
      ESP Fit Center  946 is at  -6.316590  5.551035  3.896647
      ESP Fit Center  947 is at  -5.836590  4.719651  3.896647
      ESP Fit Center  948 is at  -4.876590  4.719651  3.896647
      ESP Fit Center  949 is at  -6.701798  4.573684  3.193878
      ESP Fit Center  950 is at  -5.870414  3.969648  3.193878
      ESP Fit Center  951 is at  -7.019359  4.591035  2.233878
      ESP Fit Center  952 is at  -6.316590  3.888266  2.233878
      ESP Fit Center  953 is at  -5.356590  3.631035  2.233878
      ESP Fit Center  954 is at  -4.807165  6.824653  4.271957
      ESP Fit Center  955 is at  -4.548342  9.433292  3.606008
      ESP Fit Center  956 is at  -4.807165 10.007626  2.643682
      ESP Fit Center  957 is at  -5.848485 10.007626  2.643682
      ESP Fit Center  958 is at  -3.868967  9.555813  1.575582
      ESP Fit Center  959 is at  -3.749301  8.740919  0.613256
      ESP Fit Center  960 is at  -4.293610  7.870035  4.361457
      ESP Fit Center  961 is at  -3.333610  7.870035  4.104226
      ESP Fit Center  962 is at  -3.813610  8.701419  4.104226
      ESP Fit Center  963 is at  -3.813610  7.038651  4.104226
      ESP Fit Center  964 is at  -2.630841  7.870035  3.401457
      ESP Fit Center  965 is at  -2.948402  8.847386  3.401457
      ESP Fit Center  966 is at  -3.779786  9.451422  3.401457
      ESP Fit Center  967 is at  -3.779786  6.288648  3.401457
      ESP Fit Center  968 is at  -2.948402  6.892684  3.401457
      ESP Fit Center  969 is at  -2.630841  8.830035  2.441457
      ESP Fit Center  970 is at  -3.333610  9.532804  2.441457
      ESP Fit Center  971 is at  -2.948402  8.847386  1.481457
      ESP Fit Center  972 is at  -3.779786  9.451422  1.481457
      ESP Fit Center  973 is at  -6.073596 10.094907  2.345482
      ESP Fit Center  974 is at  -4.599772 10.176289  1.385482
      ESP Fit Center  975 is at  -5.559772 10.433520  1.385482
      ESP Fit Center  976 is at  -6.519772 10.176289  1.385482
      ESP Fit Center  977 is at  -7.222541  9.473520  1.385482
      ESP Fit Center  978 is at  -7.479772  8.513520  1.385482
      ESP Fit Center  979 is at  -4.214564  9.490871  0.425482
      ESP Fit Center  980 is at  -5.045948 10.094907  0.425482
      ESP Fit Center  981 is at  -6.073596 10.094907  0.425482
      ESP Fit Center  982 is at  -6.904980  9.490871  0.425482
      ESP Fit Center  983 is at  -7.222541  8.513520  0.425482
      ESP Fit Center  984 is at  -5.079772  9.344904 -0.277287
      ESP Fit Center  985 is at  -6.039772  9.344904 -0.277287
      ESP Fit Center  986 is at  -6.519772  8.513520 -0.277287
      ESP Fit Center  987 is at  -5.976743  7.859369  4.904815
      ESP Fit Center  988 is at  -5.016743  7.859369  4.647584
      ESP Fit Center  989 is at  -5.496743  8.690753  4.647584
      ESP Fit Center  990 is at  -6.456743  8.690753  4.647584
      ESP Fit Center  991 is at  -6.936743  7.859369  4.647584
      ESP Fit Center  992 is at  -6.456743  7.027985  4.647584
      ESP Fit Center  993 is at  -5.496743  7.027985  4.647584
      ESP Fit Center  994 is at  -5.462919  9.440756  3.944815
      ESP Fit Center  995 is at  -6.490567  9.440756  3.944815
      ESP Fit Center  996 is at  -7.321951  8.836720  3.944815
      ESP Fit Center  997 is at  -7.639512  7.859369  3.944815
      ESP Fit Center  998 is at  -7.321951  6.882018  3.944815
      ESP Fit Center  999 is at  -6.490567  6.277982  3.944815
      ESP Fit Center 1000 is at  -6.936743  9.522138  2.984815
      ESP Fit Center 1001 is at  -7.639512  8.819369  2.984815
      ESP Fit Center 1002 is at  -7.896743  7.859369  2.984815
      ESP Fit Center 1003 is at  -7.639512  6.899369  2.984815
      ESP Fit Center 1004 is at   7.520271 -3.230333  1.643992
      ESP Fit Center 1005 is at   8.093137 -4.262518  1.058705
      ESP Fit Center 1006 is at   8.042306 -5.180592  0.182762
      ESP Fit Center 1007 is at   4.577838 -5.139521 -0.850483
      ESP Fit Center 1008 is at   5.453781 -5.724808 -0.850483
      ESP Fit Center 1009 is at   6.487026 -5.930333 -0.850483
      ESP Fit Center 1010 is at   7.520271 -5.724808 -0.850483
      ESP Fit Center 1011 is at   8.396214 -5.139521 -0.850483
      ESP Fit Center 1012 is at   8.734470 -4.312645 -1.883728
      ESP Fit Center 1013 is at   8.396214 -3.230333 -2.759671
      ESP Fit Center 1014 is at   8.093137 -2.198148 -2.759671
      ESP Fit Center 1015 is at   8.616116 -2.965397  1.190084
      ESP Fit Center 1016 is at   9.406731 -2.965397  0.399469
      ESP Fit Center 1017 is at   9.109777 -3.976728  0.399469
      ESP Fit Center 1018 is at   9.696116 -2.965397 -0.680531
      ESP Fit Center 1019 is at   9.448701 -1.961595 -0.680531
      ESP Fit Center 1020 is at   8.763136 -4.743042 -0.680531
      ESP Fit Center 1021 is at   9.448701 -3.969199 -0.680531
      ESP Fit Center 1022 is at   9.406731 -2.965397 -1.760531
      ESP Fit Center 1023 is at   9.109777 -1.954066 -1.760531
      ESP Fit Center 1024 is at   8.313198 -1.263826 -1.760531
      ESP Fit Center 1025 is at   9.109777 -3.976728 -1.760531
      ESP Fit Center 1026 is at   8.616116 -2.965397 -2.551146
      ESP Fit Center 1027 is at   6.127890 -3.787656  2.181101
      ESP Fit Center 1028 is at   7.207890 -3.787656  1.891716
      ESP Fit Center 1029 is at   6.667890 -2.852349  1.891716
      ESP Fit Center 1030 is at   5.587890 -2.852349  1.891716
      ESP Fit Center 1031 is at   5.047890 -3.787656  1.891716
      ESP Fit Center 1032 is at   5.587890 -4.722963  1.891716
      ESP Fit Center 1033 is at   6.667890 -4.722963  1.891716
      ESP Fit Center 1034 is at   4.333048 -3.260643  1.101101
      ESP Fit Center 1035 is at   4.333048 -4.314669  1.101101
      ESP Fit Center 1036 is at   4.902898 -5.201372  1.101101
      ESP Fit Center 1037 is at   5.861674 -5.639231  1.101101
      ESP Fit Center 1038 is at   6.904972 -5.489227  1.101101
      ESP Fit Center 1039 is at   7.701551 -4.798987  1.101101
      ESP Fit Center 1040 is at   4.030656 -4.304578  0.021101
      ESP Fit Center 1041 is at   4.511107 -5.220001  0.021101
      ESP Fit Center 1042 is at   5.361943 -5.807291  0.021101
      ESP Fit Center 1043 is at   6.388249 -5.931907  0.021101
      ESP Fit Center 1044 is at   4.832893 -5.325104 -1.723144
      ESP Fit Center 1045 is at   5.683729 -5.912394 -1.723144
      ESP Fit Center 1046 is at   6.710035 -6.037010 -1.723144
      ESP Fit Center 1047 is at   7.676696 -5.670404 -1.723144
[...]
 1276 Fit      -0.019321
 1277 Fit      -0.018360
 1278 Fit      -0.016513
 1279 Fit      -0.010506
 1280 Fit      -0.009960
 1281 Fit      -0.016260
 1282 Fit      -0.019422
 1283 Fit      -0.019670
 1284 Fit      -0.015911
 1285 Fit       0.005382
 1286 Fit       0.001795
 1287 Fit      -0.004486
 1288 Fit       0.003925
 1289 Fit      -0.000475
 1290 Fit       0.002207
 1291 Fit       0.003262
 1292 Fit      -0.006005
 1293 Fit      -0.001750
 1294 Fit       0.000559
 1295 Fit      -0.003560
 1296 Fit       0.001851
 1297 Fit      -0.000792
 1298 Fit      -0.006958
 1299 Fit      -0.012311
 1300 Fit      -0.014226
 1301 Fit      -0.002936
 1302 Fit      -0.000543
 1303 Fit      -0.002613
 1304 Fit      -0.006101
 1305 Fit      -0.008085
 1306 Fit      -0.003374
 1307 Fit       0.000580
 1308 Fit       0.006884
 1309 Fit       0.011149
 1310 Fit       0.006088
 1311 Fit       0.008960
 1312 Fit       0.006706
 1313 Fit       0.008035
 1314 Fit       0.005806
 1315 Fit       0.002918
 1316 Fit       0.005194
 1317 Fit       0.000516
 1318 Fit       0.007631
 1319 Fit       0.000697
 1320 Fit       0.007386
 1321 Fit      -0.003239
 1322 Fit      -0.008053
 1323 Fit      -0.007189
 1324 Fit      -0.009242
 1325 Fit      -0.016035
 1326 Fit      -0.016109
 1327 Fit      -0.001567
 1328 Fit      -0.007096
 1329 Fit      -0.013814
 1330 Fit      -0.019607
 1331 Fit      -0.022817
 1332 Fit      -0.020200
 1333 Fit      -0.020902
 1334 Fit      -0.020921
 1335 Fit      -0.024013
 1336 Fit      -0.027438
 1337 Fit      -0.028523
 1338 Fit      -0.032529
 1339 Fit      -0.028067
 1340 Fit      -0.029020
 1341 Fit      -0.033123
 1342 Fit      -0.037304
 1343 Fit      -0.032606
 1344 Fit      -0.033385
 1345 Fit      -0.012198
 1346 Fit      -0.035317
 1347 Fit      -0.032650
 1348 Fit      -0.021628
 1349 Fit      -0.027410
 1350 Fit       0.008521
 1351 Fit      -0.001744
 1352 Fit       0.008225
 1353 Fit       0.008867
 1354 Fit       0.010591
 1355 Fit       0.005770
 1356 Fit       0.009128
 1357 Fit       0.010745
 1358 Fit       0.012656
 1359 Fit       0.001803
 1360 Fit       0.006786
 1361 Fit       0.008815
 1362 Fit       0.010681
 1363 Fit       0.012533
 1364 Fit       0.008550
 1365 Fit       0.012838
 1366 Fit       0.010447
 1367 Fit       0.005260
 1368 Fit       0.003805
 1369 Fit       0.007246
 1370 Fit       0.001039
 1371 Fit      -0.004227
 1372 Fit      -0.005714
 1373 Fit       0.007032
 1374 Fit       0.013572
 1375 Fit       0.012926
 1376 Fit       0.012997
 1377 Fit       0.012316
 1378 Fit       0.010773
 1379 Fit       0.010745
 1380 Fit       0.008784
 1381 Fit       0.007047
 1382 Fit       0.005058
 1383 Fit       0.009122
 1384 Fit       0.005485
 1385 Fit       0.007552
 1386 Fit       0.002070
 1387 Fit       0.006903
 1388 Fit       0.001227
 1389 Fit      -0.002910
 1390 Fit      -0.007455
 1391 Fit      -0.005683
 1392 Fit      -0.012818
 1393 Fit      -0.021034
 1394 Fit      -0.012344
 1395 Fit      -0.015794
 1396 Fit      -0.005522
 1397 Fit      -0.010571
 1398 Fit      -0.020392
 1399 Fit      -0.030099
 1400 Fit      -0.010791
 1401 Fit      -0.017843
 1402 Fit      -0.019970
 1403 Fit      -0.017813
 1404 Fit      -0.014066
 1405 Fit      -0.011518
 1406 Fit      -0.012721
 1407 Fit      -0.018476
 1408 Fit      -0.026799
 1409 Fit      -0.036024
 1410 Fit      -0.007258
 1411 Fit      -0.011038
 1412 Fit      -0.017699
 1413 Fit      -0.020997
 1414 Fit      -0.020100
 1415 Fit      -0.018163
 1416 Fit      -0.019039
 1417 Fit      -0.023829
 1418 Fit      -0.030136
 1419 Fit      -0.034612
 1420 Fit      -0.015053
 1421 Fit      -0.016418
 1422 Fit      -0.018954
 1423 Fit      -0.021131
 1424 Fit      -0.022093
 1425 Fit      -0.025343
 1426 Fit      -0.022764
 1427 Fit      -0.021280
 1428 Fit       0.005981
 1429 Fit      -0.006355
 1430 Fit       0.005601
 1431 Fit       0.004429
 1432 Fit       0.002381
 1433 Fit       0.004140
 1434 Fit       0.004347
 1435 Fit       0.003164
 1436 Fit       0.000275
 1437 Fit      -0.004427
 1438 Fit       0.001226
 1439 Fit       0.001792
 1440 Fit       0.000079
 1441 Fit      -0.004998
 1442 Fit      -0.003924
 1443 Fit       0.009132
 1444 Fit       0.011479
 1445 Fit       0.007500
 1446 Fit       0.007776
 1447 Fit       0.010592
 1448 Fit       0.004981
 1449 Fit       0.004425
 1450 Fit       0.006245
 1451 Fit       0.000104
 1452 Fit      -0.001011
 1453 Fit       0.006060
 1454 Fit       0.007133
 1455 Fit       0.003078
 1456 Fit       0.001340
 1457 Fit       0.001289
 1458 Fit       0.000408
 1459 Fit       0.002353
 1460 Fit       0.004835
 1461 Fit       0.005845
 1462 Fit       0.008464
 1463 Fit       0.005600
 1464 Fit       0.009023
 1465 Fit       0.011479
 1466 Fit       0.007783
 1467 Fit       0.004561
 1468 Fit       0.014000
 1469 Fit       0.007746
 1470 Fit       0.003827
 1471 Fit       0.002566
 1472 Fit       0.000954
 1473 Fit      -0.000530
 1474 Fit       0.000669
 1475 Fit       0.001328
 1476 Fit       0.001407
 1477 Fit       0.001617
 1478 Fit      -0.006783
 1479 Fit      -0.002447
 1480 Fit      -0.000321
 1481 Fit       0.000285
 1482 Fit       0.000209
 1483 Fit      -0.009051
 1484 Fit      -0.004547
 1485 Fit      -0.005613
 1486 Fit       0.006160
 1487 Fit       0.005469
 1488 Fit       0.004693
 1489 Fit       0.005498
 1490 Fit       0.006516
 1491 Fit       0.006969
 1492 Fit       0.006817
 1493 Fit       0.003344
 1494 Fit       0.004476
 1495 Fit       0.005559
 1496 Fit       0.006351
 1497 Fit       0.006976
 1498 Fit       0.001778
 1499 Fit       0.002900
 1500 Fit       0.004223
 1501 Fit       0.005712
 1502 Fit       0.007059
 1503 Fit       0.006957
 1504 Fit       0.006121
 1505 Fit       0.005711
 1506 Fit       0.005580
 1507 Fit       0.006312
 1508 Fit       0.008322
 1509 Fit       0.007062
 1510 Fit       0.006308
 1511 Fit       0.006609
 1512 Fit       0.007899
 1513 Fit       0.009061
 1514 Fit       0.010700
 1515 Fit       0.010484
 1516 Fit       0.011289
 1517 Fit       0.008624
 1518 Fit       0.011115
 1519 Fit       0.013655
 1520 Fit       0.007183
 1521 Fit       0.009042
 1522 Fit       0.010476
 1523 Fit       0.012219
 1524 Fit       0.008771
 1525 Fit       0.009729
 1526 Fit       0.011325
 1527 Fit       0.008310
 1528 Fit       0.004871
 1529 Fit       0.006262
 1530 Fit       0.003975
 1531 Fit       0.003501
 1532 Fit       0.006038
 1533 Fit       0.006381
 1534 Fit      -0.000264
 1535 Fit       0.005118
 1536 Fit       0.006445
 1537 Fit       0.006648
 1538 Fit       0.006459
 1539 Fit       0.006475
 1540 Fit       0.005466
 1541 Fit       0.006516
 1542 Fit       0.006566
 1543 Fit       0.006391
 1544 Fit       0.006084
 1545 Fit       0.006617
 1546 Fit       0.006414
 1547 Fit       0.006211
 1548 Fit       0.008778
 1549 Fit       0.007726
 1550 Fit       0.007465
 1551 Fit       0.007342
 1552 Fit       0.007248
 1553 Fit       0.007455
 1554 Fit       0.008621
 1555 Fit       0.009552
 1556 Fit       0.008660
 1557 Fit       0.008443
 1558 Fit       0.008310
 1559 Fit       0.008237
 1560 Fit       0.009210
 1561 Fit       0.010450
 1562 Fit       0.009914
 1563 Fit       0.009202
 1564 Fit       0.009015
 1565 Fit       0.009665
 1566 Fit       0.007823
 1567 Fit       0.009711
 1568 Fit       0.011046
 1569 Fit       0.012457
 1570 Fit       0.010683
 1571 Fit       0.010098
 1572 Fit       0.008699
 1573 Fit       0.006812
 1574 Fit       0.005643
 1575 Fit       0.009623
 1576 Fit       0.008549
 1577 Fit       0.007140
 1578 Fit       0.007339
 1579 Fit       0.009336
 1580 Fit       0.010104
 1581 Fit       0.008534
 1582 Fit       0.006564
 1583 Fit       0.006507
 1584 Fit       0.008258
 1585 Fit       0.008072
 1586 Fit       0.007554
 1587 Fit       0.008322
 1588 Fit       0.004728
 1589 Fit       0.004800
 1590 Fit       0.006305
 1591 Fit       0.008143
 1592 Fit       0.010384
 1593 Fit       0.006464
 1594 Fit       0.008766
 1595 Fit      -0.001237
 1596 Fit      -0.002550
 1597 Fit       0.000285
 1598 Fit       0.011411
 1599 Fit       0.009131
 1600 Fit       0.011945
 1601 Fit       0.011210
 1602 Fit       0.008989
 1603 Fit       0.005465
 1604 Fit      -0.000463
 1605 Fit       0.010248
 1606 Fit       0.008035
 1607 Fit       0.005030
 1608 Fit       0.001876
 1609 Fit       0.001504
 1610 Fit       0.012566
 1611 Fit       0.010057
 1612 Fit       0.007469
 1613 Fit       0.006188
 1614 Fit       0.010829
 1615 Fit       0.012475
 1616 Fit       0.010049
 1617 Fit       0.011534
 1618 Fit       0.012339
 1619 Fit       0.013133
 1620 Fit       0.012352
 1621 Fit       0.012399
 1622 Fit       0.012319
 1623 Fit       0.013576
 1624 Fit       0.012783
 1625 Fit       0.006866
 1626 Fit       0.003349
 1627 Fit       0.001735
 1628 Fit      -0.005158
 1629 Fit       0.009764
 1630 Fit       0.011535
 1631 Fit       0.011856
 1632 Fit       0.006530
 1633 Fit       0.007359
 1634 Fit       0.004946
 1635 Fit       0.004229
 1636 Fit       0.006346
 1637 Fit       0.007181
 1638 Fit       0.007786
 1639 Fit       0.006418
 1640 Fit       0.006623
 1641 Fit       0.008206
 1642 Fit       0.009464
 1643 Fit       0.002128
 1644 Fit       0.002214
 1645 Fit       0.006100
 1646 Fit       0.010217
 1647 Fit       0.007430
 1648 Fit       0.004071
 1649 Fit       0.009005
 1650 Fit       0.006447
 1651 Fit       0.002214
 1652 Fit      -0.004547
 1653 Fit       0.010670
 1654 Fit       0.010236
 1655 Fit       0.007719
 1656 Fit       0.003942
 1657 Fit      -0.002416
 1658 Fit       0.012339
 1659 Fit       0.011136
 1660 Fit       0.007987
 1661 Fit       0.003541
 1662 Fit      -0.004206
 1663 Fit       0.007185
 1664 Fit       0.000082
 1665 Fit      -0.005529
 1666 Fit      -0.009410
 1667 Fit      -0.010070
 1668 Fit      -0.008876
 1669 Fit      -0.013132
 1670 Fit      -0.011439
 1671 Fit      -0.007950
 1672 Fit      -0.013354
 1673 Fit      -0.013537
 1674 Fit      -0.009057
 1675 Fit      -0.010133
 1676 Fit      -0.013204
 1677 Fit      -0.009998
 1678 Fit      -0.010292
 1679 Fit      -0.006339
 1680 Fit       0.003222
 1681 Fit       0.002319
 1682 Fit       0.005203
 1683 Fit       0.004566
 1684 Fit       0.002626
 1685 Fit       0.000310
 1686 Fit       0.000253
 1687 Fit       0.002545
 1688 Fit       0.003410
 1689 Fit       0.004103
 1690 Fit      -0.002745
 1691 Fit       0.001121
 1692 Fit       0.002845
 1693 Fit       0.002733
 1694 Fit       0.003041
 1695 Fit      -0.003483
 1696 Fit       0.000713
 1697 Fit       0.001931
 1698 Fit       0.000373
 1699 Fit      -0.000144
 1700 Fit      -0.001091
 1701 Fit       0.006546
 1702 Fit       0.007668
 1703 Fit       0.005498
 1704 Fit       0.002814
 1705 Fit      -0.004883
 1706 Fit       0.000267
 1707 Fit       0.000626
 1708 Fit      -0.000778
 1709 Fit      -0.000483
 1710 Fit       0.004560
 1711 Fit       0.001595
 1712 Fit      -0.003121
 1713 Fit       0.001928
 1714 Fit       0.001713
 1715 Fit      -0.000467
 1716 Fit      -0.008168
 1717 Fit      -0.001368
 1718 Fit       0.001205
 1719 Fit       0.000231
 1720 Fit      -0.008711
 1721 Fit      -0.002982
 1722 Fit       0.000600
 1723 Fit       0.002271
 1724 Fit       0.002135
 1725 Fit      -0.001143
 1726 Fit       0.000930
 1727 Fit       0.002261
 1728 Fit       0.001194
 1729 Fit       0.001466
 1730 Fit       0.002923
 1731 Fit       0.008250
 1732 Fit       0.008080
 1733 Fit       0.006926
 1734 Fit       0.004928
 1735 Fit       0.006181
 1736 Fit       0.007097
 1737 Fit       0.007450
 1738 Fit       0.007849
 1739 Fit       0.007421
 1740 Fit       0.006127
 1741 Fit       0.008375
 1742 Fit       0.006241
 1743 Fit       0.000657
 1744 Fit       0.005029
 1745 Fit       0.001156
 1746 Fit       0.000813
 1747 Fit      -0.005677
 1748 Fit       0.000420
 1749 Fit       0.003184
 1750 Fit      -0.013650
 1751 Fit       0.001851
 1752 Fit       0.003952
 1753 Fit       0.002115
 1754 Fit      -0.001456
 1755 Fit      -0.003593
 1756 Fit       0.000806
 1757 Fit       0.004623
 1758 Fit      -0.010296
 1759 Fit       0.003602
 1760 Fit       0.007219
 1761 Fit      -0.003809
 1762 Fit       0.001666
 1763 Fit       0.005434
 1764 Fit       0.008190
 1765 Fit      -0.005437
 1766 Fit       0.000582
 1767 Fit       0.004456
 1768 Fit       0.007171
 1769 Fit      -0.001882
 1770 Fit       0.002576
 1771 Fit       0.005620
 1772 Fit       0.002517
 1773 Fit      -0.023340
 1774 Fit      -0.012262
 1775 Fit      -0.022384
 1776 Fit      -0.014019
 1777 Fit      -0.005212
 1778 Fit      -0.029137
 1779 Fit      -0.023785
 1780 Fit      -0.017991
 1781 Fit      -0.011971
 1782 Fit      -0.006412
 1783 Fit      -0.002049
 1784 Fit       0.001116
 1785 Fit      -0.027913
 1786 Fit      -0.025387
 1787 Fit      -0.022010
 1788 Fit      -0.017834
 1789 Fit      -0.013554
 1790 Fit      -0.009976
 1791 Fit      -0.007358
 1792 Fit      -0.004977
 1793 Fit      -0.009177
 1794 Fit      -0.019250
 1795 Fit      -0.021152
 1796 Fit      -0.020555
 1797 Fit      -0.018488
 1798 Fit      -0.015962
 1799 Fit      -0.013869
 1800 Fit      -0.012377
 1801 Fit      -0.011058
 1802 Fit      -0.010052
 1803 Fit      -0.012066
 1804 Fit      -0.008481
 1805 Fit      -0.012653
 1806 Fit      -0.016715
 1807 Fit      -0.017805
 1808 Fit      -0.017246
 1809 Fit      -0.016303
 1810 Fit      -0.015426
 1811 Fit      -0.014222
 1812 Fit      -0.013199
 1813 Fit      -0.009469
 1814 Fit      -0.009788
 1815 Fit      -0.014224
 1816 Fit      -0.016121
 1817 Fit      -0.015686
 1818 Fit      -0.013437
 1819 Fit       0.003038
 1820 Fit       0.000607
 1821 Fit      -0.004727
 1822 Fit       0.002857
 1823 Fit       0.001946
 1824 Fit       0.003046
 1825 Fit       0.004657
 1826 Fit      -0.000877
 1827 Fit       0.001191
 1828 Fit       0.001998
 1829 Fit      -0.005494
 1830 Fit      -0.002437
 1831 Fit      -0.000380
 1832 Fit      -0.002033
 1833 Fit      -0.011500
 1834 Fit       0.000361
 1835 Fit      -0.002014
 1836 Fit      -0.006799
 1837 Fit      -0.010937
 1838 Fit      -0.012810
 1839 Fit      -0.003571
 1840 Fit      -0.001717
 1841 Fit      -0.003671
 1842 Fit      -0.006687
 1843 Fit      -0.004354
 1844 Fit       0.006415
 1845 Fit      -0.000360
 1846 Fit       0.001858
 1847 Fit       0.010501
 1848 Fit       0.004803
 1849 Fit       0.007651
 1850 Fit       0.005140
 1851 Fit       0.006814
 1852 Fit       0.005379
 1853 Fit       0.005815
 1854 Fit       0.005220
 1855 Fit       0.004169
 1856 Fit       0.001437
 1857 Fit       0.001646
 1858 Fit       0.001817
 1859 Fit      -0.004832
 1860 Fit      -0.003995
 1861 Fit      -0.006148
 1862 Fit      -0.011130
 1863 Fit      -0.010851
 1864 Fit      -0.005748
 1865 Fit      -0.000535
 1866 Fit      -0.009810
 1867 Fit      -0.014622
 1868 Fit      -0.016711
 1869 Fit      -0.014123
 1870 Fit      -0.014135
 1871 Fit      -0.016805
 1872 Fit      -0.019686
 1873 Fit      -0.021297
 1874 Fit      -0.019126
 1875 Fit      -0.022168
 1876 Fit      -0.021821
 1877 Fit      -0.023428
 1878 Fit      -0.025813
 1879 Fit      -0.027985
 1880 Fit      -0.026310
 1881 Fit      -0.027948
 1882 Fit      -0.032372
 1883 Fit      -0.028990
 1884 Fit      -0.029850
 1885 Fit      -0.029428
 1886 Fit      -0.027891
 1887 Fit      -0.017363
 1888 Fit      -0.022384
 1889 Fit       0.007641
 1890 Fit       0.009648
 1891 Fit       0.010469
 1892 Fit       0.004678
 1893 Fit      -0.000040
 1894 Fit       0.007391
 1895 Fit       0.007625
 1896 Fit       0.009240
 1897 Fit       0.005249
 1898 Fit       0.007769
 1899 Fit       0.009259
 1900 Fit       0.010996
 1901 Fit       0.002222
 1902 Fit       0.005772
 1903 Fit       0.007365
 1904 Fit       0.009039
 1905 Fit       0.010715
 1906 Fit       0.009472
 1907 Fit       0.007508
 1908 Fit       0.010882
 1909 Fit       0.008718
 1910 Fit       0.004680
 1911 Fit       0.003855
 1912 Fit       0.001473
 1913 Fit      -0.002192
 1914 Fit      -0.000106
 1915 Fit       0.009007
 1916 Fit       0.001620
 1917 Fit       0.012088
 1918 Fit       0.011585
 1919 Fit       0.011552
 1920 Fit       0.011277
 1921 Fit       0.009989
 1922 Fit       0.010123
 1923 Fit       0.008656
 1924 Fit       0.007541
 1925 Fit       0.004876
 1926 Fit       0.001792
 1927 Fit       0.008436
 1928 Fit       0.007764
 1929 Fit       0.004350
 1930 Fit      -0.000677
 1931 Fit       0.005429
 1932 Fit       0.000429
 1933 Fit      -0.000602
 1934 Fit      -0.010332
 1935 Fit      -0.004147
 1936 Fit      -0.008229
 1937 Fit      -0.015696
 1938 Fit      -0.022702
 1939 Fit      -0.009763
 1940 Fit      -0.013171
 1941 Fit      -0.013060
 1942 Fit      -0.010728
 1943 Fit      -0.008294
 1944 Fit      -0.006289
 1945 Fit      -0.005967
 1946 Fit      -0.009048
 1947 Fit      -0.015065
 1948 Fit      -0.022346
 1949 Fit      -0.030720
 1950 Fit      -0.009366
 1951 Fit      -0.014375
 1952 Fit      -0.016196
 1953 Fit      -0.015226
 1954 Fit      -0.013166
 1955 Fit      -0.011921
 1956 Fit      -0.013145
 1957 Fit      -0.017344
 1958 Fit      -0.023494
 1959 Fit      -0.030701
 1960 Fit      -0.008088
 1961 Fit      -0.010260
 1962 Fit      -0.014592
 1963 Fit      -0.017026
 1964 Fit      -0.016917
 1965 Fit      -0.016191
 1966 Fit      -0.017241
 1967 Fit      -0.020801
 1968 Fit      -0.025411
 1969 Fit      -0.028321
 1970 Fit      -0.013328
 1971 Fit      -0.014726
 1972 Fit      -0.016090
 1973 Fit      -0.017850
 1974 Fit      -0.019079
 1975 Fit      -0.021590
 1976 Fit      -0.019561
 1977 Fit      -0.018309
 1978 Fit       0.005599
 1979 Fit       0.004558
 1980 Fit       0.003050
 1981 Fit      -0.001583
 1982 Fit       0.005053
 1983 Fit       0.003895
 1984 Fit       0.003931
 1985 Fit       0.003374
 1986 Fit       0.001863
 1987 Fit      -0.000595
 1988 Fit       0.001931
 1989 Fit       0.002281
 1990 Fit       0.001688
 1991 Fit      -0.000299
 1992 Fit      -0.004148
 1993 Fit      -0.001259
 1994 Fit      -0.000763
 1995 Fit      -0.002582
 1996 Fit       0.008065
 1997 Fit       0.009907
 1998 Fit       0.006837
 1999 Fit       0.006833
 2000 Fit       0.008908
 2001 Fit       0.004848
 2002 Fit       0.004322
 2003 Fit       0.005634
 2004 Fit       0.000747
 2005 Fit       0.001075
 2006 Fit       0.005770
 2007 Fit       0.006632
 2008 Fit       0.003350
 2009 Fit       0.002067
 2010 Fit       0.001717
 2011 Fit       0.001369
 2012 Fit       0.000842
 2013 Fit       0.001034
 2014 Fit       0.001431
 2015 Fit      -0.000290
 2016 Fit       0.001372
 2017 Fit       0.002662
 2018 Fit      -0.004350
 2019 Fit       0.001540
 2020 Fit       0.007360
 2021 Fit       0.005196
 2022 Fit       0.008013
 2023 Fit       0.009553
 2024 Fit       0.006801
 2025 Fit       0.004353
 2026 Fit       0.011722
 2027 Fit       0.011550
 2028 Fit       0.007552
 2029 Fit       0.004503
 2030 Fit       0.002343
 2031 Fit       0.006027
 2032 Fit       0.002414
 2033 Fit      -0.000442
 2034 Fit       0.000495
 2035 Fit       0.000897
 2036 Fit       0.001114
 2037 Fit      -0.001861
 2038 Fit      -0.000537
 2039 Fit       0.000285
 2040 Fit       0.000582
 2041 Fit       0.000682
 2042 Fit      -0.008785
 2043 Fit      -0.004133
 2044 Fit      -0.002016
 2045 Fit      -0.001355
 2046 Fit      -0.001432
 2047 Fit      -0.010682
 2048 Fit      -0.006438
 2049 Fit       0.005459
 2050 Fit       0.005288
 2051 Fit       0.004483
 2052 Fit       0.004847
 2053 Fit       0.005568
 2054 Fit       0.006073
 2055 Fit       0.006203
 2056 Fit       0.003177
 2057 Fit       0.003411
 2058 Fit       0.004152
 2059 Fit       0.004920
 2060 Fit       0.005527
 2061 Fit       0.006107
 2062 Fit       0.007316
 2063 Fit       0.002076
 2064 Fit       0.002831
 2065 Fit       0.003689
 2066 Fit       0.004566
 2067 Fit       0.005402
 2068 Fit       0.002529
 2069 Fit       0.004052
 Job cpu time:       0 days  0 hours 13 minutes 14.5 seconds.
 Normal termination of Gaussian 16 at Sun Jul  9 10:00:20 2023.
