 Copyright (c) 1988-2019, Gaussian, Inc.  All Rights Reserved.
  
 This is part of the Gaussian(R) 16 program.  It is based on
 the Gaussian(R) 09 system (copyright 2009, Gaussian, Inc.),
 the Gaussian(R) 03 system (copyright 2003, Gaussian, Inc.),
 the Gaussian(R) 98 system (copyright 1998, Gaussian, Inc.),
 the Gaussian(R) 94 system (copyright 1995, Gaussian, Inc.),
 the Gaussian 92(TM) system (copyright 1992, Gaussian, Inc.),
 the Gaussian 90(TM) system (copyright 1990, Gaussian, Inc.),
 the Gaussian 88(TM) system (copyright 1988, Gaussian, Inc.),
 the Gaussian 86(TM) system (copyright 1986, Carnegie Mellon
 University), and the Gaussian 82(TM) system (copyright 1983,
 Carnegie Mellon University). Gaussian is a federally registered
 trademark of Gaussian, Inc.
 Cite this work as:
 Gaussian 16, Revision C.01,
 M. J. Frisch, G. W. Trucks, H. B. Schlegel, G. E. Scuseria, 
 M. A. Robb, J. R. Cheeseman, G. Scalmani, V. Barone, 
 G. A. Petersson, H. Nakatsuji, X. Li, M. Caricato, A. V. Marenich, 
 J. Bloino, B. G. Janesko, R. Gomperts, B. Mennucci, H. P. Hratchian, 
 J. V. Ortiz, A. F. Izmaylov, J. L. Sonnenberg, D. Williams-Young, 
 F. Ding, F. Lipparini, F. Egidi, J. Goings, B. Peng, A. Petrone, 
 T. Henderson, D. Ranasinghe, V. G. Zakrzewski, J. Gao, N. Rega, 
 G. Zheng, W. Liang, M. Hada, M. Ehara, K. Toyota, R. Fukuda, 
 J. Hasegawa, M. Ishida, T. Nakajima, Y. Honda, O. Kitao, H. Nakai, 
 T. Vreven, K. Throssell, J. A. Montgomery, Jr., J. E. Peralta, 
 F. Ogliaro, M. J. Bearpark, J. J. Heyd, E. N. Brothers, K. N. Kudin, 
 V. N. Staroverov, T. A. Keith, R. Kobayashi, J. Normand, 
 K. Raghavachari, A. P. Rendell, J. C. Burant, S. S. Iyengar, 
 J. Tomasi, M. Cossi, J. M. Millam, M. Klene, C. Adamo, R. Cammi, 
 J. W. Ochterski, R. L. Martin, K. Morokuma, O. Farkas, 
 J. B. Foresman, and D. J. Fox, Gaussian, Inc., Wallingford CT, 2019.
 
 ******************************************
 Gaussian 16:  EM64L-G16RevC.01  3-Jul-2019
                 9-Jul-2023 
 ******************************************
 ----------------------------------------------------------------------
 #P B3LYP/6-31G(d) Integral=Ultrafine SCF(Conver=8,XQC,MaxConventionalC
 ycles=64,MaxCycle=128) NoSymm Test Pop=mk IOp(6/33=2) GFInput GFPrint
 ----------------------------------------------------------------------
 1/38=1,172=1/1;
 2/12=2,15=1,17=6,18=5,40=1/2;
 3/5=1,6=6,7=1,11=2,24=110,25=1,30=1,74=-5,75=-5/1,2,3;
 4//1;
 5/5=2,6=8,7=128,8=3,13=1,38=5,85=64/2,8;
 6/7=2,8=2,9=2,10=2,15=8,20=1,28=1,33=2/1,2;
 99/5=1,9=1/99;
 -------------------------------------------------
 MEP step - Input generated by PyRED DVE-DMDS-OPLS
 -------------------------------------------------
 Symbolic Z-matrix:
 Charge =  0 Multiplicity = 1
 C                     2.84273  -5.75008   0.85048 
 H                     2.24813  -6.65409   0.68053 
 H                     3.48705  -5.59376  -0.0211 
 H                     3.48071  -5.93222   1.72314 
 C                     1.96551  -4.52268   1.09037 
 H                     1.31066  -4.68035   1.96265 
 H                     2.59362  -3.65103   1.30306 
 O                     1.18354  -4.15294  -0.04166 
 C                     0.04391  -4.96681  -0.26544 
 H                    -0.5923   -4.99351   0.63426 
 H                     0.33328  -6.00311  -0.50628 
 C                    -0.75435  -4.40574  -1.43464 
 H                    -0.09343  -4.30194  -2.30834 
 H                    -1.53934  -5.12772  -1.69006 
 O                    -1.42073  -3.18852  -1.15436 
 C                    -0.65651  -1.99184  -1.27925 
 H                    -1.15818  -1.33128  -1.99955 
 H                     0.35014  -2.20849  -1.65275 
 C                    -0.5922   -1.29126   0.08088 
 H                    -0.05353  -1.92681   0.79652 
 H                    -1.61167  -1.1414    0.45061 
 O                     0.        0.        0. 
 C                     1.42093   0.        0. 
 H                     1.81218  -0.50863  -0.89688 
 H                     1.80158  -0.53769   0.88205 
 C                     1.92054   1.43784   0. 
 H                     1.49026   1.9931   -0.83966 
 H                     3.00713   1.43333  -0.1413 
 S                     1.68929   2.38662   1.55342 
 C                    -0.12988   2.65686   1.64782 
 H                    -0.61856   1.71112   1.89328 
 H                    -0.24052   3.33827   2.4979 
 C                    -0.80484   3.24029   0.40862 
 H                    -1.85587   3.42854   0.65995 
 H                    -0.78419   2.50944  -0.40542 
 S                    -0.0312    4.81801  -0.14369 
 C                    -1.32207   5.36373  -1.33122 
 H                    -1.63745   4.49473  -1.92349 
 H                    -0.81675   6.048    -2.02007 
 C                    -2.55272   6.03886  -0.71265 
 H                    -3.34818   6.11797  -1.46388 
 H                    -2.95427   5.43404   0.10639 
 S                    -2.25608   7.69986   0.0124 
 C                    -2.25183   8.75243  -1.49755 
 H                    -1.80098   9.69392  -1.16637 
 H                    -1.56482   8.31965  -2.23388 
 C                    -3.62918   9.0065   -2.10963 
 H                    -4.10425   8.0767   -2.44146 
 H                    -4.2965    9.48393  -1.38548 
 H                    -3.54173   9.66309  -2.98482 
 
 ITRead=  0  0  0  0  0  0  0  0  0  0  0  0  0  0  0  0  0  0  0  0
 ITRead=  0  0  0  0  0  0  0  0  0  0  0  0  0  0  0  0  0  0  0  0
 ITRead=  0  0  0  0  0  0  0  0  0  0
 MicOpt= -1 -1 -1 -1 -1 -1 -1 -1 -1 -1 -1 -1 -1 -1 -1 -1 -1 -1 -1 -1
 MicOpt= -1 -1 -1 -1 -1 -1 -1 -1 -1 -1 -1 -1 -1 -1 -1 -1 -1 -1 -1 -1
 MicOpt= -1 -1 -1 -1 -1 -1 -1 -1 -1 -1
 NAtoms=     50 NQM=       50 NQMF=       0 NMMI=      0 NMMIF=      0
                NMic=       0 NMicF=      0.
                          Input orientation:                          
 ---------------------------------------------------------------------
 Center     Atomic      Atomic             Coordinates (Angstroms)
 Number     Number       Type             X           Y           Z
 ---------------------------------------------------------------------
      1          6           0        2.842725   -5.750078    0.850483
      2          1           0        2.248132   -6.654091    0.680531
      3          1           0        3.487050   -5.593763   -0.021101
      4          1           0        3.480713   -5.932220    1.723144
      5          6           0        1.965511   -4.522682    1.090371
      6          1           0        1.310662   -4.680347    1.962648
      7          1           0        2.593622   -3.651033    1.303057
      8          8           0        1.183538   -4.152943   -0.041661
      9          6           0        0.043905   -4.966810   -0.265437
     10          1           0       -0.592302   -4.993512    0.634257
     11          1           0        0.333276   -6.003109   -0.506276
     12          6           0       -0.754350   -4.405744   -1.434637
     13          1           0       -0.093432   -4.301937   -2.308343
     14          1           0       -1.539342   -5.127721   -1.690061
     15          8           0       -1.420730   -3.188521   -1.154362
     16          6           0       -0.656508   -1.991844   -1.279246
     17          1           0       -1.158176   -1.331275   -1.999545
     18          1           0        0.350140   -2.208494   -1.652746
     19          6           0       -0.592203   -1.291261    0.080878
     20          1           0       -0.053532   -1.926809    0.796518
     21          1           0       -1.611668   -1.141404    0.450607
     22          8           0        0.000000    0.000000    0.000000
     23          6           0        1.420928    0.000000    0.000000
     24          1           0        1.812179   -0.508628   -0.896884
     25          1           0        1.801583   -0.537694    0.882045
     26          6           0        1.920536    1.437838    0.000000
     27          1           0        1.490257    1.993100   -0.839655
     28          1           0        3.007135    1.433329   -0.141296
     29         16           0        1.689290    2.386624    1.553417
     30          6           0       -0.129881    2.656863    1.647822
     31          1           0       -0.618561    1.711117    1.893276
     32          1           0       -0.240521    3.338274    2.497903
     33          6           0       -0.804835    3.240286    0.408620
     34          1           0       -1.855866    3.428539    0.659950
     35          1           0       -0.784193    2.509436   -0.405418
     36         16           0       -0.031201    4.818010   -0.143694
     37          6           0       -1.322073    5.363729   -1.331222
     38          1           0       -1.637448    4.494728   -1.923488
     39          1           0       -0.816746    6.048003   -2.020072
     40          6           0       -2.552722    6.038861   -0.712646
     41          1           0       -3.348185    6.117969   -1.463880
     42          1           0       -2.954267    5.434038    0.106392
     43         16           0       -2.256075    7.699865    0.012399
     44          6           0       -2.251830    8.752434   -1.497552
     45          1           0       -1.800977    9.693923   -1.166369
     46          1           0       -1.564823    8.319649   -2.233878
     47          6           0       -3.629175    9.006501   -2.109632
     48          1           0       -4.104246    8.076704   -2.441457
     49          1           0       -4.296499    9.483928   -1.385482
     50          1           0       -3.541729    9.663091   -2.984815
 ---------------------------------------------------------------------
 Stoichiometry    C14H30O3S3
 Framework group  C1[X(C14H30O3S3)]
 Standard basis: 6-31G(d) (6D, 7F)
   372 basis functions,   752 primitive gaussians,   372 cartesian basis functions
    93 alpha electrons       93 beta electrons
 Requested convergence on RMS density matrix=1.00D-08 within  64 cycles.
 Requested convergence on MAX density matrix=1.00D-06.
 Requested convergence on             energy=1.00D-06.
 SCF Done:  E(RB3LYP) =  -1971.75009321     A.U. after   13 cycles
            NFock= 13  Conv=0.45D-08     -V/T= 2.0058
 Mulliken charges:
     1  C   -0.461710
     2  H    0.151644
     3  H    0.159072
     4  H    0.148679
     5  C   -0.016766
     6  H    0.125416
     7  H    0.146981
     8  O   -0.475136
     9  C   -0.023796
    10  H    0.130851
    11  H    0.120093
    12  C   -0.045203
    13  H    0.137084
    14  H    0.144701
    15  O   -0.477489
    16  C   -0.036013
    17  H    0.136565
    18  H    0.143426
    19  C   -0.039419
    20  H    0.139643
    21  H    0.148318
    22  O   -0.478762
    23  C   -0.004216
    24  H    0.127845
    25  H    0.138239
    26  C   -0.442574
    27  H    0.193096
    28  H    0.175761
    29  S    0.088928
    30  C   -0.410183
    31  H    0.189743
    32  H    0.182690
    33  C   -0.415666
    34  H    0.164711
    35  H    0.187503
    36  S    0.122682
    37  C   -0.416266
    38  H    0.164712
    39  H    0.178258
    40  C   -0.411550
    41  H    0.167914
    42  H    0.179888
    43  S    0.103040
    44  C   -0.413520
    45  H    0.177714
    46  H    0.166126
    47  C   -0.433362
    48  H    0.149326
    49  H    0.164106
    50  H    0.146877
 Sum of Mulliken charges =  -0.00000
 Dipole moment (field-independent basis, Debye):
    X=             -0.7271    Y=             -4.3565    Z=             -2.5258  Tot=              5.0880
 Quadrupole moment (field-independent basis, Debye-Ang):
   XX=           -145.6480   YY=           -141.3074   ZZ=           -143.3573
   XY=            -14.4623   XZ=              1.2822   YZ=            -20.4805
 Traceless Quadrupole moment (field-independent basis, Debye-Ang):
   XX=             -2.2104   YY=              2.1302   ZZ=              0.0802
   XY=            -14.4623   XZ=              1.2822   YZ=            -20.4805
 Octapole moment (field-independent basis, Debye-Ang**2):
  XXX=            133.7398  YYY=           -827.3317  ZZZ=             52.0410  XYY=              9.2347
  XXY=           -247.8266  XXZ=              9.9715  XZZ=             28.7673  YZZ=           -231.8033
  YYZ=           -108.5147  XYZ=             19.4524
 Hexadecapole moment (field-independent basis, Debye-Ang**3):
 XXXX=          -2908.4030 YYYY=         -20824.1921 ZZZZ=          -1229.3283 XXXY=           2507.1097
 XXXZ=           -542.1967 YYYX=           2231.4489 YYYZ=           -425.0723 ZZZX=           -565.5530
 ZZZY=            622.4440 XXYY=          -4190.4776 XXZZ=           -696.2120 YYZZ=          -3682.8628
 XXYZ=             90.2502 YYXZ=            104.0373 ZZXY=            776.0525
 Merz-Kollman atomic radii used.
 Atom Element Radius
    1     6    1.50
    2     1    1.20
    3     1    1.20
    4     1    1.20
    5     6    1.50
    6     1    1.20
    7     1    1.20
    8     8    1.40
    9     6    1.50
   10     1    1.20
   11     1    1.20
   12     6    1.50
   13     1    1.20
   14     1    1.20
   15     8    1.40
   16     6    1.50
   17     1    1.20
   18     1    1.20
   19     6    1.50
   20     1    1.20
   21     1    1.20
   22     8    1.40
   23     6    1.50
   24     1    1.20
   25     1    1.20
   26     6    1.50
   27     1    1.20
   28     1    1.20
   29    16    1.75
   30     6    1.50
   31     1    1.20
   32     1    1.20
   33     6    1.50
   34     1    1.20
   35     1    1.20
   36    16    1.75
   37     6    1.50
   38     1    1.20
   39     1    1.20
   40     6    1.50
   41     1    1.20
   42     1    1.20
   43    16    1.75
   44     6    1.50
   45     1    1.20
   46     1    1.20
   47     6    1.50
   48     1    1.20
   49     1    1.20
   50     1    1.20
 Generate VDW surfaces: Layer= 4 Dens= 1 Start= 1.400 Inc= 0.200
            Electrostatic Properties Using The SCF Density.


       Atomic Center    1 is at   2.842725 -5.750078  0.850483
       Atomic Center    2 is at   2.248132 -6.654091  0.680531
       Atomic Center    3 is at   3.487050 -5.593763 -0.021101
       Atomic Center    4 is at   3.480713 -5.932220  1.723144
       Atomic Center    5 is at   1.965511 -4.522682  1.090371
       Atomic Center    6 is at   1.310662 -4.680347  1.962648
       Atomic Center    7 is at   2.593622 -3.651033  1.303057
       Atomic Center    8 is at   1.183538 -4.152943 -0.041661
       Atomic Center    9 is at   0.043905 -4.966810 -0.265437
       Atomic Center   10 is at  -0.592302 -4.993512  0.634257
       Atomic Center   11 is at   0.333276 -6.003109 -0.506276
       Atomic Center   12 is at  -0.754350 -4.405744 -1.434637
       Atomic Center   13 is at  -0.093432 -4.301937 -2.308343
       Atomic Center   14 is at  -1.539342 -5.127721 -1.690061
       Atomic Center   15 is at  -1.420730 -3.188521 -1.154362
       Atomic Center   16 is at  -0.656508 -1.991844 -1.279246
       Atomic Center   17 is at  -1.158176 -1.331275 -1.999545
       Atomic Center   18 is at   0.350140 -2.208494 -1.652746
       Atomic Center   19 is at  -0.592203 -1.291261  0.080878
       Atomic Center   20 is at  -0.053532 -1.926809  0.796518
       Atomic Center   21 is at  -1.611668 -1.141404  0.450607
       Atomic Center   22 is at   0.000000  0.000000  0.000000
       Atomic Center   23 is at   1.420928  0.000000  0.000000
       Atomic Center   24 is at   1.812179 -0.508628 -0.896884
       Atomic Center   25 is at   1.801583 -0.537694  0.882045
       Atomic Center   26 is at   1.920536  1.437838  0.000000
       Atomic Center   27 is at   1.490257  1.993100 -0.839655
       Atomic Center   28 is at   3.007135  1.433329 -0.141296
       Atomic Center   29 is at   1.689290  2.386624  1.553417
       Atomic Center   30 is at  -0.129881  2.656863  1.647822
       Atomic Center   31 is at  -0.618561  1.711117  1.893276
       Atomic Center   32 is at  -0.240521  3.338274  2.497903
       Atomic Center   33 is at  -0.804835  3.240286  0.408620
       Atomic Center   34 is at  -1.855866  3.428539  0.659950
       Atomic Center   35 is at  -0.784193  2.509436 -0.405418
       Atomic Center   36 is at  -0.031201  4.818010 -0.143694
       Atomic Center   37 is at  -1.322073  5.363729 -1.331222
       Atomic Center   38 is at  -1.637448  4.494728 -1.923488
       Atomic Center   39 is at  -0.816746  6.048003 -2.020072
       Atomic Center   40 is at  -2.552722  6.038861 -0.712646
       Atomic Center   41 is at  -3.348185  6.117969 -1.463880
       Atomic Center   42 is at  -2.954267  5.434038  0.106392
       Atomic Center   43 is at  -2.256075  7.699865  0.012399
       Atomic Center   44 is at  -2.251830  8.752434 -1.497552
       Atomic Center   45 is at  -1.800977  9.693923 -1.166369
       Atomic Center   46 is at  -1.564823  8.319649 -2.233878
       Atomic Center   47 is at  -3.629175  9.006501 -2.109632
       Atomic Center   48 is at  -4.104246  8.076704 -2.441457
       Atomic Center   49 is at  -4.296499  9.483928 -1.385482
       Atomic Center   50 is at  -3.541729  9.663091 -2.984815
      ESP Fit Center   51 is at   4.942725 -5.750078  0.850483
      ESP Fit Center   52 is at   4.702183 -4.774159  0.850483
      ESP Fit Center   53 is at   4.035661 -7.478344  0.850483
      ESP Fit Center   54 is at   4.702183 -6.725997  0.850483
      ESP Fit Center   55 is at   3.598221 -7.404383 -0.199517
      ESP Fit Center   56 is at   1.449245 -7.234517  2.039680
      ESP Fit Center   57 is at   2.553280 -7.593240  2.039680
      ESP Fit Center   58 is at   0.746715 -7.200562  1.199680
      ESP Fit Center   59 is at   1.449245 -8.037805  1.199680
      ESP Fit Center   60 is at   2.525583 -8.227592  1.199680
      ESP Fit Center   61 is at   1.449245 -8.037805  0.161382
      ESP Fit Center   62 is at   2.525583 -8.227592  0.161382
      ESP Fit Center   63 is at   3.472099 -7.681121  0.161382
      ESP Fit Center   64 is at   2.553280 -7.593240 -0.678618
      ESP Fit Center   65 is at   2.248132 -6.654091 -0.999469
      ESP Fit Center   66 is at   5.084825 -5.593763  0.498048
      ESP Fit Center   67 is at   4.711017 -4.566733  0.498048
      ESP Fit Center   68 is at   5.084825 -5.593763 -0.540250
      ESP Fit Center   69 is at   4.711017 -4.566733 -0.540250
      ESP Fit Center   70 is at   3.764501 -4.020262 -0.540250
      ESP Fit Center   71 is at   3.764501 -7.167264 -0.540250
      ESP Fit Center   72 is at   4.711017 -6.620793 -0.540250
      ESP Fit Center   73 is at   4.474529 -5.593763 -1.380250
      ESP Fit Center   74 is at   3.792198 -4.654614 -1.380250
      ESP Fit Center   75 is at   2.688163 -5.013337 -1.380250
      ESP Fit Center   76 is at   2.688163 -6.174189 -1.380250
      ESP Fit Center   77 is at   3.792198 -6.532912 -1.380250
      ESP Fit Center   78 is at   3.487050 -5.593763 -1.701101
      ESP Fit Center   79 is at   3.480713 -5.932220  3.403144
      ESP Fit Center   80 is at   4.468192 -5.932220  3.082293
      ESP Fit Center   81 is at   3.785861 -4.993071  3.082293
      ESP Fit Center   82 is at   2.681826 -5.351794  3.082293
      ESP Fit Center   83 is at   2.681826 -6.512646  3.082293
      ESP Fit Center   84 is at   3.785861 -6.871369  3.082293
      ESP Fit Center   85 is at   5.078488 -5.932220  2.242293
      ESP Fit Center   86 is at   4.704680 -4.905190  2.242293
      ESP Fit Center   87 is at   2.681826 -7.315934  2.242293
      ESP Fit Center   88 is at   3.758164 -7.505721  2.242293
      ESP Fit Center   89 is at   4.704680 -6.959250  2.242293
      ESP Fit Center   90 is at   5.078488 -5.932220  1.203995
      ESP Fit Center   91 is at   4.704680 -6.959250  1.203995
      ESP Fit Center   92 is at   3.015511 -4.522682  2.909024
      ESP Fit Center   93 is at   1.310662 -4.680347  3.642648
      ESP Fit Center   94 is at   2.298141 -4.680347  3.321797
      ESP Fit Center   95 is at   1.615810 -3.741198  3.321797
      ESP Fit Center   96 is at   0.511775 -4.099921  3.321797
      ESP Fit Center   97 is at   0.511775 -5.260773  3.321797
      ESP Fit Center   98 is at   1.615810 -5.619496  3.321797
      ESP Fit Center   99 is at   0.511775 -3.296633  2.481797
      ESP Fit Center  100 is at  -0.190755 -4.133876  2.481797
      ESP Fit Center  101 is at  -0.190755 -5.226818  2.481797
      ESP Fit Center  102 is at   0.511775 -6.064061  2.481797
      ESP Fit Center  103 is at   1.588113 -6.253848  2.481797
      ESP Fit Center  104 is at   2.593622 -3.651033  2.983057
      ESP Fit Center  105 is at   3.581101 -3.651033  2.662206
      ESP Fit Center  106 is at   2.898770 -2.711884  2.662206
      ESP Fit Center  107 is at   1.794735 -3.070607  2.662206
      ESP Fit Center  108 is at   4.191397 -3.651033  1.822206
      ESP Fit Center  109 is at   3.817589 -2.624003  1.822206
      ESP Fit Center  110 is at   2.871073 -2.077532  1.822206
      ESP Fit Center  111 is at   1.794735 -2.267319  1.822206
      ESP Fit Center  112 is at   4.191397 -3.651033  0.783908
      ESP Fit Center  113 is at   3.817589 -2.624003  0.783908
      ESP Fit Center  114 is at   2.871073 -2.077532  0.783908
      ESP Fit Center  115 is at   1.794735 -2.267319  0.783908
      ESP Fit Center  116 is at   3.581101 -3.651033 -0.056092
      ESP Fit Center  117 is at   2.898770 -2.711884 -0.056092
      ESP Fit Center  118 is at   2.163538 -2.455533 -0.041661
      ESP Fit Center  119 is at   2.880948 -4.152943 -1.021661
      ESP Fit Center  120 is at   2.556771 -3.155231 -1.021661
      ESP Fit Center  121 is at   2.163538 -4.152943 -1.739071
      ESP Fit Center  122 is at   1.673538 -3.304238 -1.739071
      ESP Fit Center  123 is at   1.673538 -5.001648 -1.739071
      ESP Fit Center  124 is at  -1.527968 -6.359368 -0.265437
      ESP Fit Center  125 is at  -0.592302 -4.993512  2.314257
      ESP Fit Center  126 is at  -0.287154 -4.054363  1.993406
      ESP Fit Center  127 is at  -1.391189 -4.413086  1.993406
      ESP Fit Center  128 is at  -1.391189 -5.573938  1.993406
      ESP Fit Center  129 is at  -0.287154 -5.932661  1.993406
      ESP Fit Center  130 is at  -1.391189 -3.609798  1.153406
      ESP Fit Center  131 is at  -2.093719 -4.447041  1.153406
      ESP Fit Center  132 is at  -2.093719 -5.539983  1.153406
      ESP Fit Center  133 is at  -1.391189 -6.377226  1.153406
      ESP Fit Center  134 is at  -0.314851 -6.567013  1.153406
      ESP Fit Center  135 is at  -2.093719 -5.539983  0.115108
      ESP Fit Center  136 is at  -0.465611 -7.386823  0.012873
      ESP Fit Center  137 is at   0.610727 -7.576610  0.012873
      ESP Fit Center  138 is at   1.931051 -6.003109 -1.025425
      ESP Fit Center  139 is at  -0.465611 -7.386823 -1.025425
      ESP Fit Center  140 is at   0.610727 -7.576610 -1.025425
      ESP Fit Center  141 is at   1.557243 -7.030139 -1.025425
      ESP Fit Center  142 is at   1.320755 -6.003109 -1.865425
      ESP Fit Center  143 is at  -0.465611 -6.583535 -1.865425
      ESP Fit Center  144 is at   0.638424 -6.942258 -1.865425
      ESP Fit Center  145 is at   0.001146 -6.060049 -2.484637
      ESP Fit Center  146 is at  -1.279350 -3.496417 -3.253290
      ESP Fit Center  147 is at  -1.804350 -4.405744 -3.253290
      ESP Fit Center  148 is at   1.504343 -4.301937 -2.827492
      ESP Fit Center  149 is at   1.130535 -3.274907 -2.827492
      ESP Fit Center  150 is at   0.184019 -5.875438 -2.827492
      ESP Fit Center  151 is at   1.130535 -5.328967 -2.827492
      ESP Fit Center  152 is at   0.894047 -4.301937 -3.667492
      ESP Fit Center  153 is at   0.211716 -3.362788 -3.667492
      ESP Fit Center  154 is at  -0.892319 -3.721511 -3.667492
      ESP Fit Center  155 is at  -0.892319 -4.882363 -3.667492
      ESP Fit Center  156 is at   0.211716 -5.241086 -3.667492
      ESP Fit Center  157 is at  -0.093432 -4.301937 -3.988343
      ESP Fit Center  158 is at  -2.338229 -5.708147 -0.330912
      ESP Fit Center  159 is at  -3.040759 -4.581250 -1.170912
      ESP Fit Center  160 is at  -3.040759 -5.674192 -1.170912
      ESP Fit Center  161 is at  -2.338229 -6.511435 -1.170912
      ESP Fit Center  162 is at  -1.261891 -6.701222 -1.170912
      ESP Fit Center  163 is at  -3.040759 -4.581250 -2.209210
      ESP Fit Center  164 is at  -3.040759 -5.674192 -2.209210
      ESP Fit Center  165 is at  -2.338229 -6.511435 -2.209210
      ESP Fit Center  166 is at  -1.261891 -6.701222 -2.209210
      ESP Fit Center  167 is at  -2.338229 -4.547295 -3.049210
      ESP Fit Center  168 is at  -2.338229 -5.708147 -3.049210
      ESP Fit Center  169 is at  -1.234194 -6.066870 -3.049210
      ESP Fit Center  170 is at  -1.539342 -5.127721 -3.370061
      ESP Fit Center  171 is at  -1.420730 -3.188521  0.805638
      ESP Fit Center  172 is at  -2.400730 -3.188521  0.543048
      ESP Fit Center  173 is at  -2.793963 -2.190809 -0.174362
      ESP Fit Center  174 is at  -3.118140 -3.188521 -0.174362
      ESP Fit Center  175 is at  -2.793963 -4.186233 -0.174362
      ESP Fit Center  176 is at  -3.118140 -2.208521 -1.154362
      ESP Fit Center  177 is at  -3.380730 -3.188521 -1.154362
      ESP Fit Center  178 is at  -3.118140 -4.168521 -1.154362
      ESP Fit Center  179 is at  -2.793963 -2.190809 -2.134362
      ESP Fit Center  180 is at  -3.118140 -3.188521 -2.134362
      ESP Fit Center  181 is at  -2.400730 -3.188521 -2.851772
      ESP Fit Center  182 is at  -1.420730 -3.188521 -3.114362
      ESP Fit Center  183 is at  -2.695486 -1.489281 -1.279246
      ESP Fit Center  184 is at  -1.181508 -2.901171 -3.097899
      ESP Fit Center  185 is at  -1.957063  0.052439 -1.480396
      ESP Fit Center  186 is at  -2.659593 -0.784804 -1.480396
      ESP Fit Center  187 is at   0.065791 -0.304245 -2.518694
      ESP Fit Center  188 is at  -0.880725  0.242226 -2.518694
      ESP Fit Center  189 is at  -1.957063  0.052439 -2.518694
      ESP Fit Center  190 is at  -2.659593 -0.784804 -2.518694
      ESP Fit Center  191 is at  -2.659593 -1.877746 -2.518694
      ESP Fit Center  192 is at  -0.170697 -1.331275 -3.358694
      ESP Fit Center  193 is at  -0.853028 -0.392126 -3.358694
      ESP Fit Center  194 is at  -1.957063 -0.750849 -3.358694
      ESP Fit Center  195 is at  -1.957063 -1.911701 -3.358694
      ESP Fit Center  196 is at  -0.853028 -2.270424 -3.358694
      ESP Fit Center  197 is at  -1.158176 -1.331275 -3.679545
      ESP Fit Center  198 is at   1.337619 -2.208494 -0.293597
      ESP Fit Center  199 is at   1.947915 -2.208494 -1.133597
      ESP Fit Center  200 is at   1.947915 -2.208494 -2.171895
      ESP Fit Center  201 is at   1.574107 -3.235524 -2.171895
      ESP Fit Center  202 is at   1.337619 -2.208494 -3.011895
      ESP Fit Center  203 is at   0.655288 -1.269345 -3.011895
      ESP Fit Center  204 is at   0.350140 -2.208494 -3.332746
      ESP Fit Center  205 is at  -1.117203 -0.381934  1.899531
      ESP Fit Center  206 is at  -1.783168  0.083185 -0.969122
      ESP Fit Center  207 is at  -0.053532 -1.926809  2.476518
      ESP Fit Center  208 is at   0.933947 -1.926809  2.155667
      ESP Fit Center  209 is at   0.251616 -0.987660  2.155667
      ESP Fit Center  210 is at  -0.852419 -2.507235  2.155667
      ESP Fit Center  211 is at   0.251616 -2.865958  2.155667
      ESP Fit Center  212 is at  -0.852419 -3.310523  1.315667
      ESP Fit Center  213 is at  -1.611668 -1.141404  2.130607
      ESP Fit Center  214 is at  -1.306520 -0.202255  1.809756
      ESP Fit Center  215 is at  -2.410555 -0.560978  1.809756
      ESP Fit Center  216 is at  -2.410555 -1.721830  1.809756
      ESP Fit Center  217 is at  -2.410555  0.242310  0.969756
      ESP Fit Center  218 is at  -3.113085 -0.594933  0.969756
      ESP Fit Center  219 is at  -3.113085 -1.687875  0.969756
      ESP Fit Center  220 is at  -2.410555 -2.525118  0.969756
      ESP Fit Center  221 is at  -2.410555  0.242310 -0.068542
      ESP Fit Center  222 is at  -3.113085 -0.594933 -0.068542
      ESP Fit Center  223 is at  -3.113085 -1.687875 -0.068542
      ESP Fit Center  224 is at  -2.410555 -0.560978 -0.908542
      ESP Fit Center  225 is at   0.000000  0.000000  1.960000
      ESP Fit Center  226 is at  -0.980000  0.000000  1.697410
      ESP Fit Center  227 is at  -1.697410  0.980000  0.000000
      ESP Fit Center  228 is at  -1.373233  0.997712 -0.980000
      ESP Fit Center  229 is at   0.490000  0.848705 -1.697410
      ESP Fit Center  230 is at  -0.490000  0.848705 -1.697410
      ESP Fit Center  231 is at   0.000000  0.000000 -1.960000
      ESP Fit Center  232 is at   1.674055 -2.084689  0.000000
      ESP Fit Center  233 is at   2.613864 -1.728266  0.000000
      ESP Fit Center  234 is at   3.280386 -0.975919  0.000000
      ESP Fit Center  235 is at   2.089630 -2.082129 -0.377735
      ESP Fit Center  236 is at   3.036146 -1.535658 -0.377735
      ESP Fit Center  237 is at   3.409954 -0.508628 -1.416033
      ESP Fit Center  238 is at   2.089630 -2.082129 -1.416033
      ESP Fit Center  239 is at   3.036146 -1.535658 -1.416033
      ESP Fit Center  240 is at   2.799658 -0.508628 -2.256033
      ESP Fit Center  241 is at   2.117327  0.430521 -2.256033
      ESP Fit Center  242 is at   1.013292  0.071798 -2.256033
      ESP Fit Center  243 is at   2.117327 -1.447777 -2.256033
      ESP Fit Center  244 is at   1.812179 -0.508628 -2.576884
      ESP Fit Center  245 is at   1.801583 -0.537694  2.562045
      ESP Fit Center  246 is at   2.789062 -0.537694  2.241194
      ESP Fit Center  247 is at   1.002696  0.042732  2.241194
      ESP Fit Center  248 is at   1.002696 -1.118120  2.241194
      ESP Fit Center  249 is at   2.106731 -1.476843  2.241194
      ESP Fit Center  250 is at   3.399358 -0.537694  1.401194
      ESP Fit Center  251 is at   3.025550 -1.564724  1.401194
      ESP Fit Center  252 is at   2.079034 -2.111195  0.362896
      ESP Fit Center  253 is at   3.025550 -1.564724  0.362896
      ESP Fit Center  254 is at   2.714224  3.020130 -1.358804
      ESP Fit Center  255 is at   1.767708  3.566601 -1.358804
      ESP Fit Center  256 is at   2.477736  1.993100 -2.198804
      ESP Fit Center  257 is at   1.795405  2.932249 -2.198804
      ESP Fit Center  258 is at   0.691370  2.573526 -2.198804
      ESP Fit Center  259 is at   0.691370  1.412674 -2.198804
      ESP Fit Center  260 is at   1.795405  1.053951 -2.198804
      ESP Fit Center  261 is at   1.490257  1.993100 -2.519655
      ESP Fit Center  262 is at   3.994614  1.433329  1.217853
      ESP Fit Center  263 is at   4.604910  1.433329  0.377853
      ESP Fit Center  264 is at   4.231102  2.460359  0.377853
      ESP Fit Center  265 is at   4.231102  0.406299  0.377853
      ESP Fit Center  266 is at   4.604910  1.433329 -0.660445
      ESP Fit Center  267 is at   4.231102  2.460359 -0.660445
      ESP Fit Center  268 is at   3.284586  3.006830 -0.660445
      ESP Fit Center  269 is at   4.231102  0.406299 -0.660445
      ESP Fit Center  270 is at   3.994614  1.433329 -1.500445
      ESP Fit Center  271 is at   3.312283  2.372478 -1.500445
      ESP Fit Center  272 is at   3.312283  0.494180 -1.500445
      ESP Fit Center  273 is at   3.007135  1.433329 -1.821296
      ESP Fit Center  274 is at   1.689290  2.386624  4.003417
      ESP Fit Center  275 is at   2.752305  2.386624  3.760791
      ESP Fit Center  276 is at   2.220798  3.307222  3.760791
      ESP Fit Center  277 is at   1.157782  3.307222  3.760791
      ESP Fit Center  278 is at   0.626275  2.386624  3.760791
      ESP Fit Center  279 is at   1.157782  1.466026  3.760791
      ESP Fit Center  280 is at   2.220798  1.466026  3.760791
      ESP Fit Center  281 is at   3.604777  2.386624  3.080967
      ESP Fit Center  282 is at   3.300700  3.422215  3.080967
      ESP Fit Center  283 is at   2.485012  4.129012  3.080967
      ESP Fit Center  284 is at   1.416688  4.282614  3.080967
      ESP Fit Center  285 is at   0.434913  0.938995  3.080967
      ESP Fit Center  286 is at   1.416688  0.490634  3.080967
      ESP Fit Center  287 is at   2.485012  0.644236  3.080967
      ESP Fit Center  288 is at   3.300700  1.351033  3.080967
      ESP Fit Center  289 is at   4.077863  2.386624  2.098593
      ESP Fit Center  290 is at   3.841320  3.422987  2.098593
      ESP Fit Center  291 is at   3.178541  4.254086  2.098593
      ESP Fit Center  292 is at   2.220798  4.715311  2.098593
      ESP Fit Center  293 is at   1.157782  4.715311  2.098593
      ESP Fit Center  294 is at   3.178541  0.519162  2.098593
      ESP Fit Center  295 is at   3.841320  1.350261  2.098593
      ESP Fit Center  296 is at   4.077863  2.386624  1.008241
      ESP Fit Center  297 is at   3.841320  3.422987  1.008241
      ESP Fit Center  298 is at   3.178541  4.254086  1.008241
      ESP Fit Center  299 is at   2.220798  4.715311  1.008241
      ESP Fit Center  300 is at   3.300700  3.422215  0.025867
      ESP Fit Center  301 is at   2.485012  4.129012  0.025867
      ESP Fit Center  302 is at  -0.618561  1.711117  3.573276
      ESP Fit Center  303 is at  -1.417448  1.130691  3.252425
      ESP Fit Center  304 is at  -0.313413  0.771968  3.252425
      ESP Fit Center  305 is at  -2.119978  2.257588  2.412425
      ESP Fit Center  306 is at  -2.119978  1.164646  2.412425
      ESP Fit Center  307 is at  -1.417448  0.327403  2.412425
      ESP Fit Center  308 is at  -0.341110  0.137616  2.412425
      ESP Fit Center  309 is at  -2.119978  1.164646  1.374127
      ESP Fit Center  310 is at  -1.417448  0.327403  1.374127
      ESP Fit Center  311 is at  -0.240521  3.338274  4.177903
      ESP Fit Center  312 is at   0.746958  3.338274  3.857052
      ESP Fit Center  313 is at   0.064627  4.277423  3.857052
      ESP Fit Center  314 is at  -1.039408  3.918700  3.857052
      ESP Fit Center  315 is at  -1.039408  2.757848  3.857052
      ESP Fit Center  316 is at   0.064627  2.399125  3.857052
      ESP Fit Center  317 is at   0.983446  4.365304  3.017052
      ESP Fit Center  318 is at   0.036930  4.911775  3.017052
      ESP Fit Center  319 is at  -1.039408  4.721988  3.017052
      ESP Fit Center  320 is at  -1.741938  3.884745  3.017052
      ESP Fit Center  321 is at  -1.741938  2.791803  3.017052
      ESP Fit Center  322 is at  -2.376708  1.847728  0.408620
      ESP Fit Center  323 is at  -1.550718  4.367688  2.019099
      ESP Fit Center  324 is at  -2.654753  4.008965  2.019099
      ESP Fit Center  325 is at  -2.654753  2.848113  2.019099
      ESP Fit Center  326 is at  -3.357283  3.975010  1.179099
      ESP Fit Center  327 is at  -3.357283  2.882068  1.179099
      ESP Fit Center  328 is at  -2.654753  2.044825  1.179099
      ESP Fit Center  329 is at  -3.357283  2.882068  0.140801
      ESP Fit Center  330 is at  -2.654753  2.044825  0.140801
      ESP Fit Center  331 is at  -2.654753  2.848113 -0.699199
      ESP Fit Center  332 is at  -2.285610  1.962965 -0.924567
      ESP Fit Center  333 is at  -1.583080  1.125722 -0.924567
      ESP Fit Center  334 is at  -1.583080  1.929010 -1.764567
      ESP Fit Center  335 is at  -0.479045  1.570287 -1.764567
      ESP Fit Center  336 is at  -0.784193  2.509436 -2.085418
      ESP Fit Center  337 is at   1.031814  4.818010  2.063680
      ESP Fit Center  338 is at   0.500307  5.738608  2.063680
      ESP Fit Center  339 is at  -0.562709  5.738608  2.063680
      ESP Fit Center  340 is at  -1.094216  4.818010  2.063680
      ESP Fit Center  341 is at   1.580209  5.853601  1.383856
      ESP Fit Center  342 is at   0.764521  6.560398  1.383856
      ESP Fit Center  343 is at  -0.303803  6.714000  1.383856
      ESP Fit Center  344 is at   2.357372  4.818010  0.401482
      ESP Fit Center  345 is at   2.120829  5.854373  0.401482
      ESP Fit Center  346 is at   1.458050  6.685472  0.401482
      ESP Fit Center  347 is at   0.500307  7.146697  0.401482
      ESP Fit Center  348 is at   2.357372  4.818010 -0.688870
      ESP Fit Center  349 is at   2.120829  5.854373 -0.688870
      ESP Fit Center  350 is at   1.458050  6.685472 -0.688870
      ESP Fit Center  351 is at   0.500307  7.146697 -0.688870
      ESP Fit Center  352 is at   2.120829  3.781647 -0.688870
      ESP Fit Center  353 is at   1.884286  4.818010 -1.671244
      ESP Fit Center  354 is at   1.580209  5.853601 -1.671244
      ESP Fit Center  355 is at   0.764521  6.560398 -1.671244
      ESP Fit Center  356 is at   1.580209  3.782419 -1.671244
      ESP Fit Center  357 is at   1.031814  4.818010 -2.351068
      ESP Fit Center  358 is at   0.500307  3.897412 -2.351068
      ESP Fit Center  359 is at  -3.138865  3.948257 -1.404339
      ESP Fit Center  360 is at  -2.436335  3.111014 -1.404339
      ESP Fit Center  361 is at  -3.138865  3.948257 -2.442637
      ESP Fit Center  362 is at  -2.436335  3.111014 -2.442637
      ESP Fit Center  363 is at  -1.359997  2.921227 -2.442637
      ESP Fit Center  364 is at  -0.413481  3.467698 -2.442637
      ESP Fit Center  365 is at  -0.649969  4.494728 -3.282637
      ESP Fit Center  366 is at  -2.436335  5.075154 -3.282637
      ESP Fit Center  367 is at  -2.436335  3.914302 -3.282637
      ESP Fit Center  368 is at  -1.332300  3.555579 -3.282637
      ESP Fit Center  369 is at  -1.637448  4.494728 -3.603488
      ESP Fit Center  370 is at   0.407221  7.075033 -1.500923
      ESP Fit Center  371 is at   0.781029  6.048003 -2.539221
      ESP Fit Center  372 is at   0.407221  7.075033 -2.539221
      ESP Fit Center  373 is at   0.170733  6.048003 -3.379221
      ESP Fit Center  374 is at  -0.511598  6.987152 -3.379221
      ESP Fit Center  375 is at  -1.615633  6.628429 -3.379221
      ESP Fit Center  376 is at  -0.511598  5.108854 -3.379221
      ESP Fit Center  377 is at  -0.816746  6.048003 -3.700072
      ESP Fit Center  378 is at  -4.849602  6.664440 -0.944731
      ESP Fit Center  379 is at  -4.849602  5.571498 -0.944731
      ESP Fit Center  380 is at  -4.849602  5.571498 -1.983029
      ESP Fit Center  381 is at  -4.147072  4.734255 -1.983029
      ESP Fit Center  382 is at  -4.147072  5.537543 -2.823029
      ESP Fit Center  383 is at  -3.043037  5.178820 -2.823029
      ESP Fit Center  384 is at  -3.348185  6.117969 -3.143880
      ESP Fit Center  385 is at  -2.954267  5.434038  1.786392
      ESP Fit Center  386 is at  -1.966788  5.434038  1.465541
      ESP Fit Center  387 is at  -3.753154  6.014464  1.465541
      ESP Fit Center  388 is at  -3.753154  4.853612  1.465541
      ESP Fit Center  389 is at  -4.455684  5.980509  0.625541
      ESP Fit Center  390 is at  -4.455684  4.887567  0.625541
      ESP Fit Center  391 is at  -3.753154  4.050324  0.625541
      ESP Fit Center  392 is at  -4.455684  4.887567 -0.412757
      ESP Fit Center  393 is at  -3.753154  4.050324 -0.412757
      ESP Fit Center  394 is at  -2.256075  7.699865  2.462399
      ESP Fit Center  395 is at  -1.193060  7.699865  2.219773
      ESP Fit Center  396 is at  -1.724567  8.620463  2.219773
      ESP Fit Center  397 is at  -2.787583  8.620463  2.219773
      ESP Fit Center  398 is at  -3.319090  7.699865  2.219773
      ESP Fit Center  399 is at  -2.787583  6.779267  2.219773
      ESP Fit Center  400 is at  -1.724567  6.779267  2.219773
      ESP Fit Center  401 is at  -0.340588  7.699865  1.539949
      ESP Fit Center  402 is at  -0.644665  8.735456  1.539949
      ESP Fit Center  403 is at  -1.460353  9.442253  1.539949
      ESP Fit Center  404 is at  -2.528677  9.595855  1.539949
      ESP Fit Center  405 is at  -3.510452  9.147494  1.539949
      ESP Fit Center  406 is at  -4.093971  8.239520  1.539949
      ESP Fit Center  407 is at  -4.093971  7.160210  1.539949
      ESP Fit Center  408 is at  -3.510452  6.252236  1.539949
      ESP Fit Center  409 is at  -1.460353  5.957477  1.539949
      ESP Fit Center  410 is at  -0.644665  6.664274  1.539949
      ESP Fit Center  411 is at   0.132498  7.699865  0.557575
      ESP Fit Center  412 is at  -0.104045  8.736228  0.557575
      ESP Fit Center  413 is at  -0.766824  9.567327  0.557575
      ESP Fit Center  414 is at  -1.724567 10.028552  0.557575
      ESP Fit Center  415 is at  -2.787583 10.028552  0.557575
      ESP Fit Center  416 is at  -3.745326  9.567327  0.557575
      ESP Fit Center  417 is at  -4.408105  8.736228  0.557575
      ESP Fit Center  418 is at  -4.644648  7.699865  0.557575
      ESP Fit Center  419 is at  -4.408105  6.663502  0.557575
      ESP Fit Center  420 is at   0.132498  7.699865 -0.532777
      ESP Fit Center  421 is at  -0.104045  8.736228 -0.532777
      ESP Fit Center  422 is at  -4.644648  7.699865 -0.532777
      ESP Fit Center  423 is at  -1.726830  9.661761 -3.316205
      ESP Fit Center  424 is at  -0.813498  9.693923  0.192780
      ESP Fit Center  425 is at  -1.495829 10.633072  0.192780
      ESP Fit Center  426 is at  -2.599864 10.274349  0.192780
      ESP Fit Center  427 is at  -0.203202  9.693923 -0.647220
      ESP Fit Center  428 is at  -0.577010 10.720953 -0.647220
      ESP Fit Center  429 is at  -1.523526 11.267424 -0.647220
      ESP Fit Center  430 is at  -2.599864 11.077637 -0.647220
      ESP Fit Center  431 is at  -0.203202  9.693923 -1.685518
      ESP Fit Center  432 is at  -0.577010 10.720953 -1.685518
      ESP Fit Center  433 is at  -1.523526 11.267424 -1.685518
      ESP Fit Center  434 is at  -2.599864 11.077637 -1.685518
      ESP Fit Center  435 is at  -1.495829 10.633072 -2.525518
      ESP Fit Center  436 is at   0.032952  8.319649 -1.714729
      ESP Fit Center  437 is at   0.032952  8.319649 -2.753027
      ESP Fit Center  438 is at  -0.340856  9.346679 -2.753027
      ESP Fit Center  439 is at  -2.363710  6.935935 -2.753027
      ESP Fit Center  440 is at  -0.577344  8.319649 -3.593027
      ESP Fit Center  441 is at  -1.259675  9.258798 -3.593027
      ESP Fit Center  442 is at  -2.363710  7.739223 -3.593027
      ESP Fit Center  443 is at  -1.259675  7.380500 -3.593027
      ESP Fit Center  444 is at  -1.564823  8.319649 -3.913878
      ESP Fit Center  445 is at  -3.376048 11.091190 -2.109632
      ESP Fit Center  446 is at  -5.374160  9.518875 -3.159632
      ESP Fit Center  447 is at  -3.104175  8.097174 -3.928285
      ESP Fit Center  448 is at  -4.903133  7.496278 -1.082308
      ESP Fit Center  449 is at  -5.605663  7.530233 -1.922308
      ESP Fit Center  450 is at  -4.903133  6.692990 -1.922308
      ESP Fit Center  451 is at  -5.605663  8.623175 -2.960606
      ESP Fit Center  452 is at  -5.605663  7.530233 -2.960606
      ESP Fit Center  453 is at  -4.903133  6.692990 -2.960606
      ESP Fit Center  454 is at  -2.880279  7.049674 -2.960606
      ESP Fit Center  455 is at  -4.903133  8.657130 -3.800606
      ESP Fit Center  456 is at  -4.903133  7.496278 -3.800606
      ESP Fit Center  457 is at  -3.799098  7.137555 -3.800606
      ESP Fit Center  458 is at  -4.104246  8.076704 -4.121457
      ESP Fit Center  459 is at  -4.296499  9.483928  0.294518
      ESP Fit Center  460 is at  -3.991351 10.423077 -0.026333
      ESP Fit Center  461 is at  -5.095386 10.064354 -0.026333
      ESP Fit Center  462 is at  -5.095386  8.903502 -0.026333
      ESP Fit Center  463 is at  -4.019048 11.057429 -0.866333
      ESP Fit Center  464 is at  -5.095386 10.867642 -0.866333
      ESP Fit Center  465 is at  -5.797916 10.030399 -0.866333
      ESP Fit Center  466 is at  -5.797916  8.937457 -0.866333
      ESP Fit Center  467 is at  -5.095386  8.100214 -0.866333
      ESP Fit Center  468 is at  -5.095386 10.867642 -1.904631
      ESP Fit Center  469 is at  -5.797916 10.030399 -1.904631
      ESP Fit Center  470 is at  -5.797916  8.937457 -1.904631
      ESP Fit Center  471 is at  -2.317762 10.690121 -2.465666
      ESP Fit Center  472 is at  -3.264278 11.236592 -2.465666
      ESP Fit Center  473 is at  -4.340616 11.046805 -2.465666
      ESP Fit Center  474 is at  -1.943954  9.663091 -3.503964
      ESP Fit Center  475 is at  -2.317762 10.690121 -3.503964
      ESP Fit Center  476 is at  -3.264278 11.236592 -3.503964
      ESP Fit Center  477 is at  -4.340616 11.046805 -3.503964
      ESP Fit Center  478 is at  -5.043146 10.209562 -3.503964
      ESP Fit Center  479 is at  -2.554250  9.663091 -4.343964
      ESP Fit Center  480 is at  -3.236581 10.602240 -4.343964
      ESP Fit Center  481 is at  -4.340616 10.243517 -4.343964
      ESP Fit Center  482 is at  -4.340616  9.082665 -4.343964
      ESP Fit Center  483 is at  -3.236581  8.723942 -4.343964
      ESP Fit Center  484 is at  -3.541729  9.663091 -4.664815
      ESP Fit Center  485 is at   2.575686 -7.607375  2.346859
      ESP Fit Center  486 is at   4.950836 -4.734865  1.384533
      ESP Fit Center  487 is at   4.301583 -7.579428  0.316433
      ESP Fit Center  488 is at   3.622208 -7.456907 -0.645893
      ESP Fit Center  489 is at   2.322065 -6.651888 -1.311842
      ESP Fit Center  490 is at   1.768132 -7.485475  2.343300
      ESP Fit Center  491 is at   0.585363 -6.654091  1.640531
      ESP Fit Center  492 is at   0.902924 -7.631442  1.640531
      ESP Fit Center  493 is at   1.734308 -8.235478  1.640531
      ESP Fit Center  494 is at   2.761956 -8.235478  1.640531
      ESP Fit Center  495 is at   0.585363 -7.614091  0.680531
      ESP Fit Center  496 is at   1.288132 -8.316860  0.680531
      ESP Fit Center  497 is at   2.248132 -8.574091  0.680531
      ESP Fit Center  498 is at   3.208132 -8.316860  0.680531
      ESP Fit Center  499 is at   1.734308 -8.235478 -0.279469
      ESP Fit Center  500 is at   2.761956 -8.235478 -0.279469
      ESP Fit Center  501 is at   1.768132 -7.485475 -0.982238
      ESP Fit Center  502 is at   2.728132 -7.485475 -0.982238
      ESP Fit Center  503 is at   5.407050 -5.593763 -0.021101
      ESP Fit Center  504 is at   5.149819 -4.633763 -0.021101
      ESP Fit Center  505 is at   4.447050 -3.930994 -0.021101
      ESP Fit Center  506 is at   5.149819 -6.553763 -0.021101
      ESP Fit Center  507 is at   5.149819 -5.593763 -0.981101
      ESP Fit Center  508 is at   4.832258 -4.616412 -0.981101
      ESP Fit Center  509 is at   4.000874 -4.012376 -0.981101
      ESP Fit Center  510 is at   4.000874 -7.175150 -0.981101
      ESP Fit Center  511 is at   4.832258 -6.571114 -0.981101
      ESP Fit Center  512 is at   4.447050 -5.593763 -1.683870
      ESP Fit Center  513 is at   3.967050 -4.762379 -1.683870
      ESP Fit Center  514 is at   3.007050 -4.762379 -1.683870
      ESP Fit Center  515 is at   2.527050 -5.593763 -1.683870
      ESP Fit Center  516 is at   3.007050 -6.425147 -1.683870
      ESP Fit Center  517 is at   3.967050 -6.425147 -1.683870
      ESP Fit Center  518 is at   3.487050 -5.593763 -1.941101
      ESP Fit Center  519 is at   3.480713 -5.932220  3.643144
      ESP Fit Center  520 is at   4.440713 -5.932220  3.385913
      ESP Fit Center  521 is at   3.960713 -5.100836  3.385913
      ESP Fit Center  522 is at   3.000713 -5.100836  3.385913
      ESP Fit Center  523 is at   2.520713 -5.932220  3.385913
      ESP Fit Center  524 is at   3.000713 -6.763604  3.385913
      ESP Fit Center  525 is at   3.960713 -6.763604  3.385913
      ESP Fit Center  526 is at   5.143482 -5.932220  2.683144
      ESP Fit Center  527 is at   4.825921 -4.954869  2.683144
      ESP Fit Center  528 is at   3.994537 -4.350833  2.683144
      ESP Fit Center  529 is at   2.966889 -7.513607  2.683144
      ESP Fit Center  530 is at   3.994537 -7.513607  2.683144
      ESP Fit Center  531 is at   4.825921 -6.909571  2.683144
      ESP Fit Center  532 is at   5.400713 -5.932220  1.723144
      ESP Fit Center  533 is at   5.143482 -4.972220  1.723144
      ESP Fit Center  534 is at   4.440713 -7.594989  1.723144
      ESP Fit Center  535 is at   5.143482 -6.892220  1.723144
      ESP Fit Center  536 is at   3.006832 -4.522682  3.252696
      ESP Fit Center  537 is at   2.486171 -3.620872  3.252696
      ESP Fit Center  538 is at   3.544035 -3.508226 -0.406005
      ESP Fit Center  539 is at   1.310662 -4.680347  3.882648
      ESP Fit Center  540 is at   2.270662 -4.680347  3.625417
      ESP Fit Center  541 is at   1.790662 -3.848963  3.625417
      ESP Fit Center  542 is at   0.830662 -3.848963  3.625417
      ESP Fit Center  543 is at   0.350662 -4.680347  3.625417
      ESP Fit Center  544 is at   0.830662 -5.511731  3.625417
      ESP Fit Center  545 is at   1.790662 -5.511731  3.625417
      ESP Fit Center  546 is at   0.796838 -3.098960  2.922648
      ESP Fit Center  547 is at  -0.034546 -3.702996  2.922648
      ESP Fit Center  548 is at  -0.352107 -4.680347  2.922648
      ESP Fit Center  549 is at  -0.034546 -5.657698  2.922648
      ESP Fit Center  550 is at   0.796838 -6.261734  2.922648
      ESP Fit Center  551 is at   0.350662 -6.343116  1.962648
      ESP Fit Center  552 is at   3.553622 -3.651033  2.965826
      ESP Fit Center  553 is at   3.073622 -2.819649  2.965826
      ESP Fit Center  554 is at   2.113622 -2.819649  2.965826
      ESP Fit Center  555 is at   4.256391 -3.651033  2.263057
      ESP Fit Center  556 is at   3.938830 -2.673682  2.263057
      ESP Fit Center  557 is at   3.107446 -2.069646  2.263057
      ESP Fit Center  558 is at   2.079798 -2.069646  2.263057
      ESP Fit Center  559 is at   4.513622 -3.651033  1.303057
      ESP Fit Center  560 is at   4.256391 -2.691033  1.303057
      ESP Fit Center  561 is at   3.553622 -1.988264  1.303057
      ESP Fit Center  562 is at   4.256391 -3.651033  0.343057
      ESP Fit Center  563 is at   3.938830 -2.673682  0.343057
      ESP Fit Center  564 is at   3.107446 -2.069646  0.343057
      ESP Fit Center  565 is at   3.073622 -2.819649 -0.359712
      ESP Fit Center  566 is at   3.117231 -3.138063 -0.540108
      ESP Fit Center  567 is at   2.424100 -2.355679 -0.540108
      ESP Fit Center  568 is at   2.934841 -4.152943 -1.438278
      ESP Fit Center  569 is at   2.600372 -3.123553 -1.438278
      ESP Fit Center  570 is at   2.155438 -4.152943 -2.059831
      ESP Fit Center  571 is at  -0.223134 -6.824107  1.230939
      ESP Fit Center  572 is at  -1.414953 -6.796160  0.268613
      ESP Fit Center  573 is at  -0.592302 -4.993512  2.554257
      ESP Fit Center  574 is at  -1.072302 -4.162128  2.297026
      ESP Fit Center  575 is at  -1.552302 -4.993512  2.297026
      ESP Fit Center  576 is at  -1.072302 -5.824896  2.297026
      ESP Fit Center  577 is at  -1.106126 -3.412125  1.594257
      ESP Fit Center  578 is at  -1.937510 -4.016161  1.594257
      ESP Fit Center  579 is at  -2.255071 -4.993512  1.594257
      ESP Fit Center  580 is at  -1.937510 -5.970863  1.594257
      ESP Fit Center  581 is at  -1.106126 -6.574899  1.594257
      ESP Fit Center  582 is at  -0.078478 -6.574899  1.594257
      ESP Fit Center  583 is at  -2.512302 -4.993512  0.634257
      ESP Fit Center  584 is at  -2.255071 -5.953512  0.634257
      ESP Fit Center  585 is at  -1.552302 -6.656281  0.634257
      ESP Fit Center  586 is at  -0.180548 -7.584496  0.453724
      ESP Fit Center  587 is at  -1.329493 -6.963109 -0.506276
      ESP Fit Center  588 is at  -0.626724 -7.665878 -0.506276
      ESP Fit Center  589 is at   0.333276 -7.923109 -0.506276
      ESP Fit Center  590 is at   1.996045 -6.003109 -1.466276
      ESP Fit Center  591 is at  -1.011932 -6.980460 -1.466276
      ESP Fit Center  592 is at  -0.180548 -7.584496 -1.466276
      ESP Fit Center  593 is at   0.847100 -7.584496 -1.466276
      ESP Fit Center  594 is at   1.678484 -6.980460 -1.466276
      ESP Fit Center  595 is at   1.293276 -6.003109 -2.169045
      ESP Fit Center  596 is at  -0.146724 -6.834493 -2.169045
      ESP Fit Center  597 is at   0.813276 -6.834493 -2.169045
      ESP Fit Center  598 is at  -2.554738 -4.934386  0.061739
      ESP Fit Center  599 is at  -1.275010 -3.503934 -3.596962
      ESP Fit Center  600 is at  -1.795671 -4.405744 -3.596962
      ESP Fit Center  601 is at  -1.275010 -5.307554 -3.596962
      ESP Fit Center  602 is at   1.826568 -4.301937 -2.308343
      ESP Fit Center  603 is at   1.569337 -5.261937 -2.308343
      ESP Fit Center  604 is at   1.569337 -4.301937 -3.268343
      ESP Fit Center  605 is at   1.251776 -3.324586 -3.268343
      ESP Fit Center  606 is at   0.420392 -5.883324 -3.268343
      ESP Fit Center  607 is at   1.251776 -5.279288 -3.268343
      ESP Fit Center  608 is at   0.866568 -4.301937 -3.971112
      ESP Fit Center  609 is at   0.386568 -3.470553 -3.971112
      ESP Fit Center  610 is at  -0.573432 -3.470553 -3.971112
      ESP Fit Center  611 is at  -1.053432 -4.301937 -3.971112
      ESP Fit Center  612 is at  -0.573432 -5.133321 -3.971112
      ESP Fit Center  613 is at   0.386568 -5.133321 -3.971112
      ESP Fit Center  614 is at  -0.093432 -4.301937 -4.228343
      ESP Fit Center  615 is at  -3.202111 -5.127721 -0.730061
      ESP Fit Center  616 is at  -2.884550 -6.105072 -0.730061
      ESP Fit Center  617 is at  -2.053166 -6.709108 -0.730061
      ESP Fit Center  618 is at  -3.459342 -5.127721 -1.690061
      ESP Fit Center  619 is at  -3.202111 -6.087721 -1.690061
      ESP Fit Center  620 is at  -2.499342 -6.790490 -1.690061
      ESP Fit Center  621 is at  -1.539342 -7.047721 -1.690061
      ESP Fit Center  622 is at  -2.884550 -4.150370 -2.650061
      ESP Fit Center  623 is at  -3.202111 -5.127721 -2.650061
      ESP Fit Center  624 is at  -2.884550 -6.105072 -2.650061
      ESP Fit Center  625 is at  -2.053166 -6.709108 -2.650061
      ESP Fit Center  626 is at  -1.025518 -6.709108 -2.650061
      ESP Fit Center  627 is at  -2.499342 -5.127721 -3.352830
      ESP Fit Center  628 is at  -2.019342 -5.959105 -3.352830
      ESP Fit Center  629 is at  -1.059342 -5.959105 -3.352830
      ESP Fit Center  630 is at  -1.539342 -5.127721 -3.610061
      ESP Fit Center  631 is at  -2.392630 -3.188521  0.863808
      ESP Fit Center  632 is at  -3.172033 -3.188521  0.242255
      ESP Fit Center  633 is at  -2.837564 -4.217911  0.242255
      ESP Fit Center  634 is at  -3.541110 -2.665894 -0.655915
      ESP Fit Center  635 is at  -3.541110 -3.711148 -0.655915
      ESP Fit Center  636 is at  -3.055357 -1.740368 -1.652809
      ESP Fit Center  637 is at  -3.541110 -2.665894 -1.652809
      ESP Fit Center  638 is at  -3.541110 -3.711148 -1.652809
      ESP Fit Center  639 is at  -2.837564 -2.159131 -2.550979
      ESP Fit Center  640 is at  -3.172033 -3.188521 -2.550979
      ESP Fit Center  641 is at  -2.392630 -3.188521 -3.172532
      ESP Fit Center  642 is at  -1.420730 -3.188521 -3.394362
      ESP Fit Center  643 is at  -1.177168 -2.893654 -3.441571
      ESP Fit Center  644 is at  -1.158176  0.588725 -1.999545
      ESP Fit Center  645 is at  -2.118176  0.331494 -1.999545
      ESP Fit Center  646 is at  -2.820945 -0.371275 -1.999545
      ESP Fit Center  647 is at  -3.078176 -1.331275 -1.999545
      ESP Fit Center  648 is at   0.187032 -0.353924 -2.959545
      ESP Fit Center  649 is at  -0.644352  0.250112 -2.959545
      ESP Fit Center  650 is at  -1.672000  0.250112 -2.959545
      ESP Fit Center  651 is at  -2.503384 -0.353924 -2.959545
      ESP Fit Center  652 is at  -2.820945 -1.331275 -2.959545
      ESP Fit Center  653 is at  -2.503384 -2.308626 -2.959545
      ESP Fit Center  654 is at  -0.198176 -1.331275 -3.662314
      ESP Fit Center  655 is at  -0.678176 -0.499891 -3.662314
      ESP Fit Center  656 is at  -1.638176 -0.499891 -3.662314
      ESP Fit Center  657 is at  -2.118176 -1.331275 -3.662314
      ESP Fit Center  658 is at  -1.638176 -2.162659 -3.662314
      ESP Fit Center  659 is at  -1.158176 -1.331275 -3.919545
      ESP Fit Center  660 is at   2.012909 -2.208494 -2.612746
      ESP Fit Center  661 is at   0.863964 -0.627107 -2.612746
      ESP Fit Center  662 is at   1.695348 -3.185845 -2.612746
      ESP Fit Center  663 is at   1.310140 -2.208494 -3.315515
      ESP Fit Center  664 is at   0.830140 -1.377110 -3.315515
      ESP Fit Center  665 is at   0.350140 -2.208494 -3.572746
      ESP Fit Center  666 is at  -0.071543 -0.389451  2.243203
      ESP Fit Center  667 is at  -1.112863 -0.389451  2.243203
      ESP Fit Center  668 is at  -1.820981 -2.709346  1.577254
      ESP Fit Center  669 is at  -0.053532 -1.926809  2.716518
      ESP Fit Center  670 is at   0.906468 -1.926809  2.459287
      ESP Fit Center  671 is at   0.426468 -1.095425  2.459287
      ESP Fit Center  672 is at  -1.013532 -1.926809  2.459287
      ESP Fit Center  673 is at  -0.533532 -2.758193  2.459287
      ESP Fit Center  674 is at   0.426468 -2.758193  2.459287
      ESP Fit Center  675 is at  -1.398740 -2.904160  1.756518
      ESP Fit Center  676 is at  -1.611668 -1.141404  2.370607
      ESP Fit Center  677 is at  -2.091668 -0.310020  2.113376
      ESP Fit Center  678 is at  -2.571668 -1.141404  2.113376
      ESP Fit Center  679 is at  -2.091668 -1.972788  2.113376
      ESP Fit Center  680 is at  -2.125492  0.439983  1.410607
      ESP Fit Center  681 is at  -2.956876 -0.164053  1.410607
      ESP Fit Center  682 is at  -3.274437 -1.141404  1.410607
      ESP Fit Center  683 is at  -2.956876 -2.118755  1.410607
      ESP Fit Center  684 is at  -2.125492 -2.722791  1.410607
      ESP Fit Center  685 is at  -2.571668  0.521365  0.450607
      ESP Fit Center  686 is at  -3.274437 -0.181404  0.450607
      ESP Fit Center  687 is at  -3.531668 -1.141404  0.450607
      ESP Fit Center  688 is at  -3.274437 -2.101404  0.450607
      ESP Fit Center  689 is at  -2.956876 -0.164053 -0.509393
      ESP Fit Center  690 is at  -3.274437 -1.141404 -0.509393
      ESP Fit Center  691 is at  -2.120380  0.522627 -0.498447
      ESP Fit Center  692 is at  -0.485950  0.841690 -2.018170
      ESP Fit Center  693 is at   3.732179 -0.508628 -0.896884
      ESP Fit Center  694 is at   2.772179 -2.171397 -0.896884
      ESP Fit Center  695 is at   3.474948 -1.468628 -0.896884
      ESP Fit Center  696 is at   3.474948 -0.508628 -1.856884
      ESP Fit Center  697 is at   3.157387  0.468723 -1.856884
      ESP Fit Center  698 is at   2.326003 -2.090015 -1.856884
      ESP Fit Center  699 is at   3.157387 -1.485979 -1.856884
      ESP Fit Center  700 is at   2.772179 -0.508628 -2.559653
      ESP Fit Center  701 is at   2.292179  0.322756 -2.559653
      ESP Fit Center  702 is at   1.332179  0.322756 -2.559653
      ESP Fit Center  703 is at   0.852179 -0.508628 -2.559653
      ESP Fit Center  704 is at   2.292179 -1.340012 -2.559653
      ESP Fit Center  705 is at   1.812179 -0.508628 -2.816884
      ESP Fit Center  706 is at   1.801583 -0.537694  2.802045
      ESP Fit Center  707 is at   2.761583 -0.537694  2.544814
      ESP Fit Center  708 is at   0.841583 -0.537694  2.544814
      ESP Fit Center  709 is at   1.321583 -1.369078  2.544814
      ESP Fit Center  710 is at   2.281583 -1.369078  2.544814
      ESP Fit Center  711 is at   3.464352 -0.537694  1.842045
      ESP Fit Center  712 is at   3.146791 -1.515045  1.842045
      ESP Fit Center  713 is at   3.721583 -0.537694  0.882045
      ESP Fit Center  714 is at   3.464352 -1.497694  0.882045
      ESP Fit Center  715 is at   2.961857  1.437838 -2.162325
      ESP Fit Center  716 is at   2.450257  3.655869 -0.839655
      ESP Fit Center  717 is at   2.835465  2.970451 -1.799655
      ESP Fit Center  718 is at   2.004081  3.574487 -1.799655
      ESP Fit Center  719 is at   2.450257  1.993100 -2.502424
      ESP Fit Center  720 is at   1.970257  2.824484 -2.502424
      ESP Fit Center  721 is at   1.010257  2.824484 -2.502424
      ESP Fit Center  722 is at   0.530257  1.993100 -2.502424
      ESP Fit Center  723 is at   1.010257  1.161716 -2.502424
      ESP Fit Center  724 is at   1.970257  1.161716 -2.502424
      ESP Fit Center  725 is at   1.490257  1.993100 -2.759655
      ESP Fit Center  726 is at   4.669904  1.433329  0.818704
      ESP Fit Center  727 is at   4.352343  0.455978  0.818704
      ESP Fit Center  728 is at   4.927135  1.433329 -0.141296
      ESP Fit Center  729 is at   4.669904  2.393329 -0.141296
      ESP Fit Center  730 is at   3.967135  3.096098 -0.141296
      ESP Fit Center  731 is at   3.967135 -0.229440 -0.141296
      ESP Fit Center  732 is at   4.669904  0.473329 -0.141296
      ESP Fit Center  733 is at   4.669904  1.433329 -1.101296
      ESP Fit Center  734 is at   4.352343  2.410680 -1.101296
      ESP Fit Center  735 is at   3.520959  3.014716 -1.101296
      ESP Fit Center  736 is at   4.352343  0.455978 -1.101296
      ESP Fit Center  737 is at   3.967135  1.433329 -1.804065
      ESP Fit Center  738 is at   3.487135  2.264713 -1.804065
      ESP Fit Center  739 is at   3.487135  0.601945 -1.804065
      ESP Fit Center  740 is at   1.689290  2.386624  4.353417
      ESP Fit Center  741 is at   2.760804  2.386624  4.140280
      ESP Fit Center  742 is at   2.225047  3.314582  4.140280
      ESP Fit Center  743 is at   1.153533  3.314582  4.140280
      ESP Fit Center  744 is at   0.617776  2.386624  4.140280
      ESP Fit Center  745 is at   1.153533  1.458666  4.140280
      ESP Fit Center  746 is at   2.225047  1.458666  4.140280
      ESP Fit Center  747 is at   3.669189  2.386624  3.533316
      ESP Fit Center  748 is at   3.403933  3.376573  3.533316
      ESP Fit Center  749 is at   2.679239  4.101267  3.533316
      ESP Fit Center  750 is at   1.689290  4.366523  3.533316
      ESP Fit Center  751 is at   0.699341  0.671981  3.533316
      ESP Fit Center  752 is at   1.689290  0.406725  3.533316
      ESP Fit Center  753 is at   2.679239  0.671981  3.533316
      ESP Fit Center  754 is at   3.403933  1.396675  3.533316
      ESP Fit Center  755 is at   4.276153  2.386624  2.624931
      ESP Fit Center  756 is at   4.052507  3.438796  2.624931
      ESP Fit Center  757 is at   3.420239  4.309038  2.624931
      ESP Fit Center  758 is at   2.488675  4.846877  2.624931
      ESP Fit Center  759 is at   1.418889  4.959316  2.624931
      ESP Fit Center  760 is at   0.395859  0.146335  2.624931
      ESP Fit Center  761 is at   2.488675 -0.073629  2.624931
      ESP Fit Center  762 is at   3.420239  0.464210  2.624931
      ESP Fit Center  763 is at   4.052507  1.334452  2.624931
      ESP Fit Center  764 is at   4.489290  2.386624  1.553417
      ESP Fit Center  765 is at   4.300212  3.398101  1.553417
      ESP Fit Center  766 is at   3.758515  4.272972  1.553417
      ESP Fit Center  767 is at   2.937357  4.893081  1.553417
      ESP Fit Center  768 is at   3.758515  0.500276  1.553417
      ESP Fit Center  769 is at   4.300212  1.375147  1.553417
      ESP Fit Center  770 is at   4.052507  3.438796  0.481903
      ESP Fit Center  771 is at   3.420239  4.309038  0.481903
      ESP Fit Center  772 is at   3.403933  3.376573 -0.426482
      ESP Fit Center  773 is at   2.679239  4.101267 -0.426482
      ESP Fit Center  774 is at  -0.618561  1.711117  3.813276
      ESP Fit Center  775 is at  -1.578561  1.711117  3.556045
      ESP Fit Center  776 is at  -1.098561  0.879733  3.556045
      ESP Fit Center  777 is at  -0.138561  0.879733  3.556045
      ESP Fit Center  778 is at  -2.281330  1.711117  2.853276
      ESP Fit Center  779 is at  -1.963769  0.733766  2.853276
      ESP Fit Center  780 is at  -1.132385  0.129730  2.853276
      ESP Fit Center  781 is at  -0.104737  0.129730  2.853276
      ESP Fit Center  782 is at  -2.538561  1.711117  1.893276
      ESP Fit Center  783 is at  -2.281330  0.751117  1.893276
      ESP Fit Center  784 is at  -1.963769  0.733766  0.933276
      ESP Fit Center  785 is at  -0.240521  3.338274  4.417903
      ESP Fit Center  786 is at   0.719479  3.338274  4.160672
      ESP Fit Center  787 is at   0.239479  4.169658  4.160672
      ESP Fit Center  788 is at  -0.720521  4.169658  4.160672
      ESP Fit Center  789 is at  -1.200521  3.338274  4.160672
      ESP Fit Center  790 is at  -0.720521  2.506890  4.160672
      ESP Fit Center  791 is at   0.239479  2.506890  4.160672
      ESP Fit Center  792 is at   0.273303  4.919661  3.457903
      ESP Fit Center  793 is at  -0.754345  4.919661  3.457903
      ESP Fit Center  794 is at  -1.585729  4.315625  3.457903
      ESP Fit Center  795 is at  -1.903290  3.338274  3.457903
      ESP Fit Center  796 is at  -1.200521  5.001043  2.497903
      ESP Fit Center  797 is at  -1.903290  4.298274  2.497903
      ESP Fit Center  798 is at  -2.263693  1.410936  0.942670
      ESP Fit Center  799 is at  -2.605223  2.711644 -1.087756
      ESP Fit Center  800 is at  -2.335866  4.259923  2.322719
      ESP Fit Center  801 is at  -2.815866  3.428539  2.322719
      ESP Fit Center  802 is at  -3.518635  3.428539  1.619950
      ESP Fit Center  803 is at  -3.201074  2.451188  1.619950
      ESP Fit Center  804 is at  -3.775866  3.428539  0.659950
      ESP Fit Center  805 is at  -3.518635  2.468539  0.659950
      ESP Fit Center  806 is at  -2.815866  1.765770  0.659950
      ESP Fit Center  807 is at  -3.518635  3.428539 -0.300050
      ESP Fit Center  808 is at  -3.201074  2.451188 -0.300050
      ESP Fit Center  809 is at  -2.446962  1.549436 -0.405418
      ESP Fit Center  810 is at  -2.446962  2.509436 -1.365418
      ESP Fit Center  811 is at  -2.129401  1.532085 -1.365418
      ESP Fit Center  812 is at  -1.744193  2.509436 -2.068187
      ESP Fit Center  813 is at  -1.264193  1.678052 -2.068187
      ESP Fit Center  814 is at  -0.304193  1.678052 -2.068187
      ESP Fit Center  815 is at  -0.784193  2.509436 -2.325418
      ESP Fit Center  816 is at   0.504556  5.745968  2.443169
      ESP Fit Center  817 is at  -0.566958  5.745968  2.443169
      ESP Fit Center  818 is at   1.683442  5.807959  1.836205
      ESP Fit Center  819 is at   0.958748  6.532653  1.836205
      ESP Fit Center  820 is at  -0.031201  6.797909  1.836205
      ESP Fit Center  821 is at   2.332016  5.870182  0.927820
      ESP Fit Center  822 is at   1.699748  6.740424  0.927820
      ESP Fit Center  823 is at   0.768184  7.278263  0.927820
      ESP Fit Center  824 is at   2.768799  4.818010 -0.143694
      ESP Fit Center  825 is at   2.579721  5.829487 -0.143694
      ESP Fit Center  826 is at   2.038024  6.704358 -0.143694
      ESP Fit Center  827 is at   1.216866  7.324467 -0.143694
      ESP Fit Center  828 is at   2.555662  4.818010 -1.215208
      ESP Fit Center  829 is at   2.332016  5.870182 -1.215208
      ESP Fit Center  830 is at   1.699748  6.740424 -1.215208
      ESP Fit Center  831 is at   0.768184  7.278263 -1.215208
      ESP Fit Center  832 is at   2.332016  3.765838 -1.215208
      ESP Fit Center  833 is at   1.948698  4.818010 -2.123593
      ESP Fit Center  834 is at   1.683442  5.807959 -2.123593
      ESP Fit Center  835 is at   1.683442  3.828061 -2.123593
      ESP Fit Center  836 is at   1.040313  4.818010 -2.730557
      ESP Fit Center  837 is at   0.504556  3.890052 -2.730557
      ESP Fit Center  838 is at  -2.363394  5.363729 -3.493547
      ESP Fit Center  839 is at  -2.982656  3.517377 -0.963488
      ESP Fit Center  840 is at  -3.300217  3.534728 -1.923488
      ESP Fit Center  841 is at  -2.597448  2.831959 -1.923488
      ESP Fit Center  842 is at  -3.300217  4.494728 -2.883488
      ESP Fit Center  843 is at  -2.982656  3.517377 -2.883488
      ESP Fit Center  844 is at  -2.151272  2.913341 -2.883488
      ESP Fit Center  845 is at  -1.123624  2.913341 -2.883488
      ESP Fit Center  846 is at  -0.292240  3.517377 -2.883488
      ESP Fit Center  847 is at  -0.677448  4.494728 -3.586257
      ESP Fit Center  848 is at  -2.597448  4.494728 -3.586257
      ESP Fit Center  849 is at  -2.117448  3.663344 -3.586257
      ESP Fit Center  850 is at  -1.157448  3.663344 -3.586257
      ESP Fit Center  851 is at  -1.637448  4.494728 -3.843488
      ESP Fit Center  852 is at   0.846023  7.008003 -2.020072
      ESP Fit Center  853 is at   0.846023  6.048003 -2.980072
      ESP Fit Center  854 is at   0.528462  7.025354 -2.980072
      ESP Fit Center  855 is at   0.528462  5.070652 -2.980072
      ESP Fit Center  856 is at   0.143254  6.048003 -3.682841
      ESP Fit Center  857 is at  -0.336746  6.879387 -3.682841
      ESP Fit Center  858 is at  -1.296746  6.879387 -3.682841
      ESP Fit Center  859 is at  -1.776746  6.048003 -3.682841
      ESP Fit Center  860 is at  -0.336746  5.216619 -3.682841
      ESP Fit Center  861 is at  -0.816746  6.048003 -3.940072
      ESP Fit Center  862 is at  -4.892549  6.038861 -0.178596
      ESP Fit Center  863 is at  -4.011580  4.209511 -1.246696
      ESP Fit Center  864 is at  -5.010954  6.117969 -0.503880
      ESP Fit Center  865 is at  -5.268185  6.117969 -1.463880
      ESP Fit Center  866 is at  -5.010954  5.157969 -1.463880
      ESP Fit Center  867 is at  -4.308185  4.455200 -1.463880
      ESP Fit Center  868 is at  -5.010954  6.117969 -2.423880
      ESP Fit Center  869 is at  -4.693393  5.140618 -2.423880
      ESP Fit Center  870 is at  -3.862009  4.536582 -2.423880
      ESP Fit Center  871 is at  -4.308185  6.117969 -3.126649
      ESP Fit Center  872 is at  -3.828185  5.286585 -3.126649
      ESP Fit Center  873 is at  -3.348185  6.117969 -3.383880
      ESP Fit Center  874 is at  -2.954267  5.434038  2.026392
      ESP Fit Center  875 is at  -1.994267  5.434038  1.769161
      ESP Fit Center  876 is at  -3.914267  5.434038  1.769161
      ESP Fit Center  877 is at  -3.434267  4.602654  1.769161
      ESP Fit Center  878 is at  -4.617036  5.434038  1.066392
      ESP Fit Center  879 is at  -4.299475  4.456687  1.066392
      ESP Fit Center  880 is at  -4.874267  5.434038  0.106392
      ESP Fit Center  881 is at  -4.617036  4.474038  0.106392
      ESP Fit Center  882 is at  -3.914267  3.771269  0.106392
      ESP Fit Center  883 is at  -2.256075  7.699865  2.812399
      ESP Fit Center  884 is at  -1.184561  7.699865  2.599262
      ESP Fit Center  885 is at  -1.720318  8.627823  2.599262
      ESP Fit Center  886 is at  -2.791832  8.627823  2.599262
      ESP Fit Center  887 is at  -3.327589  7.699865  2.599262
      ESP Fit Center  888 is at  -2.791832  6.771907  2.599262
      ESP Fit Center  889 is at  -1.720318  6.771907  2.599262
      ESP Fit Center  890 is at  -0.276176  7.699865  1.992298
      ESP Fit Center  891 is at  -0.541432  8.689814  1.992298
      ESP Fit Center  892 is at  -1.266126  9.414508  1.992298
      ESP Fit Center  893 is at  -2.256075  9.679764  1.992298
      ESP Fit Center  894 is at  -3.246024  9.414508  1.992298
      ESP Fit Center  895 is at  -3.970718  8.689814  1.992298
      ESP Fit Center  896 is at  -4.235974  7.699865  1.992298
      ESP Fit Center  897 is at  -3.970718  6.709916  1.992298
      ESP Fit Center  898 is at  -3.246024  5.985222  1.992298
      ESP Fit Center  899 is at  -2.256075  5.719966  1.992298
      ESP Fit Center  900 is at  -0.541432  6.709916  1.992298
      ESP Fit Center  901 is at   0.330788  7.699865  1.083913
      ESP Fit Center  902 is at   0.107142  8.752037  1.083913
      ESP Fit Center  903 is at  -0.525126  9.622279  1.083913
      ESP Fit Center  904 is at  -1.456690 10.160118  1.083913
      ESP Fit Center  905 is at  -2.526476 10.272557  1.083913
      ESP Fit Center  906 is at  -3.549506  9.940154  1.083913
      ESP Fit Center  907 is at  -4.348891  9.220385  1.083913
      ESP Fit Center  908 is at  -4.786409  8.237704  1.083913
      ESP Fit Center  909 is at  -4.786409  7.162026  1.083913
      ESP Fit Center  910 is at   0.543925  7.699865  0.012399
      ESP Fit Center  911 is at   0.354847  8.711342  0.012399
      ESP Fit Center  912 is at  -0.186850  9.586213  0.012399
      ESP Fit Center  913 is at  -5.008400  8.214364  0.012399
      ESP Fit Center  914 is at  -5.008400  7.185366  0.012399
      ESP Fit Center  915 is at   0.330788  7.699865 -1.059115
      ESP Fit Center  916 is at  -1.472347 10.459263 -2.993928
      ESP Fit Center  917 is at  -1.731170  9.654244 -3.659877
      ESP Fit Center  918 is at  -1.320977 10.525307  0.496400
      ESP Fit Center  919 is at  -2.280977 10.525307  0.496400
      ESP Fit Center  920 is at  -0.138208  9.693923 -0.206369
      ESP Fit Center  921 is at  -0.455769 10.671274 -0.206369
      ESP Fit Center  922 is at  -1.287153 11.275310 -0.206369
      ESP Fit Center  923 is at  -2.314801 11.275310 -0.206369
      ESP Fit Center  924 is at  -3.146185 10.671274 -0.206369
      ESP Fit Center  925 is at   0.119023  9.693923 -1.166369
      ESP Fit Center  926 is at  -0.138208 10.653923 -1.166369
      ESP Fit Center  927 is at  -0.840977 11.356692 -1.166369
      ESP Fit Center  928 is at  -1.800977 11.613923 -1.166369
      ESP Fit Center  929 is at  -2.760977 11.356692 -1.166369
      ESP Fit Center  930 is at  -0.455769 10.671274 -2.126369
      ESP Fit Center  931 is at  -1.287153 11.275310 -2.126369
      ESP Fit Center  932 is at  -2.314801 11.275310 -2.126369
      ESP Fit Center  933 is at  -1.320977 10.525307 -2.829138
      ESP Fit Center  934 is at   0.355177  8.319649 -2.233878
      ESP Fit Center  935 is at   0.097946  9.279649 -2.233878
      ESP Fit Center  936 is at   0.097946  8.319649 -3.193878
      ESP Fit Center  937 is at  -0.219615  9.297000 -3.193878
      ESP Fit Center  938 is at  -0.604823  8.319649 -3.896647
      ESP Fit Center  939 is at  -1.084823  9.151033 -3.896647
      ESP Fit Center  940 is at  -2.044823  7.488265 -3.896647
      ESP Fit Center  941 is at  -1.084823  7.488265 -3.896647
      ESP Fit Center  942 is at  -1.564823  8.319649 -4.153878
      ESP Fit Center  943 is at  -3.108515 11.287664 -1.575582
      ESP Fit Center  944 is at  -5.088033 10.835851 -2.643682
      ESP Fit Center  945 is at  -5.737286 10.021714 -2.643682
      ESP Fit Center  946 is at  -5.969002  9.006501 -2.643682
      ESP Fit Center  947 is at  -5.429563  9.535143 -3.606008
      ESP Fit Center  948 is at  -3.108515  8.104691 -4.271957
      ESP Fit Center  949 is at  -5.767015  8.076704 -1.481457
      ESP Fit Center  950 is at  -5.449454  7.099353 -1.481457
      ESP Fit Center  951 is at  -6.024246  8.076704 -2.441457
      ESP Fit Center  952 is at  -5.767015  7.116704 -2.441457
      ESP Fit Center  953 is at  -5.064246  6.413935 -2.441457
      ESP Fit Center  954 is at  -5.767015  8.076704 -3.401457
      ESP Fit Center  955 is at  -5.449454  7.099353 -3.401457
      ESP Fit Center  956 is at  -4.618070  6.495317 -3.401457
      ESP Fit Center  957 is at  -3.590422  6.495317 -3.401457
      ESP Fit Center  958 is at  -2.759038  7.099353 -3.401457
      ESP Fit Center  959 is at  -5.064246  8.076704 -4.104226
      ESP Fit Center  960 is at  -4.584246  7.245320 -4.104226
      ESP Fit Center  961 is at  -3.624246  7.245320 -4.104226
      ESP Fit Center  962 is at  -4.104246  8.076704 -4.361457
      ESP Fit Center  963 is at  -3.816499 10.315312  0.277287
      ESP Fit Center  964 is at  -4.776499 10.315312  0.277287
      ESP Fit Center  965 is at  -5.256499  9.483928  0.277287
      ESP Fit Center  966 is at  -3.782675 11.065315 -0.425482
      ESP Fit Center  967 is at  -4.810323 11.065315 -0.425482
      ESP Fit Center  968 is at  -5.641707 10.461279 -0.425482
      ESP Fit Center  969 is at  -5.959268  9.483928 -0.425482
      ESP Fit Center  970 is at  -5.641707  8.506577 -0.425482
      ESP Fit Center  971 is at  -4.296499 11.403928 -1.385482
      ESP Fit Center  972 is at  -5.256499 11.146697 -1.385482
      ESP Fit Center  973 is at  -5.959268 10.443928 -1.385482
      ESP Fit Center  974 is at  -6.216499  9.483928 -1.385482
      ESP Fit Center  975 is at  -5.959268  8.523928 -1.385482
      ESP Fit Center  976 is at  -5.641707 10.461279 -2.345482
      ESP Fit Center  977 is at  -1.878960 10.623091 -2.984815
      ESP Fit Center  978 is at  -2.581729 11.325860 -2.984815
      ESP Fit Center  979 is at  -3.541729 11.583091 -2.984815
      ESP Fit Center  980 is at  -4.501729 11.325860 -2.984815
      ESP Fit Center  981 is at  -5.204498 10.623091 -2.984815
      ESP Fit Center  982 is at  -1.878960  9.663091 -3.944815
      ESP Fit Center  983 is at  -2.196521 10.640442 -3.944815
      ESP Fit Center  984 is at  -3.027905 11.244478 -3.944815
      ESP Fit Center  985 is at  -4.055553 11.244478 -3.944815
      ESP Fit Center  986 is at  -4.886937 10.640442 -3.944815
      ESP Fit Center  987 is at  -5.204498  9.663091 -3.944815
      ESP Fit Center  988 is at  -2.581729  9.663091 -4.647584
      ESP Fit Center  989 is at  -3.061729 10.494475 -4.647584
      ESP Fit Center  990 is at  -4.021729 10.494475 -4.647584
      ESP Fit Center  991 is at  -4.501729  9.663091 -4.647584
      ESP Fit Center  992 is at  -4.021729  8.831707 -4.647584
      ESP Fit Center  993 is at  -3.061729  8.831707 -4.647584
      ESP Fit Center  994 is at  -3.541729  9.663091 -4.904815
      ESP Fit Center  995 is at   1.592473 -7.192946  2.759671
      ESP Fit Center  996 is at   2.571019 -7.639834  2.759671
      ESP Fit Center  997 is at   3.397798 -8.182011  1.883728
      ESP Fit Center  998 is at   5.542725 -5.750078  0.850483
      ESP Fit Center  999 is at   5.337200 -4.716833  0.850483
      ESP Fit Center 1000 is at   4.751913 -3.840890  0.850483
      ESP Fit Center 1001 is at   3.875970 -8.244553  0.850483
      ESP Fit Center 1002 is at   4.751913 -7.659266  0.850483
      ESP Fit Center 1003 is at   5.337200 -6.783323  0.850483
      ESP Fit Center 1004 is at   4.398005 -7.700337 -0.182762
      ESP Fit Center 1005 is at   3.635830 -7.486737 -1.058705
      ESP Fit Center 1006 is at   2.326102 -6.644895 -1.643992
      ESP Fit Center 1007 is at   1.708132 -7.589398  2.551146
      ESP Fit Center 1008 is at   0.453290 -7.181104  1.760531
      ESP Fit Center 1009 is at   1.023140 -8.067807  1.760531
      ESP Fit Center 1010 is at   1.981916 -8.505666  1.760531
      ESP Fit Center 1011 is at   3.025214 -8.355662  1.760531
      ESP Fit Center 1012 is at   0.631349 -8.086436  0.680531
      ESP Fit Center 1013 is at   1.482185 -8.673726  0.680531
      ESP Fit Center 1014 is at   2.508491 -8.798342  0.680531
      ESP Fit Center 1015 is at   3.475152 -8.431736  0.680531
      ESP Fit Center 1016 is at   1.023140 -8.067807 -0.399469
      ESP Fit Center 1017 is at   1.981916 -8.505666 -0.399469
      ESP Fit Center 1018 is at   3.025214 -8.355662 -0.399469
      ESP Fit Center 1019 is at   1.708132 -7.589398 -1.190084
      ESP Fit Center 1020 is at   2.788132 -7.589398 -1.190084
      ESP Fit Center 1021 is at   5.647050 -5.593763 -0.021101
      ESP Fit Center 1022 is at   5.399635 -4.589961 -0.021101
      ESP Fit Center 1023 is at   4.714070 -3.816118 -0.021101
      ESP Fit Center 1024 is at   5.399635 -6.597565 -0.021101
      ESP Fit Center 1025 is at   5.357665 -5.593763 -1.101101
      ESP Fit Center 1026 is at   5.060711 -4.582432 -1.101101
      ESP Fit Center 1027 is at   4.264132 -3.892192 -1.101101
      ESP Fit Center 1028 is at   4.264132 -7.295334 -1.101101
      ESP Fit Center 1029 is at   5.060711 -6.605094 -1.101101
      ESP Fit Center 1030 is at   4.567050 -5.593763 -1.891716
      ESP Fit Center 1031 is at   4.027050 -4.658456 -1.891716
      ESP Fit Center 1032 is at   2.947050 -4.658456 -1.891716
      ESP Fit Center 1033 is at   2.407050 -5.593763 -1.891716
      ESP Fit Center 1034 is at   2.947050 -6.529070 -1.891716
      ESP Fit Center 1035 is at   4.027050 -6.529070 -1.891716
      ESP Fit Center 1036 is at   3.487050 -5.593763 -2.181101
      ESP Fit Center 1037 is at   3.480713 -5.932220  3.883144
      ESP Fit Center 1038 is at   4.560713 -5.932220  3.593759
      ESP Fit Center 1039 is at   4.020713 -4.996913  3.593759
      ESP Fit Center 1040 is at   2.940713 -4.996913  3.593759
      ESP Fit Center 1041 is at   2.400713 -5.932220  3.593759
      ESP Fit Center 1042 is at   2.940713 -6.867527  3.593759
      ESP Fit Center 1043 is at   4.020713 -6.867527  3.593759
      ESP Fit Center 1044 is at   5.351328 -5.932220  2.803144
      ESP Fit Center 1045 is at   5.054374 -4.920889  2.803144
      ESP Fit Center 1046 is at   4.257795 -4.230649  2.803144
      ESP Fit Center 1047 is at   3.214497 -7.783795  2.803144
[...]
 1267 Fit      -0.012911
 1268 Fit      -0.013993
 1269 Fit      -0.015209
 1270 Fit      -0.012673
 1271 Fit      -0.019079
 1272 Fit      -0.025644
 1273 Fit      -0.030887
 1274 Fit      -0.034535
 1275 Fit      -0.005158
 1276 Fit      -0.007958
 1277 Fit      -0.006061
 1278 Fit      -0.015940
 1279 Fit      -0.025633
 1280 Fit      -0.034208
 1281 Fit      -0.013286
 1282 Fit      -0.026190
 1283 Fit      -0.003453
 1284 Fit       0.001625
 1285 Fit       0.005155
 1286 Fit       0.000626
 1287 Fit      -0.001002
 1288 Fit      -0.007735
 1289 Fit       0.002991
 1290 Fit       0.001568
 1291 Fit      -0.001944
 1292 Fit      -0.009116
 1293 Fit       0.004061
 1294 Fit      -0.003374
 1295 Fit      -0.006546
 1296 Fit      -0.003303
 1297 Fit      -0.000598
 1298 Fit      -0.002173
 1299 Fit      -0.013818
 1300 Fit      -0.010924
 1301 Fit      -0.004691
 1302 Fit       0.000566
 1303 Fit       0.001909
 1304 Fit      -0.004369
 1305 Fit       0.001650
 1306 Fit       0.005996
 1307 Fit       0.001826
 1308 Fit       0.005625
 1309 Fit       0.008772
 1310 Fit       0.007614
 1311 Fit       0.006293
 1312 Fit       0.009128
 1313 Fit       0.006266
 1314 Fit       0.009709
 1315 Fit       0.005321
 1316 Fit      -0.002646
 1317 Fit       0.005217
 1318 Fit      -0.002260
 1319 Fit       0.001661
 1320 Fit      -0.000240
 1321 Fit       0.005195
 1322 Fit      -0.027161
 1323 Fit      -0.023783
 1324 Fit      -0.032684
 1325 Fit      -0.034022
 1326 Fit      -0.037542
 1327 Fit      -0.034010
 1328 Fit      -0.032396
 1329 Fit      -0.036173
 1330 Fit      -0.030836
 1331 Fit      -0.028158
 1332 Fit      -0.029100
 1333 Fit      -0.028579
 1334 Fit      -0.025965
 1335 Fit      -0.022422
 1336 Fit      -0.020288
 1337 Fit      -0.022893
 1338 Fit      -0.020308
 1339 Fit      -0.014749
 1340 Fit      -0.008157
 1341 Fit      -0.019032
 1342 Fit      -0.016951
 1343 Fit      -0.012343
 1344 Fit       0.000581
 1345 Fit      -0.014173
 1346 Fit      -0.008905
 1347 Fit      -0.005871
 1348 Fit      -0.003612
 1349 Fit       0.011191
 1350 Fit       0.008521
 1351 Fit       0.010788
 1352 Fit       0.008902
 1353 Fit       0.011865
 1354 Fit       0.010237
 1355 Fit       0.008468
 1356 Fit       0.005574
 1357 Fit      -0.000765
 1358 Fit       0.004296
 1359 Fit       0.010824
 1360 Fit       0.009257
 1361 Fit       0.006418
 1362 Fit       0.008225
 1363 Fit      -0.002541
 1364 Fit       0.002892
 1365 Fit       0.004588
 1366 Fit       0.009431
 1367 Fit       0.011462
 1368 Fit       0.004246
 1369 Fit       0.008550
 1370 Fit      -0.002352
 1371 Fit       0.006592
 1372 Fit       0.011280
 1373 Fit       0.004923
 1374 Fit       0.006945
 1375 Fit       0.008674
 1376 Fit       0.010584
 1377 Fit       0.011075
 1378 Fit       0.013401
 1379 Fit       0.012740
 1380 Fit       0.013571
 1381 Fit      -0.002911
 1382 Fit      -0.000316
 1383 Fit       0.006191
 1384 Fit      -0.003800
 1385 Fit       0.004176
 1386 Fit       0.009169
 1387 Fit       0.005237
 1388 Fit       0.008923
 1389 Fit      -0.021281
 1390 Fit      -0.025608
 1391 Fit      -0.022620
 1392 Fit      -0.021176
 1393 Fit      -0.019656
 1394 Fit      -0.016306
 1395 Fit      -0.021333
 1396 Fit      -0.032162
 1397 Fit      -0.026109
 1398 Fit      -0.020389
 1399 Fit      -0.018011
 1400 Fit      -0.019295
 1401 Fit      -0.021051
 1402 Fit      -0.019433
 1403 Fit      -0.013564
 1404 Fit      -0.007671
 1405 Fit      -0.010672
 1406 Fit      -0.034685
 1407 Fit      -0.037548
 1408 Fit      -0.028112
 1409 Fit      -0.019613
 1410 Fit      -0.013312
 1411 Fit      -0.011407
 1412 Fit      -0.013548
 1413 Fit      -0.017286
 1414 Fit      -0.019870
 1415 Fit      -0.018485
 1416 Fit      -0.012115
 1417 Fit      -0.025677
 1418 Fit      -0.015843
 1419 Fit      -0.003628
 1420 Fit      -0.007061
 1421 Fit      -0.015091
 1422 Fit      -0.014934
 1423 Fit      -0.009040
 1424 Fit      -0.017648
 1425 Fit      -0.006916
 1426 Fit       0.002392
 1427 Fit       0.006542
 1428 Fit      -0.004610
 1429 Fit      -0.002820
 1430 Fit       0.000965
 1431 Fit       0.001810
 1432 Fit       0.000705
 1433 Fit      -0.004751
 1434 Fit       0.000051
 1435 Fit       0.003045
 1436 Fit       0.004319
 1437 Fit       0.004182
 1438 Fit       0.003108
 1439 Fit       0.004944
 1440 Fit       0.005754
 1441 Fit      -0.000966
 1442 Fit      -0.000037
 1443 Fit       0.005245
 1444 Fit       0.004410
 1445 Fit       0.008141
 1446 Fit       0.007335
 1447 Fit       0.011228
 1448 Fit       0.011065
 1449 Fit       0.009132
 1450 Fit       0.003544
 1451 Fit      -0.002622
 1452 Fit       0.005353
 1453 Fit       0.002621
 1454 Fit       0.001462
 1455 Fit       0.000392
 1456 Fit       0.001188
 1457 Fit       0.001606
 1458 Fit       0.002646
 1459 Fit       0.010622
 1460 Fit       0.005734
 1461 Fit       0.006996
 1462 Fit      -0.000148
 1463 Fit       0.003642
 1464 Fit       0.007467
 1465 Fit       0.002864
 1466 Fit       0.005572
 1467 Fit       0.008984
 1468 Fit       0.012689
 1469 Fit       0.005073
 1470 Fit       0.008038
 1471 Fit       0.009160
 1472 Fit       0.005845
 1473 Fit      -0.004415
 1474 Fit      -0.007629
 1475 Fit       0.000703
 1476 Fit       0.000222
 1477 Fit       0.000213
 1478 Fit      -0.000840
 1479 Fit      -0.003598
 1480 Fit      -0.009081
 1481 Fit       0.001667
 1482 Fit       0.001403
 1483 Fit       0.001345
 1484 Fit       0.000725
 1485 Fit      -0.000457
 1486 Fit       0.005801
 1487 Fit       0.004304
 1488 Fit       0.002971
 1489 Fit       0.001835
 1490 Fit       0.007806
 1491 Fit       0.006747
 1492 Fit       0.006120
 1493 Fit       0.005222
 1494 Fit       0.004080
 1495 Fit       0.003044
 1496 Fit       0.007014
 1497 Fit       0.006634
 1498 Fit       0.005710
 1499 Fit       0.004743
 1500 Fit       0.005225
 1501 Fit       0.006629
 1502 Fit       0.006159
 1503 Fit       0.010020
 1504 Fit       0.008809
 1505 Fit       0.007166
 1506 Fit       0.008694
 1507 Fit       0.006492
 1508 Fit       0.006330
 1509 Fit       0.007587
 1510 Fit       0.006113
 1511 Fit       0.005560
 1512 Fit       0.005773
 1513 Fit       0.006706
 1514 Fit       0.005908
 1515 Fit       0.007257
 1516 Fit       0.012594
 1517 Fit       0.010773
 1518 Fit       0.009218
 1519 Fit       0.013637
 1520 Fit       0.011782
 1521 Fit       0.010057
 1522 Fit       0.008365
 1523 Fit       0.012942
 1524 Fit       0.010586
 1525 Fit       0.008562
 1526 Fit       0.010306
 1527 Fit       0.007880
 1528 Fit       0.006260
 1529 Fit       0.006784
 1530 Fit       0.006450
 1531 Fit       0.006581
 1532 Fit       0.006426
 1533 Fit       0.005895
 1534 Fit       0.006164
 1535 Fit       0.006648
 1536 Fit       0.006189
 1537 Fit       0.004062
 1538 Fit       0.006398
 1539 Fit       0.006535
 1540 Fit       0.006195
 1541 Fit       0.004235
 1542 Fit      -0.000614
 1543 Fit       0.002866
 1544 Fit       0.006174
 1545 Fit       0.006367
 1546 Fit       0.004871
 1547 Fit       0.009665
 1548 Fit       0.009150
 1549 Fit       0.009720
 1550 Fit       0.010916
 1551 Fit       0.010727
 1552 Fit       0.009348
 1553 Fit       0.009004
 1554 Fit       0.008490
 1555 Fit       0.008840
 1556 Fit       0.010155
 1557 Fit       0.008408
 1558 Fit       0.008236
 1559 Fit       0.008358
 1560 Fit       0.007503
 1561 Fit       0.007868
 1562 Fit       0.009322
 1563 Fit       0.007347
 1564 Fit       0.007260
 1565 Fit       0.007372
 1566 Fit       0.006485
 1567 Fit       0.006251
 1568 Fit       0.010073
 1569 Fit       0.008093
 1570 Fit       0.005486
 1571 Fit       0.008534
 1572 Fit       0.009640
 1573 Fit       0.007643
 1574 Fit       0.006997
 1575 Fit       0.008276
 1576 Fit       0.009492
 1577 Fit       0.010048
 1578 Fit       0.005509
 1579 Fit       0.005929
 1580 Fit       0.007410
 1581 Fit       0.009275
 1582 Fit       0.010366
 1583 Fit       0.010764
 1584 Fit       0.012228
 1585 Fit       0.009291
 1586 Fit       0.006783
 1587 Fit       0.009482
 1588 Fit       0.007535
 1589 Fit       0.005698
 1590 Fit       0.009072
 1591 Fit       0.008111
 1592 Fit       0.007427
 1593 Fit       0.008030
 1594 Fit       0.008503
 1595 Fit       0.006408
 1596 Fit       0.000203
 1597 Fit      -0.001955
 1598 Fit      -0.002326
 1599 Fit       0.009660
 1600 Fit       0.011617
 1601 Fit       0.007899
 1602 Fit       0.006360
 1603 Fit       0.007054
 1604 Fit       0.009569
 1605 Fit       0.001143
 1606 Fit       0.002800
 1607 Fit       0.006136
 1608 Fit       0.008839
 1609 Fit       0.010950
 1610 Fit       0.001243
 1611 Fit       0.006517
 1612 Fit       0.009605
 1613 Fit       0.013362
 1614 Fit       0.012246
 1615 Fit       0.012570
 1616 Fit       0.012808
 1617 Fit       0.012300
 1618 Fit       0.012390
 1619 Fit       0.013670
 1620 Fit       0.012124
 1621 Fit       0.011169
 1622 Fit       0.009202
 1623 Fit       0.011171
 1624 Fit      -0.003070
 1625 Fit       0.011844
 1626 Fit      -0.003753
 1627 Fit       0.009255
 1628 Fit       0.002180
 1629 Fit       0.002678
 1630 Fit       0.006364
 1631 Fit       0.001685
 1632 Fit       0.009308
 1633 Fit       0.005019
 1634 Fit       0.006329
 1635 Fit       0.006763
 1636 Fit       0.009163
 1637 Fit       0.007630
 1638 Fit       0.007280
 1639 Fit       0.006602
 1640 Fit       0.004572
 1641 Fit       0.004502
 1642 Fit       0.007047
 1643 Fit       0.007844
 1644 Fit       0.006529
 1645 Fit       0.002945
 1646 Fit       0.008896
 1647 Fit      -0.001805
 1648 Fit       0.004831
 1649 Fit       0.008828
 1650 Fit       0.011857
 1651 Fit      -0.000499
 1652 Fit       0.005040
 1653 Fit       0.008417
 1654 Fit       0.010760
 1655 Fit       0.012877
 1656 Fit      -0.001962
 1657 Fit       0.003875
 1658 Fit       0.007450
 1659 Fit       0.009629
 1660 Fit       0.003286
 1661 Fit       0.006971
 1662 Fit      -0.006536
 1663 Fit      -0.010639
 1664 Fit      -0.007412
 1665 Fit      -0.012562
 1666 Fit      -0.012261
 1667 Fit      -0.006047
 1668 Fit      -0.009998
 1669 Fit      -0.013840
 1670 Fit      -0.012863
 1671 Fit      -0.013055
 1672 Fit      -0.011576
 1673 Fit      -0.008787
 1674 Fit      -0.010390
 1675 Fit      -0.005997
 1676 Fit      -0.007950
 1677 Fit       0.005418
 1678 Fit       0.001340
 1679 Fit       0.003222
 1680 Fit      -0.000303
 1681 Fit      -0.000755
 1682 Fit       0.001007
 1683 Fit       0.001884
 1684 Fit      -0.000009
 1685 Fit      -0.005113
 1686 Fit       0.002699
 1687 Fit       0.002890
 1688 Fit       0.002507
 1689 Fit       0.000056
 1690 Fit      -0.004433
 1691 Fit       0.004191
 1692 Fit       0.003515
 1693 Fit       0.002804
 1694 Fit       0.000692
 1695 Fit      -0.000155
 1696 Fit       0.002625
 1697 Fit       0.006252
 1698 Fit       0.004869
 1699 Fit       0.006596
 1700 Fit       0.005868
 1701 Fit      -0.000483
 1702 Fit      -0.005591
 1703 Fit       0.000485
 1704 Fit       0.000561
 1705 Fit       0.001713
 1706 Fit       0.002917
 1707 Fit      -0.002718
 1708 Fit       0.003961
 1709 Fit       0.002821
 1710 Fit       0.001354
 1711 Fit       0.001328
 1712 Fit       0.000780
 1713 Fit       0.002590
 1714 Fit       0.001939
 1715 Fit       0.000260
 1716 Fit      -0.001692
 1717 Fit       0.002382
 1718 Fit       0.002016
 1719 Fit      -0.000083
 1720 Fit      -0.004202
 1721 Fit       0.000926
 1722 Fit       0.000864
 1723 Fit      -0.002538
 1724 Fit      -0.001678
 1725 Fit      -0.001533
 1726 Fit       0.007954
 1727 Fit       0.008496
 1728 Fit       0.008856
 1729 Fit       0.002683
 1730 Fit       0.006887
 1731 Fit       0.007659
 1732 Fit       0.006669
 1733 Fit       0.007178
 1734 Fit       0.006382
 1735 Fit       0.005126
 1736 Fit       0.007615
 1737 Fit       0.006926
 1738 Fit       0.000127
 1739 Fit       0.001117
 1740 Fit      -0.001350
 1741 Fit       0.005405
 1742 Fit       0.004295
 1743 Fit       0.007813
 1744 Fit      -0.008864
 1745 Fit      -0.000811
 1746 Fit       0.008018
 1747 Fit       0.003908
 1748 Fit      -0.004891
 1749 Fit       0.001682
 1750 Fit      -0.003039
 1751 Fit      -0.002453
 1752 Fit       0.001891
 1753 Fit       0.003448
 1754 Fit       0.004907
 1755 Fit       0.001852
 1756 Fit       0.001474
 1757 Fit       0.001666
 1758 Fit      -0.003362
 1759 Fit       0.007748
 1760 Fit       0.004936
 1761 Fit       0.003648
 1762 Fit      -0.000650
 1763 Fit      -0.007385
 1764 Fit       0.008987
 1765 Fit       0.006566
 1766 Fit       0.004331
 1767 Fit       0.000034
 1768 Fit      -0.006001
 1769 Fit       0.007308
 1770 Fit       0.004342
 1771 Fit      -0.013437
 1772 Fit      -0.016172
 1773 Fit      -0.014814
 1774 Fit      -0.010539
 1775 Fit      -0.009039
 1776 Fit      -0.012514
 1777 Fit      -0.015411
 1778 Fit      -0.016901
 1779 Fit      -0.017719
 1780 Fit      -0.017386
 1781 Fit      -0.014535
 1782 Fit      -0.007078
 1783 Fit      -0.010911
 1784 Fit      -0.013595
 1785 Fit      -0.015057
 1786 Fit      -0.015989
 1787 Fit      -0.015609
 1788 Fit      -0.018116
 1789 Fit      -0.020318
 1790 Fit      -0.021190
 1791 Fit      -0.019759
 1792 Fit      -0.008926
 1793 Fit      -0.009950
 1794 Fit      -0.010874
 1795 Fit      -0.012179
 1796 Fit      -0.013617
 1797 Fit      -0.012612
 1798 Fit      -0.016788
 1799 Fit      -0.021067
 1800 Fit      -0.024669
 1801 Fit      -0.027365
 1802 Fit      -0.004314
 1803 Fit      -0.006813
 1804 Fit      -0.009274
 1805 Fit      -0.008352
 1806 Fit      -0.014172
 1807 Fit      -0.020174
 1808 Fit      -0.025789
 1809 Fit      -0.031127
 1810 Fit       0.000020
 1811 Fit      -0.003483
 1812 Fit      -0.011949
 1813 Fit      -0.020428
 1814 Fit      -0.028588
 1815 Fit      -0.010570
 1816 Fit      -0.021667
 1817 Fit      -0.003878
 1818 Fit       0.000470
 1819 Fit       0.002903
 1820 Fit       0.002883
 1821 Fit      -0.000294
 1822 Fit      -0.001801
 1823 Fit       0.001807
 1824 Fit       0.000690
 1825 Fit      -0.002038
 1826 Fit       0.004176
 1827 Fit       0.002768
 1828 Fit      -0.004354
 1829 Fit      -0.007087
 1830 Fit      -0.004264
 1831 Fit      -0.001816
 1832 Fit      -0.002939
 1833 Fit      -0.012339
 1834 Fit      -0.009820
 1835 Fit      -0.005077
 1836 Fit      -0.000876
 1837 Fit       0.000518
 1838 Fit      -0.008937
 1839 Fit      -0.000343
 1840 Fit       0.004149
 1841 Fit       0.008687
 1842 Fit       0.003926
 1843 Fit       0.005636
 1844 Fit       0.005719
 1845 Fit       0.005246
 1846 Fit       0.008122
 1847 Fit       0.006412
 1848 Fit       0.004706
 1849 Fit       0.006987
 1850 Fit       0.003970
 1851 Fit       0.009180
 1852 Fit       0.002439
 1853 Fit       0.005564
 1854 Fit      -0.000209
 1855 Fit       0.002441
 1856 Fit       0.000871
 1857 Fit      -0.022301
 1858 Fit      -0.019100
 1859 Fit      -0.028004
 1860 Fit      -0.028665
 1861 Fit      -0.030590
 1862 Fit      -0.030418
 1863 Fit      -0.028844
 1864 Fit      -0.031582
 1865 Fit      -0.028815
 1866 Fit      -0.026432
 1867 Fit      -0.027194
 1868 Fit      -0.024896
 1869 Fit      -0.022701
 1870 Fit      -0.021624
 1871 Fit      -0.023282
 1872 Fit      -0.021253
 1873 Fit      -0.020254
 1874 Fit      -0.017521
 1875 Fit      -0.014685
 1876 Fit      -0.016678
 1877 Fit      -0.015140
 1878 Fit      -0.010651
 1879 Fit      -0.013201
 1880 Fit      -0.011677
 1881 Fit      -0.008504
 1882 Fit       0.001114
 1883 Fit      -0.003618
 1884 Fit      -0.009406
 1885 Fit      -0.005397
 1886 Fit      -0.003037
 1887 Fit      -0.001303
 1888 Fit       0.009849
 1889 Fit       0.007641
 1890 Fit       0.010258
 1891 Fit       0.008645
 1892 Fit       0.006942
 1893 Fit       0.010319
 1894 Fit       0.008776
 1895 Fit       0.007190
 1896 Fit       0.004829
 1897 Fit       0.000604
 1898 Fit       0.009473
 1899 Fit       0.007966
 1900 Fit       0.005709
 1901 Fit       0.007391
 1902 Fit      -0.003959
 1903 Fit      -0.001141
 1904 Fit       0.002976
 1905 Fit       0.004190
 1906 Fit       0.007929
 1907 Fit       0.004246
 1908 Fit       0.007508
 1909 Fit       0.002370
 1910 Fit       0.009284
 1911 Fit       0.002664
 1912 Fit       0.005511
 1913 Fit       0.006948
 1914 Fit       0.007775
 1915 Fit       0.009023
 1916 Fit       0.009896
 1917 Fit       0.010244
 1918 Fit       0.011431
 1919 Fit       0.012088
 1920 Fit      -0.001933
 1921 Fit       0.003576
 1922 Fit       0.002348
 1923 Fit       0.006865
 1924 Fit       0.000849
 1925 Fit       0.005249
 1926 Fit       0.008609
 1927 Fit       0.006663
 1928 Fit       0.009017
 1929 Fit      -0.018309
 1930 Fit      -0.021775
 1931 Fit      -0.019517
 1932 Fit      -0.017987
 1933 Fit      -0.016564
 1934 Fit      -0.014561
 1935 Fit      -0.018488
 1936 Fit      -0.026860
 1937 Fit      -0.022464
 1938 Fit      -0.018277
 1939 Fit      -0.016275
 1940 Fit      -0.016587
 1941 Fit      -0.017217
 1942 Fit      -0.015796
 1943 Fit      -0.011861
 1944 Fit      -0.008247
 1945 Fit      -0.010424
 1946 Fit      -0.027971
 1947 Fit      -0.031890
 1948 Fit      -0.024498
 1949 Fit      -0.018168
 1950 Fit      -0.013592
 1951 Fit      -0.011915
 1952 Fit      -0.012885
 1953 Fit      -0.014942
 1954 Fit      -0.016197
 1955 Fit      -0.014857
 1956 Fit      -0.010283
 1957 Fit      -0.024194
 1958 Fit      -0.016733
 1959 Fit      -0.010286
 1960 Fit      -0.006364
 1961 Fit      -0.005981
 1962 Fit      -0.007758
 1963 Fit      -0.010119
 1964 Fit      -0.012609
 1965 Fit      -0.013457
 1966 Fit      -0.010888
 1967 Fit      -0.004989
 1968 Fit      -0.020136
 1969 Fit      -0.013023
 1970 Fit      -0.007057
 1971 Fit      -0.011667
 1972 Fit      -0.001129
 1973 Fit       0.003846
 1974 Fit       0.005291
 1975 Fit      -0.005538
 1976 Fit      -0.001669
 1977 Fit      -0.000699
 1978 Fit      -0.001886
 1979 Fit      -0.002997
 1980 Fit       0.000339
 1981 Fit       0.001947
 1982 Fit       0.002259
 1983 Fit       0.000081
 1984 Fit       0.002326
 1985 Fit       0.003594
 1986 Fit       0.003932
 1987 Fit       0.002964
 1988 Fit       0.004329
 1989 Fit       0.005368
 1990 Fit      -0.006768
 1991 Fit       0.000719
 1992 Fit       0.001001
 1993 Fit       0.004914
 1994 Fit       0.004337
 1995 Fit       0.007087
 1996 Fit       0.006668
 1997 Fit       0.009771
 1998 Fit       0.009293
 1999 Fit       0.008065
 2000 Fit      -0.004766
 2001 Fit       0.002351
 2002 Fit      -0.000286
 2003 Fit       0.001349
 2004 Fit       0.000989
 2005 Fit       0.000849
 2006 Fit       0.001592
 2007 Fit       0.001932
 2008 Fit       0.001748
 2009 Fit       0.002937
 2010 Fit       0.003029
 2011 Fit       0.003890
 2012 Fit       0.009172
 2013 Fit       0.005506
 2014 Fit       0.006548
 2015 Fit       0.003121
 2016 Fit       0.002793
 2017 Fit       0.005159
 2018 Fit       0.008484
 2019 Fit       0.005112
 2020 Fit       0.007716
 2021 Fit       0.010400
 2022 Fit       0.011760
 2023 Fit       0.004832
 2024 Fit       0.007018
 2025 Fit       0.008066
 2026 Fit      -0.006322
 2027 Fit      -0.009339
 2028 Fit      -0.001311
 2029 Fit      -0.001384
 2030 Fit      -0.001454
 2031 Fit      -0.002532
 2032 Fit      -0.005312
 2033 Fit       0.001168
 2034 Fit       0.000639
 2035 Fit       0.000547
 2036 Fit       0.000136
 2037 Fit      -0.000823
 2038 Fit      -0.002231
 2039 Fit       0.001289
 2040 Fit       0.001073
 2041 Fit       0.000814
 2042 Fit       0.000388
 2043 Fit       0.003612
 2044 Fit       0.005206
 2045 Fit       0.004352
 2046 Fit       0.003475
 2047 Fit       0.002631
 2048 Fit       0.006804
 2049 Fit       0.005884
 2050 Fit       0.005342
 2051 Fit       0.004676
 2052 Fit       0.003883
 2053 Fit       0.003242
 2054 Fit       0.006148
 2055 Fit       0.005674
 2056 Fit       0.004981
 2057 Fit       0.004469
 2058 Fit       0.005082
 2059 Fit       0.006104
 2060 Fit       0.005458
 Job cpu time:       0 days  0 hours 13 minutes 17.4 seconds.
 Normal termination of Gaussian 16 at Sun Jul  9 10:02:00 2023.
