 Copyright (c) 1988-2019, Gaussian, Inc.  All Rights Reserved.
  
 This is part of the Gaussian(R) 16 program.  It is based on
 the Gaussian(R) 09 system (copyright 2009, Gaussian, Inc.),
 the Gaussian(R) 03 system (copyright 2003, Gaussian, Inc.),
 the Gaussian(R) 98 system (copyright 1998, Gaussian, Inc.),
 the Gaussian(R) 94 system (copyright 1995, Gaussian, Inc.),
 the Gaussian 92(TM) system (copyright 1992, Gaussian, Inc.),
 the Gaussian 90(TM) system (copyright 1990, Gaussian, Inc.),
 the Gaussian 88(TM) system (copyright 1988, Gaussian, Inc.),
 the Gaussian 86(TM) system (copyright 1986, Carnegie Mellon
 University), and the Gaussian 82(TM) system (copyright 1983,
 Carnegie Mellon University). Gaussian is a federally registered
 trademark of Gaussian, Inc.
 Cite this work as:
 Gaussian 16, Revision C.01,
 M. J. Frisch, G. W. Trucks, H. B. Schlegel, G. E. Scuseria, 
 M. A. Robb, J. R. Cheeseman, G. Scalmani, V. Barone, 
 G. A. Petersson, H. Nakatsuji, X. Li, M. Caricato, A. V. Marenich, 
 J. Bloino, B. G. Janesko, R. Gomperts, B. Mennucci, H. P. Hratchian, 
 J. V. Ortiz, A. F. Izmaylov, J. L. Sonnenberg, D. Williams-Young, 
 F. Ding, F. Lipparini, F. Egidi, J. Goings, B. Peng, A. Petrone, 
 T. Henderson, D. Ranasinghe, V. G. Zakrzewski, J. Gao, N. Rega, 
 G. Zheng, W. Liang, M. Hada, M. Ehara, K. Toyota, R. Fukuda, 
 J. Hasegawa, M. Ishida, T. Nakajima, Y. Honda, O. Kitao, H. Nakai, 
 T. Vreven, K. Throssell, J. A. Montgomery, Jr., J. E. Peralta, 
 F. Ogliaro, M. J. Bearpark, J. J. Heyd, E. N. Brothers, K. N. Kudin, 
 V. N. Staroverov, T. A. Keith, R. Kobayashi, J. Normand, 
 K. Raghavachari, A. P. Rendell, J. C. Burant, S. S. Iyengar, 
 J. Tomasi, M. Cossi, J. M. Millam, M. Klene, C. Adamo, R. Cammi, 
 J. W. Ochterski, R. L. Martin, K. Morokuma, O. Farkas, 
 J. B. Foresman, and D. J. Fox, Gaussian, Inc., Wallingford CT, 2019.
 
 ******************************************
 Gaussian 16:  EM64L-G16RevC.01  3-Jul-2019
                 9-Jul-2023 
 ******************************************
 ----------------------------------------------------------------------
 #P B3LYP/6-31G(d) Integral=Ultrafine SCF(Conver=8,XQC,MaxConventionalC
 ycles=64,MaxCycle=128) NoSymm Test Pop=mk IOp(6/33=2) GFInput GFPrint
 ----------------------------------------------------------------------
 1/38=1,172=1/1;
 2/12=2,15=1,17=6,18=5,40=1/2;
 3/5=1,6=6,7=1,11=2,24=110,25=1,30=1,74=-5,75=-5/1,2,3;
 4//1;
 5/5=2,6=8,7=128,8=3,13=1,38=5,85=64/2,8;
 6/7=2,8=2,9=2,10=2,15=8,20=1,28=1,33=2/1,2;
 99/5=1,9=1/99;
 -------------------------------------------------
 MEP step - Input generated by PyRED DVE-DMDS-OPLS
 -------------------------------------------------
 Symbolic Z-matrix:
 Charge =  0 Multiplicity = 1
 C                     0.38656  -5.62338   3.77165 
 H                    -0.56718  -5.58448   4.30846 
 H                     0.17648  -5.5823    2.69782 
 H                     0.85548  -6.58882   3.99538 
 C                     1.31799  -4.48178   4.17497 
 H                     1.53402  -4.52199   5.25533 
 H                     2.27247  -4.5734    3.64546 
 O                     0.82117  -3.19273   3.83113 
 C                    -0.17665  -2.69131   4.70564 
 H                     0.22808  -2.60391   5.73005 
 H                    -1.05384  -3.3537    4.7443 
 C                    -0.62396  -1.3171    4.2251 
 H                    -1.21066  -0.84539   5.0223 
 H                     0.26337  -0.69246   4.0432 
 O                    -1.47262  -1.36536   3.08871 
 C                    -0.81299  -1.39736   1.82461 
 H                    -1.47122  -1.9392    1.1375 
 H                     0.13284  -1.9456    1.8868 
 C                    -0.60069   0.02383   1.29147 
 H                    -0.00247   0.61696   1.99977 
 H                    -1.571     0.51988   1.18631 
 O                     0.        0.        0. 
 C                     1.42476   0.        0. 
 H                     1.73533  -0.53612  -0.90221 
 H                     1.80728  -0.55444   0.87174 
 C                     2.02807   1.40728   0. 
 H                     3.10812   1.33076   0.17297 
 H                     1.61929   2.0033    0.8246 
 S                     1.89865   2.34023  -1.57814 
 C                     0.11346   2.77906  -1.63565 
 H                    -0.08565   3.0079   -2.68756 
 H                    -0.46111   1.88652  -1.37414 
 C                    -0.30032   3.95181  -0.74111 
 H                     0.05468   3.80143   0.28328 
 H                    -1.39477   4.00539  -0.68839 
 S                     0.34628   5.599    -1.24242 
 C                    -0.83492   6.04555  -2.579 
 H                    -1.00051   5.17395  -3.22164 
 H                    -0.31943   6.79654  -3.18522 
 C                    -2.15839   6.60405  -2.05641 
 H                    -2.65      5.87771  -1.40163 
 H                    -1.97629   7.51622  -1.47877 
 S                    -3.25788   6.99978  -3.48271 
 C                    -4.63582   7.86432  -2.62467 
 H                    -4.21553   8.68831  -2.0364 
 H                    -5.21746   8.31471  -3.43613 
 C                    -5.52536   6.96901  -1.7627 
 H                    -5.96047   6.15964  -2.3573 
 H                    -4.96579   6.51892  -0.93583 
 H                    -6.34397   7.55573  -1.32688 
 
 ITRead=  0  0  0  0  0  0  0  0  0  0  0  0  0  0  0  0  0  0  0  0
 ITRead=  0  0  0  0  0  0  0  0  0  0  0  0  0  0  0  0  0  0  0  0
 ITRead=  0  0  0  0  0  0  0  0  0  0
 MicOpt= -1 -1 -1 -1 -1 -1 -1 -1 -1 -1 -1 -1 -1 -1 -1 -1 -1 -1 -1 -1
 MicOpt= -1 -1 -1 -1 -1 -1 -1 -1 -1 -1 -1 -1 -1 -1 -1 -1 -1 -1 -1 -1
 MicOpt= -1 -1 -1 -1 -1 -1 -1 -1 -1 -1
 NAtoms=     50 NQM=       50 NQMF=       0 NMMI=      0 NMMIF=      0
                NMic=       0 NMicF=      0.
                          Input orientation:                          
 ---------------------------------------------------------------------
 Center     Atomic      Atomic             Coordinates (Angstroms)
 Number     Number       Type             X           Y           Z
 ---------------------------------------------------------------------
      1          6           0        0.386555   -5.623377    3.771649
      2          1           0       -0.567178   -5.584481    4.308455
      3          1           0        0.176484   -5.582298    2.697822
      4          1           0        0.855481   -6.588823    3.995379
      5          6           0        1.317987   -4.481777    4.174973
      6          1           0        1.534018   -4.521990    5.255325
      7          1           0        2.272468   -4.573401    3.645459
      8          8           0        0.821167   -3.192732    3.831131
      9          6           0       -0.176650   -2.691310    4.705640
     10          1           0        0.228083   -2.603909    5.730052
     11          1           0       -1.053837   -3.353704    4.744295
     12          6           0       -0.623964   -1.317104    4.225099
     13          1           0       -1.210662   -0.845388    5.022298
     14          1           0        0.263367   -0.692456    4.043201
     15          8           0       -1.472621   -1.365361    3.088707
     16          6           0       -0.812990   -1.397356    1.824613
     17          1           0       -1.471222   -1.939200    1.137504
     18          1           0        0.132844   -1.945604    1.886803
     19          6           0       -0.600686    0.023834    1.291465
     20          1           0       -0.002465    0.616956    1.999771
     21          1           0       -1.571004    0.519882    1.186309
     22          8           0        0.000000    0.000000    0.000000
     23          6           0        1.424755    0.000000    0.000000
     24          1           0        1.735328   -0.536118   -0.902213
     25          1           0        1.807276   -0.554439    0.871735
     26          6           0        2.028065    1.407284    0.000000
     27          1           0        3.108117    1.330755    0.172971
     28          1           0        1.619290    2.003297    0.824599
     29         16           0        1.898650    2.340228   -1.578143
     30          6           0        0.113455    2.779056   -1.635647
     31          1           0       -0.085649    3.007899   -2.687559
     32          1           0       -0.461105    1.886524   -1.374140
     33          6           0       -0.300321    3.951806   -0.741111
     34          1           0        0.054680    3.801430    0.283280
     35          1           0       -1.394765    4.005391   -0.688392
     36         16           0        0.346283    5.599001   -1.242424
     37          6           0       -0.834922    6.045552   -2.578996
     38          1           0       -1.000508    5.173947   -3.221635
     39          1           0       -0.319433    6.796538   -3.185223
     40          6           0       -2.158392    6.604052   -2.056410
     41          1           0       -2.650002    5.877714   -1.401634
     42          1           0       -1.976285    7.516221   -1.478774
     43         16           0       -3.257881    6.999782   -3.482705
     44          6           0       -4.635821    7.864316   -2.624673
     45          1           0       -4.215533    8.688309   -2.036397
     46          1           0       -5.217464    8.314711   -3.436127
     47          6           0       -5.525358    6.969013   -1.762701
     48          1           0       -5.960472    6.159643   -2.357298
     49          1           0       -4.965790    6.518922   -0.935833
     50          1           0       -6.343973    7.555725   -1.326878
 ---------------------------------------------------------------------
 Stoichiometry    C14H30O3S3
 Framework group  C1[X(C14H30O3S3)]
 Standard basis: 6-31G(d) (6D, 7F)
   372 basis functions,   752 primitive gaussians,   372 cartesian basis functions
    93 alpha electrons       93 beta electrons
 Requested convergence on RMS density matrix=1.00D-08 within  64 cycles.
 Requested convergence on MAX density matrix=1.00D-06.
 Requested convergence on             energy=1.00D-06.
 SCF Done:  E(RB3LYP) =  -1971.75015887     A.U. after   13 cycles
            NFock= 13  Conv=0.47D-08     -V/T= 2.0058
 Mulliken charges:
     1  C   -0.458289
     2  H    0.153065
     3  H    0.160535
     4  H    0.145725
     5  C   -0.016093
     6  H    0.121037
     7  H    0.146067
     8  O   -0.471723
     9  C   -0.019927
    10  H    0.114874
    11  H    0.137426
    12  C   -0.047513
    13  H    0.145060
    14  H    0.131561
    15  O   -0.475431
    16  C   -0.057310
    17  H    0.151010
    18  H    0.162590
    19  C   -0.053356
    20  H    0.122787
    21  H    0.150941
    22  O   -0.467837
    23  C   -0.025098
    24  H    0.165010
    25  H    0.132585
    26  C   -0.435167
    27  H    0.174599
    28  H    0.169372
    29  S    0.097571
    30  C   -0.421049
    31  H    0.177921
    32  H    0.208578
    33  C   -0.414308
    34  H    0.178132
    35  H    0.170146
    36  S    0.107660
    37  C   -0.437867
    38  H    0.183249
    39  H    0.194216
    40  C   -0.390490
    41  H    0.171949
    42  H    0.178095
    43  S    0.073557
    44  C   -0.407363
    45  H    0.168618
    46  H    0.176215
    47  C   -0.436476
    48  H    0.163650
    49  H    0.152235
    50  H    0.149260
 Sum of Mulliken charges =  -0.00000
 Dipole moment (field-independent basis, Debye):
    X=             -1.0713    Y=             -2.3620    Z=              4.3357  Tot=              5.0522
 Quadrupole moment (field-independent basis, Debye-Ang):
   XX=           -144.0594   YY=           -143.3337   ZZ=           -144.2200
   XY=            -19.0486   XZ=              5.2361   YZ=              2.0967
 Traceless Quadrupole moment (field-independent basis, Debye-Ang):
   XX=             -0.1884   YY=              0.5373   ZZ=             -0.3490
   XY=            -19.0486   XZ=              5.2361   YZ=              2.0967
 Octapole moment (field-independent basis, Debye-Ang**2):
  XXX=            229.7303  YYY=           -946.4811  ZZZ=             65.2866  XYY=            -11.5261
  XXY=           -256.2044  XXZ=            -14.4657  XZZ=            108.1112  YZZ=           -389.2769
  YYZ=             68.2770  XYZ=             -3.0218
 Hexadecapole moment (field-independent basis, Debye-Ang**3):
 XXXX=          -3973.6320 YYYY=         -17977.8465 ZZZZ=          -6079.6378 XXXY=           2252.9585
 XXXZ=           -765.2114 YYYX=           1756.2345 YYYZ=           4242.0470 ZZZX=           -993.7338
 ZZZY=           4255.2575 XXYY=          -3311.7451 XXZZ=          -1837.5187 YYZZ=          -4279.7677
 XXYZ=           1368.4060 YYXZ=           -209.6391 ZZXY=            974.2253
 Merz-Kollman atomic radii used.
 Atom Element Radius
    1     6    1.50
    2     1    1.20
    3     1    1.20
    4     1    1.20
    5     6    1.50
    6     1    1.20
    7     1    1.20
    8     8    1.40
    9     6    1.50
   10     1    1.20
   11     1    1.20
   12     6    1.50
   13     1    1.20
   14     1    1.20
   15     8    1.40
   16     6    1.50
   17     1    1.20
   18     1    1.20
   19     6    1.50
   20     1    1.20
   21     1    1.20
   22     8    1.40
   23     6    1.50
   24     1    1.20
   25     1    1.20
   26     6    1.50
   27     1    1.20
   28     1    1.20
   29    16    1.75
   30     6    1.50
   31     1    1.20
   32     1    1.20
   33     6    1.50
   34     1    1.20
   35     1    1.20
   36    16    1.75
   37     6    1.50
   38     1    1.20
   39     1    1.20
   40     6    1.50
   41     1    1.20
   42     1    1.20
   43    16    1.75
   44     6    1.50
   45     1    1.20
   46     1    1.20
   47     6    1.50
   48     1    1.20
   49     1    1.20
   50     1    1.20
 Generate VDW surfaces: Layer= 4 Dens= 1 Start= 1.400 Inc= 0.200
            Electrostatic Properties Using The SCF Density.


       Atomic Center    1 is at   0.386555 -5.623377  3.771649
       Atomic Center    2 is at  -0.567178 -5.584481  4.308455
       Atomic Center    3 is at   0.176484 -5.582298  2.697822
       Atomic Center    4 is at   0.855481 -6.588823  3.995379
       Atomic Center    5 is at   1.317987 -4.481777  4.174973
       Atomic Center    6 is at   1.534018 -4.521990  5.255325
       Atomic Center    7 is at   2.272468 -4.573401  3.645459
       Atomic Center    8 is at   0.821167 -3.192732  3.831131
       Atomic Center    9 is at  -0.176650 -2.691310  4.705640
       Atomic Center   10 is at   0.228083 -2.603909  5.730052
       Atomic Center   11 is at  -1.053837 -3.353704  4.744295
       Atomic Center   12 is at  -0.623964 -1.317104  4.225099
       Atomic Center   13 is at  -1.210662 -0.845388  5.022298
       Atomic Center   14 is at   0.263367 -0.692456  4.043201
       Atomic Center   15 is at  -1.472621 -1.365361  3.088707
       Atomic Center   16 is at  -0.812990 -1.397356  1.824613
       Atomic Center   17 is at  -1.471222 -1.939200  1.137504
       Atomic Center   18 is at   0.132844 -1.945604  1.886803
       Atomic Center   19 is at  -0.600686  0.023834  1.291465
       Atomic Center   20 is at  -0.002465  0.616956  1.999771
       Atomic Center   21 is at  -1.571004  0.519882  1.186309
       Atomic Center   22 is at   0.000000  0.000000  0.000000
       Atomic Center   23 is at   1.424755  0.000000  0.000000
       Atomic Center   24 is at   1.735328 -0.536118 -0.902213
       Atomic Center   25 is at   1.807276 -0.554439  0.871735
       Atomic Center   26 is at   2.028065  1.407284  0.000000
       Atomic Center   27 is at   3.108117  1.330755  0.172971
       Atomic Center   28 is at   1.619290  2.003297  0.824599
       Atomic Center   29 is at   1.898650  2.340228 -1.578143
       Atomic Center   30 is at   0.113455  2.779056 -1.635647
       Atomic Center   31 is at  -0.085649  3.007899 -2.687559
       Atomic Center   32 is at  -0.461105  1.886524 -1.374140
       Atomic Center   33 is at  -0.300321  3.951806 -0.741111
       Atomic Center   34 is at   0.054680  3.801430  0.283280
       Atomic Center   35 is at  -1.394765  4.005391 -0.688392
       Atomic Center   36 is at   0.346283  5.599001 -1.242424
       Atomic Center   37 is at  -0.834922  6.045552 -2.578996
       Atomic Center   38 is at  -1.000508  5.173947 -3.221635
       Atomic Center   39 is at  -0.319433  6.796538 -3.185223
       Atomic Center   40 is at  -2.158392  6.604052 -2.056410
       Atomic Center   41 is at  -2.650002  5.877714 -1.401634
       Atomic Center   42 is at  -1.976285  7.516221 -1.478774
       Atomic Center   43 is at  -3.257881  6.999782 -3.482705
       Atomic Center   44 is at  -4.635821  7.864316 -2.624673
       Atomic Center   45 is at  -4.215533  8.688309 -2.036397
       Atomic Center   46 is at  -5.217464  8.314711 -3.436127
       Atomic Center   47 is at  -5.525358  6.969013 -1.762701
       Atomic Center   48 is at  -5.960472  6.159643 -2.357298
       Atomic Center   49 is at  -4.965790  6.518922 -0.935833
       Atomic Center   50 is at  -6.343973  7.555725 -1.326878
      ESP Fit Center   51 is at   0.386555 -5.623377  5.871649
      ESP Fit Center   52 is at  -0.804410 -6.997823  2.721649
      ESP Fit Center   53 is at   0.127734 -7.423519  2.721649
      ESP Fit Center   54 is at  -0.567178 -5.584481  5.988455
      ESP Fit Center   55 is at  -0.262030 -4.645332  5.667604
      ESP Fit Center   56 is at  -1.366065 -5.004055  5.667604
      ESP Fit Center   57 is at  -1.366065 -6.164907  5.667604
      ESP Fit Center   58 is at  -0.262030 -6.523630  5.667604
      ESP Fit Center   59 is at  -2.068595 -5.038010  4.827604
      ESP Fit Center   60 is at  -2.068595 -6.130952  4.827604
      ESP Fit Center   61 is at  -1.366065 -6.968195  4.827604
      ESP Fit Center   62 is at  -2.068595 -5.038010  3.789306
      ESP Fit Center   63 is at  -2.068595 -6.130952  3.789306
      ESP Fit Center   64 is at  -1.366065 -6.968195  3.789306
      ESP Fit Center   65 is at   1.774259 -5.582298  2.178673
      ESP Fit Center   66 is at  -0.622403 -4.198584  2.178673
      ESP Fit Center   67 is at  -1.324933 -5.035827  2.178673
      ESP Fit Center   68 is at  -1.324933 -6.128769  2.178673
      ESP Fit Center   69 is at  -0.622403 -6.966012  2.178673
      ESP Fit Center   70 is at   0.453935 -7.155799  2.178673
      ESP Fit Center   71 is at   1.400451 -6.609328  2.178673
      ESP Fit Center   72 is at   1.163963 -5.582298  1.338673
      ESP Fit Center   73 is at   0.481632 -4.643149  1.338673
      ESP Fit Center   74 is at  -0.622403 -5.001872  1.338673
      ESP Fit Center   75 is at  -0.622403 -6.162724  1.338673
      ESP Fit Center   76 is at   0.481632 -6.521447  1.338673
      ESP Fit Center   77 is at   0.176484 -5.582298  1.017822
      ESP Fit Center   78 is at   0.855481 -6.588823  5.675379
      ESP Fit Center   79 is at   1.842960 -6.588823  5.354528
      ESP Fit Center   80 is at   0.056594 -7.169249  5.354528
      ESP Fit Center   81 is at   1.160629 -7.527972  5.354528
      ESP Fit Center   82 is at   2.453256 -6.588823  4.514528
      ESP Fit Center   83 is at   0.056594 -7.972537  4.514528
      ESP Fit Center   84 is at   1.132932 -8.162324  4.514528
      ESP Fit Center   85 is at   2.079448 -7.615853  4.514528
      ESP Fit Center   86 is at   2.453256 -6.588823  3.476230
      ESP Fit Center   87 is at   0.056594 -7.972537  3.476230
      ESP Fit Center   88 is at   1.132932 -8.162324  3.476230
      ESP Fit Center   89 is at   2.079448 -7.615853  3.476230
      ESP Fit Center   90 is at   1.160629 -7.527972  2.636230
      ESP Fit Center   91 is at   2.073483 -6.136082  5.224973
      ESP Fit Center   92 is at   2.510923 -6.210043  4.174973
      ESP Fit Center   93 is at   1.317987 -4.481777  2.074973
      ESP Fit Center   94 is at   1.534018 -4.521990  6.935325
      ESP Fit Center   95 is at   2.521497 -4.521990  6.614474
      ESP Fit Center   96 is at   1.839166 -3.582841  6.614474
      ESP Fit Center   97 is at   0.735131 -3.941564  6.614474
      ESP Fit Center   98 is at   0.735131 -5.102416  6.614474
      ESP Fit Center   99 is at   1.839166 -5.461139  6.614474
      ESP Fit Center  100 is at   3.131793 -4.521990  5.774474
      ESP Fit Center  101 is at   2.757985 -3.494960  5.774474
      ESP Fit Center  102 is at   1.811469 -6.095491  5.774474
      ESP Fit Center  103 is at   2.757985 -5.549020  5.774474
      ESP Fit Center  104 is at   3.259947 -4.573401  5.004608
      ESP Fit Center  105 is at   3.870243 -4.573401  4.164608
      ESP Fit Center  106 is at   3.496435 -3.546371  4.164608
      ESP Fit Center  107 is at   3.496435 -5.600431  4.164608
      ESP Fit Center  108 is at   3.870243 -4.573401  3.126310
      ESP Fit Center  109 is at   3.496435 -3.546371  3.126310
      ESP Fit Center  110 is at   2.549919 -6.146902  3.126310
      ESP Fit Center  111 is at   3.496435 -5.600431  3.126310
      ESP Fit Center  112 is at   3.259947 -4.573401  2.286310
      ESP Fit Center  113 is at   2.577616 -3.634252  2.286310
      ESP Fit Center  114 is at   2.577616 -5.512550  2.286310
      ESP Fit Center  115 is at   2.272468 -4.573401  1.965459
      ESP Fit Center  116 is at   2.194400 -2.195020  4.811131
      ESP Fit Center  117 is at   2.518577 -2.212732  3.831131
      ESP Fit Center  118 is at   1.801167 -1.495322  3.831131
      ESP Fit Center  119 is at   2.194400 -2.195020  2.851131
      ESP Fit Center  120 is at   1.801167 -3.192732  2.133721
      ESP Fit Center  121 is at   0.228083 -2.603909  7.410052
      ESP Fit Center  122 is at   1.215562 -2.603909  7.089201
      ESP Fit Center  123 is at   0.533231 -1.664760  7.089201
      ESP Fit Center  124 is at  -0.570804 -2.023483  7.089201
      ESP Fit Center  125 is at  -0.570804 -3.184335  7.089201
      ESP Fit Center  126 is at   0.533231 -3.543058  7.089201
      ESP Fit Center  127 is at   1.825858 -2.603909  6.249201
      ESP Fit Center  128 is at   1.452050 -1.576879  6.249201
      ESP Fit Center  129 is at   0.505534 -1.030408  6.249201
      ESP Fit Center  130 is at  -1.852724 -2.773278  6.103444
      ESP Fit Center  131 is at  -1.852724 -3.934130  6.103444
      ESP Fit Center  132 is at  -0.748689 -4.292853  6.103444
      ESP Fit Center  133 is at  -2.555254 -2.807233  5.263444
      ESP Fit Center  134 is at  -2.555254 -3.900175  5.263444
      ESP Fit Center  135 is at  -1.852724 -4.737418  5.263444
      ESP Fit Center  136 is at  -2.555254 -2.807233  4.225146
      ESP Fit Center  137 is at  -2.555254 -3.900175  4.225146
      ESP Fit Center  138 is at  -1.852724 -3.934130  3.385146
      ESP Fit Center  139 is at  -1.368634  0.646430  4.225099
      ESP Fit Center  140 is at  -1.210662 -0.845388  6.702298
      ESP Fit Center  141 is at  -0.223183 -0.845388  6.381447
      ESP Fit Center  142 is at  -0.905514  0.093761  6.381447
      ESP Fit Center  143 is at  -2.009549 -0.264962  6.381447
      ESP Fit Center  144 is at  -2.009549 -1.425814  6.381447
      ESP Fit Center  145 is at  -0.933211  0.728113  5.541447
      ESP Fit Center  146 is at  -2.009549  0.538326  5.541447
      ESP Fit Center  147 is at  -2.712079 -0.298917  5.541447
      ESP Fit Center  148 is at  -2.712079 -1.391859  5.541447
      ESP Fit Center  149 is at  -2.009549  0.538326  4.503149
      ESP Fit Center  150 is at  -2.712079 -0.298917  4.503149
      ESP Fit Center  151 is at   1.250846 -0.692456  5.402350
      ESP Fit Center  152 is at   0.568515  0.246693  5.402350
      ESP Fit Center  153 is at   1.861142 -0.692456  4.562350
      ESP Fit Center  154 is at   1.487334  0.334574  4.562350
      ESP Fit Center  155 is at   0.540818  0.881045  4.562350
      ESP Fit Center  156 is at   1.861142 -0.692456  3.524052
      ESP Fit Center  157 is at   1.487334  0.334574  3.524052
      ESP Fit Center  158 is at   1.250846 -0.692456  2.684052
      ESP Fit Center  159 is at  -2.845854 -0.367649  4.068707
      ESP Fit Center  160 is at  -3.170031 -1.365361  4.068707
      ESP Fit Center  161 is at  -2.845854 -2.363073  4.068707
      ESP Fit Center  162 is at  -2.452621  0.332049  3.088707
      ESP Fit Center  163 is at  -3.170031 -0.385361  3.088707
      ESP Fit Center  164 is at  -3.432621 -1.365361  3.088707
      ESP Fit Center  165 is at  -3.170031 -2.345361  3.088707
      ESP Fit Center  166 is at  -2.452621 -3.062771  3.088707
      ESP Fit Center  167 is at  -1.472621 -3.325361  3.088707
      ESP Fit Center  168 is at  -2.845854 -0.367649  2.108707
      ESP Fit Center  169 is at  -3.170031 -1.365361  2.108707
      ESP Fit Center  170 is at  -2.845854 -2.363073  2.108707
      ESP Fit Center  171 is at  -0.559863 -3.482045  1.824613
      ESP Fit Center  172 is at  -2.972639 -1.392729  1.656653
      ESP Fit Center  173 is at  -2.972639 -2.485671  1.656653
      ESP Fit Center  174 is at  -2.270109 -3.322914  1.656653
      ESP Fit Center  175 is at  -1.193771 -3.512701  1.656653
      ESP Fit Center  176 is at  -2.972639 -1.392729  0.618355
      ESP Fit Center  177 is at  -2.972639 -2.485671  0.618355
      ESP Fit Center  178 is at  -2.270109 -3.322914  0.618355
      ESP Fit Center  179 is at  -1.193771 -3.512701  0.618355
      ESP Fit Center  180 is at  -0.483743 -1.939200 -0.221645
      ESP Fit Center  181 is at  -2.270109 -1.358774 -0.221645
      ESP Fit Center  182 is at  -2.270109 -2.519626 -0.221645
      ESP Fit Center  183 is at  -1.166074 -2.878349 -0.221645
      ESP Fit Center  184 is at  -1.471222 -1.939200 -0.542496
      ESP Fit Center  185 is at   1.730619 -1.945604  2.405952
      ESP Fit Center  186 is at   0.410295 -3.519105  1.367654
      ESP Fit Center  187 is at   1.356811 -2.972634  1.367654
      ESP Fit Center  188 is at   0.437992 -2.884753  0.527654
      ESP Fit Center  189 is at  -0.347559  2.108523  1.291465
      ESP Fit Center  190 is at   0.302683  1.556105  3.358920
      ESP Fit Center  191 is at  -0.801352  1.197382  3.358920
      ESP Fit Center  192 is at   1.595310  0.616956  2.518920
      ESP Fit Center  193 is at   1.221502  1.643986  2.518920
      ESP Fit Center  194 is at   0.274986  2.190457  2.518920
      ESP Fit Center  195 is at  -0.801352  2.000670  2.518920
      ESP Fit Center  196 is at   1.221502 -0.410074  2.518920
      ESP Fit Center  197 is at  -2.369891  1.100308  2.545458
      ESP Fit Center  198 is at  -1.293553  2.093383  1.705458
      ESP Fit Center  199 is at  -2.369891  1.903596  1.705458
      ESP Fit Center  200 is at  -3.072421  1.066353  1.705458
      ESP Fit Center  201 is at  -3.072421 -0.026589  1.705458
      ESP Fit Center  202 is at  -1.293553  2.093383  0.667160
      ESP Fit Center  203 is at  -2.369891  1.903596  0.667160
      ESP Fit Center  204 is at  -3.072421  1.066353  0.667160
      ESP Fit Center  205 is at  -3.072421 -0.026589  0.667160
      ESP Fit Center  206 is at  -2.369891  1.100308 -0.172840
      ESP Fit Center  207 is at  -2.369891 -0.060544 -0.172840
      ESP Fit Center  208 is at  -1.697410  0.000000 -0.980000
      ESP Fit Center  209 is at  -1.373233 -0.997712 -0.980000
      ESP Fit Center  210 is at  -0.524528 -1.614333 -0.980000
      ESP Fit Center  211 is at  -0.980000  0.000000 -1.697410
      ESP Fit Center  212 is at  -0.490000 -0.848705 -1.697410
      ESP Fit Center  213 is at   0.000000  0.000000 -1.960000
      ESP Fit Center  214 is at   0.680085 -1.963534  0.000000
      ESP Fit Center  215 is at   1.677882 -2.084689  0.000000
      ESP Fit Center  216 is at   3.284213 -0.975919  0.000000
      ESP Fit Center  217 is at   2.012779 -2.109619 -0.383064
      ESP Fit Center  218 is at   2.959295 -1.563148 -0.383064
      ESP Fit Center  219 is at   3.333103 -0.536118 -1.421362
      ESP Fit Center  220 is at   0.936441 -1.919832 -1.421362
      ESP Fit Center  221 is at   2.012779 -2.109619 -1.421362
      ESP Fit Center  222 is at   2.959295 -1.563148 -1.421362
      ESP Fit Center  223 is at   2.722807 -0.536118 -2.261362
      ESP Fit Center  224 is at   0.936441  0.044308 -2.261362
      ESP Fit Center  225 is at   0.936441 -1.116544 -2.261362
      ESP Fit Center  226 is at   2.040476 -1.475267 -2.261362
      ESP Fit Center  227 is at   1.735328 -0.536118 -2.582213
      ESP Fit Center  228 is at   1.807276 -0.554439  2.551735
      ESP Fit Center  229 is at   2.794755 -0.554439  2.230884
      ESP Fit Center  230 is at   2.112424  0.384710  2.230884
      ESP Fit Center  231 is at   2.112424 -1.493588  2.230884
      ESP Fit Center  232 is at   3.405051 -0.554439  1.390884
      ESP Fit Center  233 is at   2.084727 -2.127940  1.390884
      ESP Fit Center  234 is at   3.031243 -1.581469  1.390884
      ESP Fit Center  235 is at   2.084727 -2.127940  0.352586
      ESP Fit Center  236 is at   3.031243 -1.581469  0.352586
      ESP Fit Center  237 is at   3.108117  1.330755  1.852971
      ESP Fit Center  238 is at   4.095596  1.330755  1.532120
      ESP Fit Center  239 is at   3.413265  2.269904  1.532120
      ESP Fit Center  240 is at   3.413265  0.391606  1.532120
      ESP Fit Center  241 is at   4.705892  1.330755  0.692120
      ESP Fit Center  242 is at   4.332084  2.357785  0.692120
      ESP Fit Center  243 is at   3.385568  2.904256  0.692120
      ESP Fit Center  244 is at   4.332084  0.303725  0.692120
      ESP Fit Center  245 is at   4.705892  1.330755 -0.346178
      ESP Fit Center  246 is at   4.332084  2.357785 -0.346178
      ESP Fit Center  247 is at   4.332084  0.303725 -0.346178
      ESP Fit Center  248 is at   1.619290  2.003297  2.504599
      ESP Fit Center  249 is at   2.606769  2.003297  2.183748
      ESP Fit Center  250 is at   1.924438  2.942446  2.183748
      ESP Fit Center  251 is at   0.820403  2.583723  2.183748
      ESP Fit Center  252 is at   1.924438  1.064148  2.183748
      ESP Fit Center  253 is at   2.843257  3.030327  1.343748
      ESP Fit Center  254 is at   1.896741  3.576798  1.343748
      ESP Fit Center  255 is at   3.510060  3.375819 -0.050593
      ESP Fit Center  256 is at   2.694372  4.082616 -0.050593
      ESP Fit Center  257 is at   4.287223  2.340228 -1.032967
      ESP Fit Center  258 is at   4.050680  3.376591 -1.032967
      ESP Fit Center  259 is at   3.387901  4.207690 -1.032967
      ESP Fit Center  260 is at   4.287223  2.340228 -2.123319
      ESP Fit Center  261 is at   4.050680  3.376591 -2.123319
      ESP Fit Center  262 is at   3.387901  4.207690 -2.123319
      ESP Fit Center  263 is at   0.409399  0.472766 -2.123319
      ESP Fit Center  264 is at   3.387901  0.472766 -2.123319
      ESP Fit Center  265 is at   4.050680  1.303865 -2.123319
      ESP Fit Center  266 is at   3.814137  2.340228 -3.105693
      ESP Fit Center  267 is at   3.510060  3.375819 -3.105693
      ESP Fit Center  268 is at   2.694372  4.082616 -3.105693
      ESP Fit Center  269 is at   1.626048  4.236218 -3.105693
      ESP Fit Center  270 is at   0.644273  0.892599 -3.105693
      ESP Fit Center  271 is at   1.626048  0.444238 -3.105693
      ESP Fit Center  272 is at   2.694372  0.597840 -3.105693
      ESP Fit Center  273 is at   3.510060  1.304637 -3.105693
      ESP Fit Center  274 is at   2.961665  2.340228 -3.785517
      ESP Fit Center  275 is at   2.430158  3.260826 -3.785517
      ESP Fit Center  276 is at   1.367142  3.260826 -3.785517
      ESP Fit Center  277 is at   1.367142  1.419630 -3.785517
      ESP Fit Center  278 is at   2.430158  1.419630 -3.785517
      ESP Fit Center  279 is at   1.898650  2.340228 -4.028143
      ESP Fit Center  280 is at  -1.631530  2.266682 -2.685647
      ESP Fit Center  281 is at   1.138318  4.034929 -3.206708
      ESP Fit Center  282 is at  -1.587066  3.554370 -3.206708
      ESP Fit Center  283 is at  -1.587066  2.461428 -3.206708
      ESP Fit Center  284 is at  -0.884536  1.624185 -3.206708
      ESP Fit Center  285 is at   0.901830  3.007899 -4.046708
      ESP Fit Center  286 is at   0.219499  3.947048 -4.046708
      ESP Fit Center  287 is at  -0.884536  3.588325 -4.046708
      ESP Fit Center  288 is at  -0.884536  2.427473 -4.046708
      ESP Fit Center  289 is at   0.219499  2.068750 -4.046708
      ESP Fit Center  290 is at  -0.085649  3.007899 -4.367559
      ESP Fit Center  291 is at  -0.461105  1.886524  0.305860
      ESP Fit Center  292 is at  -1.962522  2.432995 -0.854991
      ESP Fit Center  293 is at  -1.962522  1.340053 -0.854991
      ESP Fit Center  294 is at  -1.962522  2.432995 -1.893289
      ESP Fit Center  295 is at  -1.962522  1.340053 -1.893289
      ESP Fit Center  296 is at  -1.259992  0.502810 -1.893289
      ESP Fit Center  297 is at  -1.259992  1.306098 -2.733289
      ESP Fit Center  298 is at  -0.155957  0.947375 -2.733289
      ESP Fit Center  299 is at  -1.491286  2.577360  0.308889
      ESP Fit Center  300 is at  -0.559142  2.151664  0.308889
      ESP Fit Center  301 is at   0.054680  3.801430  1.963280
      ESP Fit Center  302 is at   1.042159  3.801430  1.642429
      ESP Fit Center  303 is at   0.359828  4.740579  1.642429
      ESP Fit Center  304 is at  -0.744207  4.381856  1.642429
      ESP Fit Center  305 is at  -0.744207  3.221004  1.642429
      ESP Fit Center  306 is at   0.359828  2.862281  1.642429
      ESP Fit Center  307 is at   1.652455  3.801430  0.802429
      ESP Fit Center  308 is at  -0.744207  2.417716  0.802429
      ESP Fit Center  309 is at  -2.193652  4.585817  0.670757
      ESP Fit Center  310 is at  -2.193652  3.424965  0.670757
      ESP Fit Center  311 is at  -2.896182  4.551862 -0.169243
      ESP Fit Center  312 is at  -2.896182  3.458920 -0.169243
      ESP Fit Center  313 is at  -2.193652  2.621677 -0.169243
      ESP Fit Center  314 is at  -2.896182  3.458920 -1.207541
      ESP Fit Center  315 is at  -2.193652  2.621677 -1.207541
      ESP Fit Center  316 is at  -2.193652  3.424965 -2.047541
      ESP Fit Center  317 is at   0.346283  5.599001  1.207576
      ESP Fit Center  318 is at   1.409298  5.599001  0.964950
      ESP Fit Center  319 is at   0.877791  6.519599  0.964950
      ESP Fit Center  320 is at  -0.185225  6.519599  0.964950
      ESP Fit Center  321 is at  -0.716732  5.599001  0.964950
      ESP Fit Center  322 is at   2.261770  5.599001  0.285126
      ESP Fit Center  323 is at   1.957693  6.634592  0.285126
      ESP Fit Center  324 is at   1.142005  7.341389  0.285126
      ESP Fit Center  325 is at   0.073681  7.494991  0.285126
      ESP Fit Center  326 is at  -0.908094  7.046630  0.285126
      ESP Fit Center  327 is at  -1.491613  6.138656  0.285126
      ESP Fit Center  328 is at   1.957693  4.563410  0.285126
      ESP Fit Center  329 is at   2.734856  5.599001 -0.697248
      ESP Fit Center  330 is at   2.498313  6.635364 -0.697248
      ESP Fit Center  331 is at   1.835534  7.466463 -0.697248
      ESP Fit Center  332 is at   0.877791  7.927688 -0.697248
      ESP Fit Center  333 is at  -0.185225  7.927688 -0.697248
      ESP Fit Center  334 is at   2.498313  4.562638 -0.697248
      ESP Fit Center  335 is at   2.734856  5.599001 -1.787600
      ESP Fit Center  336 is at   2.498313  6.635364 -1.787600
      ESP Fit Center  337 is at   1.835534  7.466463 -1.787600
      ESP Fit Center  338 is at   0.877791  7.927688 -1.787600
      ESP Fit Center  339 is at  -0.185225  7.927688 -1.787600
      ESP Fit Center  340 is at   2.261770  5.599001 -2.769974
      ESP Fit Center  341 is at   1.957693  6.634592 -2.769974
      ESP Fit Center  342 is at   1.957693  4.563410 -2.769974
      ESP Fit Center  343 is at   1.409298  5.599001 -3.449798
      ESP Fit Center  344 is at   0.877791  4.678403 -3.449798
      ESP Fit Center  345 is at   0.695027  5.062314 -3.628996
      ESP Fit Center  346 is at  -0.834922  6.045552 -4.678996
      ESP Fit Center  347 is at  -2.501925  4.627476 -2.702486
      ESP Fit Center  348 is at  -1.799395  3.790233 -2.702486
      ESP Fit Center  349 is at  -2.501925  4.627476 -3.740784
      ESP Fit Center  350 is at  -1.799395  3.790233 -3.740784
      ESP Fit Center  351 is at  -0.013029  5.173947 -4.580784
      ESP Fit Center  352 is at  -1.799395  4.593521 -4.580784
      ESP Fit Center  353 is at  -0.695360  4.234798 -4.580784
      ESP Fit Center  354 is at  -1.000508  5.173947 -4.901635
      ESP Fit Center  355 is at   0.904534  7.823568 -2.666074
      ESP Fit Center  356 is at  -0.041982  8.370039 -2.666074
      ESP Fit Center  357 is at   1.278342  6.796538 -3.704372
      ESP Fit Center  358 is at   0.904534  7.823568 -3.704372
      ESP Fit Center  359 is at  -0.041982  8.370039 -3.704372
      ESP Fit Center  360 is at  -1.118320  8.180252 -3.704372
      ESP Fit Center  361 is at   0.668046  6.796538 -4.544372
      ESP Fit Center  362 is at  -0.014285  7.735687 -4.544372
      ESP Fit Center  363 is at  -0.014285  5.857389 -4.544372
      ESP Fit Center  364 is at  -0.319433  6.796538 -4.865223
      ESP Fit Center  365 is at  -2.158392  6.604052  0.043590
      ESP Fit Center  366 is at  -2.650002  5.877714  0.278366
      ESP Fit Center  367 is at  -3.448889  6.458140 -0.042485
      ESP Fit Center  368 is at  -3.448889  5.297288 -0.042485
      ESP Fit Center  369 is at  -3.448889  4.494000 -0.882485
      ESP Fit Center  370 is at  -4.151419  5.331243 -1.920783
      ESP Fit Center  371 is at  -3.448889  4.494000 -1.920783
      ESP Fit Center  372 is at  -1.976285  7.516221  0.201226
      ESP Fit Center  373 is at  -0.988806  7.516221 -0.119625
      ESP Fit Center  374 is at  -1.671137  8.455370 -0.119625
      ESP Fit Center  375 is at  -2.775172  8.096647 -0.119625
      ESP Fit Center  376 is at  -0.752318  8.543251 -0.959625
      ESP Fit Center  377 is at  -1.698834  9.089722 -0.959625
      ESP Fit Center  378 is at  -2.775172  8.899935 -0.959625
      ESP Fit Center  379 is at  -0.752318  8.543251 -1.997923
      ESP Fit Center  380 is at  -1.698834  9.089722 -1.997923
      ESP Fit Center  381 is at  -1.768630  8.867244 -2.937529
      ESP Fit Center  382 is at  -2.726373  9.328469 -2.937529
      ESP Fit Center  383 is at  -4.747132  5.132320 -2.937529
      ESP Fit Center  384 is at  -3.789389  4.671095 -2.937529
      ESP Fit Center  385 is at  -2.726373  4.671095 -2.937529
      ESP Fit Center  386 is at  -1.105851  8.036145 -4.027881
      ESP Fit Center  387 is at  -1.768630  8.867244 -4.027881
      ESP Fit Center  388 is at  -2.726373  9.328469 -4.027881
      ESP Fit Center  389 is at  -3.789389  9.328469 -4.027881
      ESP Fit Center  390 is at  -5.409911  5.963419 -4.027881
      ESP Fit Center  391 is at  -4.747132  5.132320 -4.027881
      ESP Fit Center  392 is at  -3.789389  4.671095 -4.027881
      ESP Fit Center  393 is at  -2.726373  4.671095 -4.027881
      ESP Fit Center  394 is at  -1.342394  6.999782 -5.010255
      ESP Fit Center  395 is at  -1.646471  8.035373 -5.010255
      ESP Fit Center  396 is at  -2.462159  8.742170 -5.010255
      ESP Fit Center  397 is at  -3.530483  8.895772 -5.010255
      ESP Fit Center  398 is at  -4.512258  8.447411 -5.010255
      ESP Fit Center  399 is at  -5.095777  7.539437 -5.010255
      ESP Fit Center  400 is at  -5.095777  6.460127 -5.010255
      ESP Fit Center  401 is at  -4.512258  5.552153 -5.010255
      ESP Fit Center  402 is at  -3.530483  5.103792 -5.010255
      ESP Fit Center  403 is at  -2.462159  5.257394 -5.010255
      ESP Fit Center  404 is at  -1.646471  5.964191 -5.010255
      ESP Fit Center  405 is at  -2.194866  6.999782 -5.690079
      ESP Fit Center  406 is at  -2.726373  7.920380 -5.690079
      ESP Fit Center  407 is at  -3.789389  7.920380 -5.690079
      ESP Fit Center  408 is at  -4.320896  6.999782 -5.690079
      ESP Fit Center  409 is at  -3.789389  6.079184 -5.690079
      ESP Fit Center  410 is at  -2.726373  6.079184 -5.690079
      ESP Fit Center  411 is at  -3.257881  6.999782 -5.932705
      ESP Fit Center  412 is at  -5.826786  9.238762 -1.574673
      ESP Fit Center  413 is at  -5.380491  9.827850 -2.624673
      ESP Fit Center  414 is at  -3.880325  9.518621 -3.674673
      ESP Fit Center  415 is at  -4.215533  8.688309 -0.356397
      ESP Fit Center  416 is at  -3.228054  8.688309 -0.677248
      ESP Fit Center  417 is at  -3.910385  9.627458 -0.677248
      ESP Fit Center  418 is at  -5.014420  9.268735 -0.677248
      ESP Fit Center  419 is at  -2.991566  9.715339 -1.517248
      ESP Fit Center  420 is at  -3.938082 10.261810 -1.517248
      ESP Fit Center  421 is at  -5.014420 10.072023 -1.517248
      ESP Fit Center  422 is at  -2.991566  9.715339 -2.555546
      ESP Fit Center  423 is at  -3.938082 10.261810 -2.555546
      ESP Fit Center  424 is at  -5.014420 10.072023 -2.555546
      ESP Fit Center  425 is at  -6.016351  9.698425 -2.916978
      ESP Fit Center  426 is at  -6.718881  8.861182 -2.916978
      ESP Fit Center  427 is at  -4.940013  9.888212 -3.955276
      ESP Fit Center  428 is at  -6.016351  9.698425 -3.955276
      ESP Fit Center  429 is at  -6.718881  8.861182 -3.955276
      ESP Fit Center  430 is at  -6.718881  7.768240 -3.955276
      ESP Fit Center  431 is at  -6.016351  6.930997 -3.955276
      ESP Fit Center  432 is at  -4.912316  9.253860 -4.795276
      ESP Fit Center  433 is at  -6.016351  8.895137 -4.795276
      ESP Fit Center  434 is at  -6.016351  7.734285 -4.795276
      ESP Fit Center  435 is at  -5.217464  8.314711 -5.116127
      ESP Fit Center  436 is at  -5.000358  7.878340  0.055952
      ESP Fit Center  437 is at  -6.716323  5.594567 -0.712701
      ESP Fit Center  438 is at  -7.564336  6.466450 -1.762701
      ESP Fit Center  439 is at  -7.270343  7.481387 -2.812701
      ESP Fit Center  440 is at  -7.461889  5.613172 -1.838149
      ESP Fit Center  441 is at  -6.759359  4.775929 -1.838149
      ESP Fit Center  442 is at  -5.683021  4.586142 -1.838149
      ESP Fit Center  443 is at  -7.461889  6.706114 -2.876447
      ESP Fit Center  444 is at  -7.461889  5.613172 -2.876447
      ESP Fit Center  445 is at  -6.759359  4.775929 -2.876447
      ESP Fit Center  446 is at  -5.683021  4.586142 -2.876447
      ESP Fit Center  447 is at  -4.736505  5.132613 -2.876447
      ESP Fit Center  448 is at  -6.759359  6.740069 -3.716447
      ESP Fit Center  449 is at  -6.759359  5.579217 -3.716447
      ESP Fit Center  450 is at  -5.655324  5.220494 -3.716447
      ESP Fit Center  451 is at  -5.960472  6.159643 -4.037298
      ESP Fit Center  452 is at  -4.965790  6.518922  0.744167
      ESP Fit Center  453 is at  -3.978311  6.518922  0.423316
      ESP Fit Center  454 is at  -4.660642  7.458071  0.423316
      ESP Fit Center  455 is at  -5.764677  7.099348  0.423316
      ESP Fit Center  456 is at  -5.764677  5.938496  0.423316
      ESP Fit Center  457 is at  -4.660642  5.579773  0.423316
      ESP Fit Center  458 is at  -3.741823  7.545952 -0.416684
      ESP Fit Center  459 is at  -5.764677  5.135208 -0.416684
      ESP Fit Center  460 is at  -4.688339  4.945421 -0.416684
      ESP Fit Center  461 is at  -4.688339  4.945421 -1.454982
      ESP Fit Center  462 is at  -6.343973  7.555725  0.353122
      ESP Fit Center  463 is at  -6.038825  8.494874  0.032271
      ESP Fit Center  464 is at  -7.142860  8.136151  0.032271
      ESP Fit Center  465 is at  -7.142860  6.975299  0.032271
      ESP Fit Center  466 is at  -6.066522  9.129226 -0.807729
      ESP Fit Center  467 is at  -7.142860  8.939439 -0.807729
      ESP Fit Center  468 is at  -7.845390  8.102196 -0.807729
      ESP Fit Center  469 is at  -7.845390  7.009254 -0.807729
      ESP Fit Center  470 is at  -7.142860  8.939439 -1.846027
      ESP Fit Center  471 is at  -7.845390  8.102196 -1.846027
      ESP Fit Center  472 is at  -7.845390  7.009254 -1.846027
      ESP Fit Center  473 is at  -7.142860  8.136151 -2.686027
      ESP Fit Center  474 is at  -0.134105 -6.525187  5.933974
      ESP Fit Center  475 is at   0.907215 -6.525187  5.933974
      ESP Fit Center  476 is at  -1.072303 -7.452727  4.305699
      ESP Fit Center  477 is at  -1.072303 -7.452727  3.237599
      ESP Fit Center  478 is at   0.119516 -7.480674  2.275273
      ESP Fit Center  479 is at   1.965079 -6.637833  2.275273
      ESP Fit Center  480 is at  -0.567178 -5.584481  6.228455
      ESP Fit Center  481 is at  -1.527178 -5.584481  5.971224
      ESP Fit Center  482 is at  -1.047178 -6.415865  5.971224
      ESP Fit Center  483 is at  -2.229947 -5.584481  5.268455
      ESP Fit Center  484 is at  -1.912386 -6.561832  5.268455
      ESP Fit Center  485 is at  -1.081002 -7.165868  5.268455
      ESP Fit Center  486 is at  -2.487178 -5.584481  4.308455
      ESP Fit Center  487 is at  -2.229947 -6.544481  4.308455
      ESP Fit Center  488 is at  -1.527178 -7.247250  4.308455
      ESP Fit Center  489 is at  -1.912386 -4.607130  3.348455
      ESP Fit Center  490 is at  -2.229947 -5.584481  3.348455
      ESP Fit Center  491 is at  -1.912386 -6.561832  3.348455
      ESP Fit Center  492 is at   1.839253 -5.582298  1.737822
      ESP Fit Center  493 is at   1.521692 -4.604947  1.737822
      ESP Fit Center  494 is at   0.690308 -4.000911  1.737822
      ESP Fit Center  495 is at  -0.337340 -4.000911  1.737822
      ESP Fit Center  496 is at  -1.168724 -4.604947  1.737822
      ESP Fit Center  497 is at  -1.486285 -5.582298  1.737822
      ESP Fit Center  498 is at  -1.168724 -6.559649  1.737822
      ESP Fit Center  499 is at  -0.337340 -7.163685  1.737822
      ESP Fit Center  500 is at   0.690308 -7.163685  1.737822
      ESP Fit Center  501 is at   1.521692 -6.559649  1.737822
      ESP Fit Center  502 is at   1.136484 -5.582298  1.035053
      ESP Fit Center  503 is at   0.656484 -4.750914  1.035053
      ESP Fit Center  504 is at  -0.303516 -4.750914  1.035053
      ESP Fit Center  505 is at  -0.783516 -5.582298  1.035053
      ESP Fit Center  506 is at  -0.303516 -6.413682  1.035053
      ESP Fit Center  507 is at   0.656484 -6.413682  1.035053
      ESP Fit Center  508 is at   0.176484 -5.582298  0.777822
      ESP Fit Center  509 is at   1.815481 -6.588823  5.658148
      ESP Fit Center  510 is at   0.375481 -7.420207  5.658148
      ESP Fit Center  511 is at   1.335481 -7.420207  5.658148
      ESP Fit Center  512 is at   2.518250 -6.588823  4.955379
      ESP Fit Center  513 is at  -0.489727 -7.566174  4.955379
      ESP Fit Center  514 is at   0.341657 -8.170210  4.955379
      ESP Fit Center  515 is at   1.369305 -8.170210  4.955379
      ESP Fit Center  516 is at   2.200689 -7.566174  4.955379
      ESP Fit Center  517 is at   2.775481 -6.588823  3.995379
      ESP Fit Center  518 is at  -0.104519 -8.251592  3.995379
      ESP Fit Center  519 is at   0.855481 -8.508823  3.995379
      ESP Fit Center  520 is at   1.815481 -8.251592  3.995379
      ESP Fit Center  521 is at   2.518250 -7.548823  3.995379
      ESP Fit Center  522 is at   2.518250 -6.588823  3.035379
      ESP Fit Center  523 is at   0.341657 -8.170210  3.035379
      ESP Fit Center  524 is at   1.369305 -8.170210  3.035379
      ESP Fit Center  525 is at   2.200689 -7.566174  3.035379
      ESP Fit Center  526 is at   1.335481 -7.420207  2.332610
      ESP Fit Center  527 is at   3.426098 -3.466564  4.709023
      ESP Fit Center  528 is at   2.776845 -6.311127  4.709023
      ESP Fit Center  529 is at   1.534018 -4.521990  7.175325
      ESP Fit Center  530 is at   2.494018 -4.521990  6.918094
      ESP Fit Center  531 is at   2.014018 -3.690606  6.918094
      ESP Fit Center  532 is at   0.574018 -4.521990  6.918094
      ESP Fit Center  533 is at   1.054018 -5.353374  6.918094
      ESP Fit Center  534 is at   2.014018 -5.353374  6.918094
      ESP Fit Center  535 is at   3.196787 -4.521990  6.215325
      ESP Fit Center  536 is at   2.879226 -3.544639  6.215325
      ESP Fit Center  537 is at   0.188810 -5.499341  6.215325
      ESP Fit Center  538 is at   1.020194 -6.103377  6.215325
      ESP Fit Center  539 is at   2.047842 -6.103377  6.215325
      ESP Fit Center  540 is at   2.879226 -5.499341  6.215325
      ESP Fit Center  541 is at   3.935237 -4.573401  4.605459
      ESP Fit Center  542 is at   3.617676 -3.596050  4.605459
      ESP Fit Center  543 is at   3.617676 -5.550752  4.605459
      ESP Fit Center  544 is at   4.192468 -4.573401  3.645459
      ESP Fit Center  545 is at   3.935237 -3.613401  3.645459
      ESP Fit Center  546 is at   3.232468 -2.910632  3.645459
      ESP Fit Center  547 is at   3.232468 -6.236170  3.645459
      ESP Fit Center  548 is at   3.935237 -5.533401  3.645459
      ESP Fit Center  549 is at   3.935237 -4.573401  2.685459
      ESP Fit Center  550 is at   3.617676 -3.596050  2.685459
      ESP Fit Center  551 is at   2.786292 -2.992014  2.685459
      ESP Fit Center  552 is at   2.786292 -6.154788  2.685459
      ESP Fit Center  553 is at   3.617676 -5.550752  2.685459
      ESP Fit Center  554 is at   3.232468 -4.573401  1.982690
      ESP Fit Center  555 is at   2.752468 -3.742017  1.982690
      ESP Fit Center  556 is at   2.752468 -5.404785  1.982690
      ESP Fit Center  557 is at   2.272468 -4.573401  1.725459
      ESP Fit Center  558 is at   2.238001 -2.163342  5.227748
      ESP Fit Center  559 is at   2.754860 -2.177852  4.329578
      ESP Fit Center  560 is at   2.061729 -1.395468  4.329578
      ESP Fit Center  561 is at   2.754860 -2.177852  3.332684
      ESP Fit Center  562 is at   2.061729 -1.395468  3.332684
      ESP Fit Center  563 is at   2.238001 -2.163342  2.434514
      ESP Fit Center  564 is at   1.793067 -3.192732  1.812961
      ESP Fit Center  565 is at   1.307117 -4.034422  1.812961
      ESP Fit Center  566 is at  -1.977038 -2.162668  6.202016
      ESP Fit Center  567 is at  -0.443689 -4.548607  6.202016
      ESP Fit Center  568 is at   1.931461 -1.676097  5.239690
      ESP Fit Center  569 is at   0.228083 -2.603909  7.650052
      ESP Fit Center  570 is at   1.188083 -2.603909  7.392821
      ESP Fit Center  571 is at   0.708083 -1.772525  7.392821
      ESP Fit Center  572 is at  -0.251917 -1.772525  7.392821
      ESP Fit Center  573 is at  -0.731917 -2.603909  7.392821
      ESP Fit Center  574 is at  -0.251917 -3.435293  7.392821
      ESP Fit Center  575 is at   0.708083 -3.435293  7.392821
      ESP Fit Center  576 is at   1.890852 -2.603909  6.690052
      ESP Fit Center  577 is at   1.573291 -1.626558  6.690052
      ESP Fit Center  578 is at   0.741907 -1.022522  6.690052
      ESP Fit Center  579 is at  -0.285741 -4.185296  6.690052
      ESP Fit Center  580 is at   2.148083 -2.603909  5.730052
      ESP Fit Center  581 is at   1.890852 -1.643909  5.730052
      ESP Fit Center  582 is at  -2.013837 -3.353704  6.407064
      ESP Fit Center  583 is at  -1.533837 -4.185088  6.407064
      ESP Fit Center  584 is at  -2.399045 -2.376353  5.704295
      ESP Fit Center  585 is at  -2.716606 -3.353704  5.704295
      ESP Fit Center  586 is at  -2.399045 -4.331055  5.704295
      ESP Fit Center  587 is at  -2.716606 -2.393704  4.744295
      ESP Fit Center  588 is at  -2.973837 -3.353704  4.744295
      ESP Fit Center  589 is at  -2.716606 -4.313704  4.744295
      ESP Fit Center  590 is at  -2.716606 -3.353704  3.784295
      ESP Fit Center  591 is at  -2.399045 -4.331055  3.784295
      ESP Fit Center  592 is at  -1.533837 -4.185088  3.081526
      ESP Fit Center  593 is at   0.155519  0.389725  5.721475
      ESP Fit Center  594 is at  -2.732075 -2.332317  4.759149
      ESP Fit Center  595 is at  -1.144624  0.964059  3.691049
      ESP Fit Center  596 is at  -1.210662 -0.845388  6.942298
      ESP Fit Center  597 is at  -0.250662 -0.845388  6.685067
      ESP Fit Center  598 is at  -0.730662 -0.014004  6.685067
      ESP Fit Center  599 is at  -1.690662 -0.014004  6.685067
      ESP Fit Center  600 is at  -2.170662 -0.845388  6.685067
      ESP Fit Center  601 is at  -1.690662 -1.676772  6.685067
      ESP Fit Center  602 is at   0.134546  0.131963  5.982298
      ESP Fit Center  603 is at  -0.696838  0.735999  5.982298
      ESP Fit Center  604 is at  -1.724486  0.735999  5.982298
      ESP Fit Center  605 is at  -2.555870  0.131963  5.982298
      ESP Fit Center  606 is at  -2.873431 -0.845388  5.982298
      ESP Fit Center  607 is at  -2.555870 -1.822739  5.982298
      ESP Fit Center  608 is at  -1.210662  1.074612  5.022298
      ESP Fit Center  609 is at  -2.170662  0.817381  5.022298
      ESP Fit Center  610 is at  -2.873431  0.114612  5.022298
      ESP Fit Center  611 is at  -3.130662 -0.845388  5.022298
      ESP Fit Center  612 is at  -2.873431 -1.805388  5.022298
      ESP Fit Center  613 is at   1.223367 -0.692456  5.705970
      ESP Fit Center  614 is at   0.743367  0.138928  5.705970
      ESP Fit Center  615 is at   1.926136 -0.692456  5.003201
      ESP Fit Center  616 is at   1.608575  0.284895  5.003201
      ESP Fit Center  617 is at   0.777191  0.888931  5.003201
      ESP Fit Center  618 is at   2.183367 -0.692456  4.043201
      ESP Fit Center  619 is at   1.926136  0.267544  4.043201
      ESP Fit Center  620 is at   1.223367  0.970313  4.043201
      ESP Fit Center  621 is at   0.263367  1.227544  4.043201
      ESP Fit Center  622 is at   1.926136 -0.692456  3.083201
      ESP Fit Center  623 is at   1.608575  0.284895  3.083201
      ESP Fit Center  624 is at  -3.223924 -1.365361  4.485324
      ESP Fit Center  625 is at  -2.889455 -2.394751  4.485324
      ESP Fit Center  626 is at  -2.247021  0.676563  3.587154
      ESP Fit Center  627 is at  -3.107248  0.082792  3.587154
      ESP Fit Center  628 is at  -3.593001 -0.842734  3.587154
      ESP Fit Center  629 is at  -3.593001 -1.887988  3.587154
      ESP Fit Center  630 is at  -3.107248 -2.813514  3.587154
      ESP Fit Center  631 is at  -3.107248  0.082792  2.590260
      ESP Fit Center  632 is at  -3.593001 -0.842734  2.590260
      ESP Fit Center  633 is at  -3.593001 -1.887988  2.590260
      ESP Fit Center  634 is at  -3.107248 -2.813514  2.590260
      ESP Fit Center  635 is at  -2.247021 -3.407285  2.590260
      ESP Fit Center  636 is at  -3.223924 -1.365361  1.692090
      ESP Fit Center  637 is at  -1.333650 -3.678519  2.358663
      ESP Fit Center  638 is at  -0.033507 -3.104185  0.328237
      ESP Fit Center  639 is at  -0.292330 -2.299166 -0.337712
      ESP Fit Center  640 is at  -2.816430 -2.916551  2.097504
      ESP Fit Center  641 is at  -1.985046 -3.520587  2.097504
      ESP Fit Center  642 is at  -3.133991 -0.979200  1.137504
      ESP Fit Center  643 is at  -3.391222 -1.939200  1.137504
      ESP Fit Center  644 is at  -3.133991 -2.899200  1.137504
      ESP Fit Center  645 is at  -2.431222 -3.601969  1.137504
      ESP Fit Center  646 is at  -1.471222 -3.859200  1.137504
      ESP Fit Center  647 is at  -2.816430 -0.961849  0.177504
      ESP Fit Center  648 is at  -3.133991 -1.939200  0.177504
      ESP Fit Center  649 is at  -2.816430 -2.916551  0.177504
      ESP Fit Center  650 is at  -1.985046 -3.520587  0.177504
      ESP Fit Center  651 is at  -0.957398 -3.520587  0.177504
      ESP Fit Center  652 is at  -1.951222 -1.107816 -0.525265
      ESP Fit Center  653 is at  -2.431222 -1.939200 -0.525265
      ESP Fit Center  654 is at  -1.951222 -2.770584 -0.525265
      ESP Fit Center  655 is at  -0.991222 -2.770584 -0.525265
      ESP Fit Center  656 is at  -1.471222 -1.939200 -0.782496
      ESP Fit Center  657 is at   0.646668 -3.526991  0.926803
      ESP Fit Center  658 is at   1.478052 -2.922955  0.926803
      ESP Fit Center  659 is at   0.612844 -2.776988  0.224034
      ESP Fit Center  660 is at  -1.121346  2.304997  1.825515
      ESP Fit Center  661 is at   0.477535  1.448340  3.662540
      ESP Fit Center  662 is at  -0.482465  1.448340  3.662540
      ESP Fit Center  663 is at   1.660304  0.616956  2.959771
      ESP Fit Center  664 is at   1.342743  1.594307  2.959771
      ESP Fit Center  665 is at   0.511359  2.198343  2.959771
      ESP Fit Center  666 is at  -0.516289  2.198343  2.959771
      ESP Fit Center  667 is at  -1.347673  1.594307  2.959771
      ESP Fit Center  668 is at  -0.002465  2.536956  1.999771
      ESP Fit Center  669 is at  -2.051004  1.351266  2.849078
      ESP Fit Center  670 is at  -2.084828  2.101269  2.146309
      ESP Fit Center  671 is at  -2.916212  1.497233  2.146309
      ESP Fit Center  672 is at  -3.233773  0.519882  2.146309
      ESP Fit Center  673 is at  -1.571004  2.439882  1.186309
      ESP Fit Center  674 is at  -2.531004  2.182651  1.186309
      ESP Fit Center  675 is at  -3.233773  1.479882  1.186309
      ESP Fit Center  676 is at  -3.491004  0.519882  1.186309
      ESP Fit Center  677 is at  -3.233773 -0.440118  1.186309
      ESP Fit Center  678 is at  -2.084828  2.101269  0.226309
      ESP Fit Center  679 is at  -2.916212  1.497233  0.226309
      ESP Fit Center  680 is at  -3.233773  0.519882  0.226309
      ESP Fit Center  681 is at  -2.916212 -0.457469  0.226309
      ESP Fit Center  682 is at  -2.531004  0.519882 -0.476460
      ESP Fit Center  683 is at  -2.120380 -0.522627 -0.498447
      ESP Fit Center  684 is at   0.263233 -2.167916 -0.498447
      ESP Fit Center  685 is at  -1.751303  0.000000 -1.396617
      ESP Fit Center  686 is at  -1.416834 -1.029390 -1.396617
      ESP Fit Center  687 is at  -0.541182 -1.665588 -1.396617
      ESP Fit Center  688 is at  -0.971900  0.000000 -2.018170
      ESP Fit Center  689 is at  -0.485950 -0.841690 -2.018170
      ESP Fit Center  690 is at   0.000000  0.000000 -2.240000
      ESP Fit Center  691 is at   0.904095 -2.281163 -0.534050
      ESP Fit Center  692 is at   3.655328 -0.536118 -0.902213
      ESP Fit Center  693 is at   0.775328 -2.198887 -0.902213
      ESP Fit Center  694 is at   1.735328 -2.456118 -0.902213
      ESP Fit Center  695 is at   2.695328 -2.198887 -0.902213
      ESP Fit Center  696 is at   3.398097 -1.496118 -0.902213
      ESP Fit Center  697 is at   3.398097 -0.536118 -1.862213
      ESP Fit Center  698 is at   0.390120 -1.513469 -1.862213
      ESP Fit Center  699 is at   1.221504 -2.117505 -1.862213
      ESP Fit Center  700 is at   2.249152 -2.117505 -1.862213
      ESP Fit Center  701 is at   3.080536 -1.513469 -1.862213
      ESP Fit Center  702 is at   2.695328 -0.536118 -2.564982
      ESP Fit Center  703 is at   0.775328 -0.536118 -2.564982
      ESP Fit Center  704 is at   1.255328 -1.367502 -2.564982
      ESP Fit Center  705 is at   2.215328 -1.367502 -2.564982
      ESP Fit Center  706 is at   1.735328 -0.536118 -2.822213
      ESP Fit Center  707 is at   1.807276 -0.554439  2.791735
      ESP Fit Center  708 is at   2.767276 -0.554439  2.534504
      ESP Fit Center  709 is at   2.287276  0.276945  2.534504
      ESP Fit Center  710 is at   2.287276 -1.385823  2.534504
      ESP Fit Center  711 is at   3.470045 -0.554439  1.831735
      ESP Fit Center  712 is at   2.321100 -2.135826  1.831735
      ESP Fit Center  713 is at   3.152484 -1.531790  1.831735
      ESP Fit Center  714 is at   3.727276 -0.554439  0.871735
      ESP Fit Center  715 is at   1.807276 -2.474439  0.871735
      ESP Fit Center  716 is at   2.767276 -2.217208  0.871735
      ESP Fit Center  717 is at   3.470045 -1.514439  0.871735
      ESP Fit Center  718 is at   3.069386  1.407284  2.162325
      ESP Fit Center  719 is at   4.068117  1.330755  1.835740
      ESP Fit Center  720 is at   3.588117  2.162139  1.835740
      ESP Fit Center  721 is at   3.588117  0.499371  1.835740
      ESP Fit Center  722 is at   4.770886  1.330755  1.132971
      ESP Fit Center  723 is at   4.453325  2.308106  1.132971
      ESP Fit Center  724 is at   3.621941  2.912142  1.132971
      ESP Fit Center  725 is at   4.453325  0.353404  1.132971
      ESP Fit Center  726 is at   5.028117  1.330755  0.172971
      ESP Fit Center  727 is at   4.770886  2.290755  0.172971
      ESP Fit Center  728 is at   4.068117  2.993524  0.172971
      ESP Fit Center  729 is at   4.068117 -0.332014  0.172971
      ESP Fit Center  730 is at   4.770886  0.370755  0.172971
      ESP Fit Center  731 is at   4.770886  1.330755 -0.787029
      ESP Fit Center  732 is at   4.453325  0.353404 -0.787029
      ESP Fit Center  733 is at   1.619290  2.003297  2.744599
      ESP Fit Center  734 is at   2.579290  2.003297  2.487368
      ESP Fit Center  735 is at   2.099290  2.834681  2.487368
      ESP Fit Center  736 is at   1.139290  2.834681  2.487368
      ESP Fit Center  737 is at   2.099290  1.171913  2.487368
      ESP Fit Center  738 is at   2.964498  2.980648  1.784599
      ESP Fit Center  739 is at   2.133114  3.584684  1.784599
      ESP Fit Center  740 is at   2.579290  3.666066  0.824599
      ESP Fit Center  741 is at   3.613293  3.330177  0.401756
      ESP Fit Center  742 is at   2.888599  4.054871  0.401756
      ESP Fit Center  743 is at   4.261867  3.392400 -0.506629
      ESP Fit Center  744 is at   3.629599  4.262642 -0.506629
      ESP Fit Center  745 is at   4.698650  2.340228 -1.578143
      ESP Fit Center  746 is at   4.509572  3.351705 -1.578143
      ESP Fit Center  747 is at   3.967875  4.226576 -1.578143
      ESP Fit Center  748 is at   3.146717  4.846685 -1.578143
      ESP Fit Center  749 is at   3.967875  0.453880 -1.578143
      ESP Fit Center  750 is at   4.509572  1.328751 -1.578143
      ESP Fit Center  751 is at   4.485513  2.340228 -2.649657
      ESP Fit Center  752 is at   4.261867  3.392400 -2.649657
      ESP Fit Center  753 is at   3.629599  4.262642 -2.649657
      ESP Fit Center  754 is at   2.698035  4.800481 -2.649657
      ESP Fit Center  755 is at   0.605219  0.099939 -2.649657
      ESP Fit Center  756 is at   2.698035 -0.120025 -2.649657
      ESP Fit Center  757 is at   3.629599  0.417814 -2.649657
      ESP Fit Center  758 is at   4.261867  1.288056 -2.649657
      ESP Fit Center  759 is at   3.878549  2.340228 -3.558042
      ESP Fit Center  760 is at   3.613293  3.330177 -3.558042
      ESP Fit Center  761 is at   2.888599  4.054871 -3.558042
      ESP Fit Center  762 is at   1.898650  4.320127 -3.558042
      ESP Fit Center  763 is at   0.908701  0.625585 -3.558042
      ESP Fit Center  764 is at   1.898650  0.360329 -3.558042
      ESP Fit Center  765 is at   2.888599  0.625585 -3.558042
      ESP Fit Center  766 is at   3.613293  1.350279 -3.558042
      ESP Fit Center  767 is at   2.970164  2.340228 -4.165006
      ESP Fit Center  768 is at   2.434407  3.268186 -4.165006
      ESP Fit Center  769 is at   1.362893  3.268186 -4.165006
      ESP Fit Center  770 is at   1.362893  1.412270 -4.165006
      ESP Fit Center  771 is at   2.434407  1.412270 -4.165006
      ESP Fit Center  772 is at   1.898650  2.340228 -4.378143
      ESP Fit Center  773 is at  -2.226372  2.779056 -2.169697
      ESP Fit Center  774 is at  -1.115323  1.360971 -3.132023
      ESP Fit Center  775 is at  -0.153584  0.921759 -3.132023
      ESP Fit Center  776 is at  -1.748418  3.007899 -3.647559
      ESP Fit Center  777 is at  -1.430857  2.030548 -3.647559
      ESP Fit Center  778 is at  -0.599473  1.426512 -3.647559
      ESP Fit Center  779 is at   0.874351  3.007899 -4.350328
      ESP Fit Center  780 is at   0.394351  3.839283 -4.350328
      ESP Fit Center  781 is at  -1.045649  3.007899 -4.350328
      ESP Fit Center  782 is at  -0.565649  2.176515 -4.350328
      ESP Fit Center  783 is at   0.394351  2.176515 -4.350328
      ESP Fit Center  784 is at  -0.085649  3.007899 -4.607559
      ESP Fit Center  785 is at  -2.123874  1.886524 -0.414140
      ESP Fit Center  786 is at  -2.381105  1.886524 -1.374140
      ESP Fit Center  787 is at  -2.123874  0.926524 -1.374140
      ESP Fit Center  788 is at  -2.123874  1.886524 -2.334140
      ESP Fit Center  789 is at  -1.806313  0.909173 -2.334140
      ESP Fit Center  790 is at  -0.974929  0.305137 -2.334140
      ESP Fit Center  791 is at   0.052719  0.305137 -2.334140
      ESP Fit Center  792 is at  -0.941105  1.055140 -3.036909
      ESP Fit Center  793 is at  -1.529099  2.533721  0.755265
      ESP Fit Center  794 is at   0.054680  3.801430  2.203280
      ESP Fit Center  795 is at   1.014680  3.801430  1.946049
      ESP Fit Center  796 is at   0.534680  4.632814  1.946049
      ESP Fit Center  797 is at  -0.425320  4.632814  1.946049
      ESP Fit Center  798 is at  -0.905320  3.801430  1.946049
      ESP Fit Center  799 is at  -0.425320  2.970046  1.946049
      ESP Fit Center  800 is at   1.399888  4.778781  1.243280
      ESP Fit Center  801 is at  -1.290528  2.824079  1.243280
      ESP Fit Center  802 is at  -1.874765  4.836775  0.974377
      ESP Fit Center  803 is at  -2.354765  4.005391  0.974377
      ESP Fit Center  804 is at  -1.874765  3.174007  0.974377
      ESP Fit Center  805 is at  -3.057534  4.005391  0.271608
      ESP Fit Center  806 is at  -2.739973  3.028040  0.271608
      ESP Fit Center  807 is at  -1.908589  2.424004  0.271608
      ESP Fit Center  808 is at  -3.314765  4.005391 -0.688392
      ESP Fit Center  809 is at  -3.057534  3.045391 -0.688392
      ESP Fit Center  810 is at  -2.354765  2.342622 -0.688392
      ESP Fit Center  811 is at  -3.057534  4.005391 -1.648392
      ESP Fit Center  812 is at  -2.739973  3.028040 -1.648392
      ESP Fit Center  813 is at  -2.354765  4.005391 -2.351161
      ESP Fit Center  814 is at   0.346283  5.599001  1.557576
      ESP Fit Center  815 is at   1.417797  5.599001  1.344439
      ESP Fit Center  816 is at   0.882040  6.526959  1.344439
      ESP Fit Center  817 is at  -0.189474  6.526959  1.344439
      ESP Fit Center  818 is at  -0.725231  5.599001  1.344439
      ESP Fit Center  819 is at   2.326182  5.599001  0.737475
      ESP Fit Center  820 is at   2.060926  6.588950  0.737475
      ESP Fit Center  821 is at   1.336232  7.313644  0.737475
      ESP Fit Center  822 is at   0.346283  7.578900  0.737475
      ESP Fit Center  823 is at  -0.643666  7.313644  0.737475
      ESP Fit Center  824 is at  -1.368360  6.588950  0.737475
      ESP Fit Center  825 is at  -1.633616  5.599001  0.737475
      ESP Fit Center  826 is at   2.060926  4.609052  0.737475
      ESP Fit Center  827 is at   2.933146  5.599001 -0.170910
      ESP Fit Center  828 is at   2.709500  6.651173 -0.170910
      ESP Fit Center  829 is at   2.077232  7.521415 -0.170910
      ESP Fit Center  830 is at   1.145668  8.059254 -0.170910
      ESP Fit Center  831 is at   0.075882  8.171693 -0.170910
      ESP Fit Center  832 is at   3.146283  5.599001 -1.242424
      ESP Fit Center  833 is at   2.957205  6.610478 -1.242424
      ESP Fit Center  834 is at   2.415508  7.485349 -1.242424
      ESP Fit Center  835 is at   1.594350  8.105458 -1.242424
      ESP Fit Center  836 is at   0.604634  8.387057 -1.242424
      ESP Fit Center  837 is at   2.933146  5.599001 -2.313938
      ESP Fit Center  838 is at   2.709500  6.651173 -2.313938
      ESP Fit Center  839 is at   2.077232  7.521415 -2.313938
      ESP Fit Center  840 is at   1.145668  8.059254 -2.313938
      ESP Fit Center  841 is at   2.326182  5.599001 -3.222323
      ESP Fit Center  842 is at   2.060926  6.588950 -3.222323
      ESP Fit Center  843 is at   2.060926  4.609052 -3.222323
      ESP Fit Center  844 is at   1.417797  5.599001 -3.829287
      ESP Fit Center  845 is at   0.882040  4.671043 -3.829287
      ESP Fit Center  846 is at   0.743602  5.031096 -4.075372
      ESP Fit Center  847 is at  -0.834922  6.045552 -4.978996
      ESP Fit Center  848 is at  -2.663277  4.213947 -3.221635
      ESP Fit Center  849 is at  -1.960508  3.511178 -3.221635
      ESP Fit Center  850 is at  -2.345716  4.196596 -4.181635
      ESP Fit Center  851 is at  -1.514332  3.592560 -4.181635
      ESP Fit Center  852 is at   0.344700  4.196596 -4.181635
      ESP Fit Center  853 is at  -0.040508  5.173947 -4.884404
      ESP Fit Center  854 is at  -1.480508  4.342563 -4.884404
      ESP Fit Center  855 is at  -0.520508  4.342563 -4.884404
      ESP Fit Center  856 is at  -1.000508  5.173947 -5.141635
      ESP Fit Center  857 is at   0.194391  8.377925 -2.225223
      ESP Fit Center  858 is at   1.343336  7.756538 -3.185223
      ESP Fit Center  859 is at   0.640567  8.459307 -3.185223
      ESP Fit Center  860 is at  -0.319433  8.716538 -3.185223
      ESP Fit Center  861 is at   1.343336  6.796538 -4.145223
      ESP Fit Center  862 is at   1.025775  7.773889 -4.145223
      ESP Fit Center  863 is at   0.194391  8.377925 -4.145223
      ESP Fit Center  864 is at  -0.833257  8.377925 -4.145223
      ESP Fit Center  865 is at   1.025775  5.819187 -4.145223
      ESP Fit Center  866 is at   0.640567  6.796538 -4.847992
      ESP Fit Center  867 is at   0.160567  7.627922 -4.847992
      ESP Fit Center  868 is at  -0.799433  7.627922 -4.847992
      ESP Fit Center  869 is at   0.160567  5.965154 -4.847992
      ESP Fit Center  870 is at  -0.319433  6.796538 -5.105223
      ESP Fit Center  871 is at  -2.158392  6.604052  0.343590
      ESP Fit Center  872 is at  -2.679052  4.322889 -2.590460
      ESP Fit Center  873 is at  -2.650002  5.877714  0.518366
      ESP Fit Center  874 is at  -3.130002  6.709098  0.261135
      ESP Fit Center  875 is at  -3.130002  5.046330  0.261135
      ESP Fit Center  876 is at  -3.995210  4.900363 -0.441634
      ESP Fit Center  877 is at  -3.610002  4.214945 -1.401634
      ESP Fit Center  878 is at  -3.163826  4.296327 -2.361634
      ESP Fit Center  879 is at  -1.976285  7.516221  0.441226
      ESP Fit Center  880 is at  -1.496285  8.347605  0.183995
      ESP Fit Center  881 is at  -2.456285  8.347605  0.183995
      ESP Fit Center  882 is at  -2.936285  7.516221  0.183995
      ESP Fit Center  883 is at  -0.631077  8.493572 -0.518774
      ESP Fit Center  884 is at  -1.462461  9.097608 -0.518774
      ESP Fit Center  885 is at  -2.490109  9.097608 -0.518774
      ESP Fit Center  886 is at  -0.313516  8.476221 -1.478774
      ESP Fit Center  887 is at  -1.016285  9.178990 -1.478774
      ESP Fit Center  888 is at  -1.976285  9.436221 -1.478774
      ESP Fit Center  889 is at  -1.462461  9.097608 -2.438774
      ESP Fit Center  890 is at  -2.458496  9.460035 -2.411191
      ESP Fit Center  891 is at  -4.551312  4.759493 -2.411191
      ESP Fit Center  892 is at  -3.528282  4.427090 -2.411191
      ESP Fit Center  893 is at  -1.188656  8.886130 -3.482705
      ESP Fit Center  894 is at  -2.009814  9.506239 -3.482705
      ESP Fit Center  895 is at  -2.999530  9.787838 -3.482705
      ESP Fit Center  896 is at  -4.945258  4.765334 -3.482705
      ESP Fit Center  897 is at  -4.024137  4.306670 -3.482705
      ESP Fit Center  898 is at  -2.999530  4.211726 -3.482705
      ESP Fit Center  899 is at  -0.894664  8.051954 -4.554219
      ESP Fit Center  900 is at  -1.526932  8.922196 -4.554219
      ESP Fit Center  901 is at  -2.458496  9.460035 -4.554219
      ESP Fit Center  902 is at  -3.528282  9.572474 -4.554219
      ESP Fit Center  903 is at  -5.788215  6.461943 -4.554219
      ESP Fit Center  904 is at  -5.350697  5.479262 -4.554219
      ESP Fit Center  905 is at  -4.551312  4.759493 -4.554219
      ESP Fit Center  906 is at  -3.528282  4.427090 -4.554219
      ESP Fit Center  907 is at  -2.458496  4.539529 -4.554219
      ESP Fit Center  908 is at  -1.277982  6.999782 -5.462604
      ESP Fit Center  909 is at  -1.543238  7.989731 -5.462604
      ESP Fit Center  910 is at  -2.267932  8.714425 -5.462604
      ESP Fit Center  911 is at  -3.257881  8.979681 -5.462604
      ESP Fit Center  912 is at  -4.247830  8.714425 -5.462604
      ESP Fit Center  913 is at  -4.972524  7.989731 -5.462604
      ESP Fit Center  914 is at  -5.237780  6.999782 -5.462604
      ESP Fit Center  915 is at  -4.972524  6.009833 -5.462604
      ESP Fit Center  916 is at  -4.247830  5.285139 -5.462604
      ESP Fit Center  917 is at  -3.257881  5.019883 -5.462604
      ESP Fit Center  918 is at  -2.267932  5.285139 -5.462604
      ESP Fit Center  919 is at  -1.543238  6.009833 -5.462604
      ESP Fit Center  920 is at  -2.186367  6.999782 -6.069568
      ESP Fit Center  921 is at  -2.722124  7.927740 -6.069568
      ESP Fit Center  922 is at  -3.793638  7.927740 -6.069568
      ESP Fit Center  923 is at  -4.329395  6.999782 -6.069568
      ESP Fit Center  924 is at  -3.793638  6.071824 -6.069568
      ESP Fit Center  925 is at  -2.722124  6.071824 -6.069568
      ESP Fit Center  926 is at  -3.257881  6.999782 -6.282705
      ESP Fit Center  927 is at  -6.094679  9.693666 -2.090623
      ESP Fit Center  928 is at  -4.215533  8.688309 -0.116397
      ESP Fit Center  929 is at  -3.255533  8.688309 -0.373628
      ESP Fit Center  930 is at  -3.735533  9.519693 -0.373628
      ESP Fit Center  931 is at  -4.695533  9.519693 -0.373628
      ESP Fit Center  932 is at  -2.870325  9.665660 -1.076397
      ESP Fit Center  933 is at  -3.701709 10.269696 -1.076397
      ESP Fit Center  934 is at  -4.729357 10.269696 -1.076397
      ESP Fit Center  935 is at  -5.560741  9.665660 -1.076397
      ESP Fit Center  936 is at  -2.552764  9.648309 -2.036397
      ESP Fit Center  937 is at  -3.255533 10.351078 -2.036397
      ESP Fit Center  938 is at  -4.215533 10.608309 -2.036397
      ESP Fit Center  939 is at  -5.175533 10.351078 -2.036397
      ESP Fit Center  940 is at  -3.701709 10.269696 -2.996397
      ESP Fit Center  941 is at  -4.729357 10.269696 -2.996397
      ESP Fit Center  942 is at  -6.562672  9.292062 -2.476127
      ESP Fit Center  943 is at  -5.217464 10.234711 -3.436127
      ESP Fit Center  944 is at  -6.177464  9.977480 -3.436127
      ESP Fit Center  945 is at  -6.880233  9.274711 -3.436127
      ESP Fit Center  946 is at  -7.137464  8.314711 -3.436127
      ESP Fit Center  947 is at  -4.703640  9.896098 -4.396127
      ESP Fit Center  948 is at  -5.731288  9.896098 -4.396127
      ESP Fit Center  949 is at  -6.562672  9.292062 -4.396127
      ESP Fit Center  950 is at  -6.880233  8.314711 -4.396127
      ESP Fit Center  951 is at  -6.562672  7.337360 -4.396127
      ESP Fit Center  952 is at  -4.737464  9.146095 -5.098896
      ESP Fit Center  953 is at  -5.697464  9.146095 -5.098896
      ESP Fit Center  954 is at  -6.177464  8.314711 -5.098896
      ESP Fit Center  955 is at  -5.697464  7.483327 -5.098896
      ESP Fit Center  956 is at  -5.217464  8.314711 -5.356127
      ESP Fit Center  957 is at  -6.754136  5.550928 -0.266325
      ESP Fit Center  958 is at  -7.633469  5.953800 -1.228651
      ESP Fit Center  959 is at  -7.325746  7.497655 -3.259077
      ESP Fit Center  960 is at  -7.305680  5.182292 -1.397298
      ESP Fit Center  961 is at  -6.474296  4.578256 -1.397298
      ESP Fit Center  962 is at  -5.446648  4.578256 -1.397298
      ESP Fit Center  963 is at  -7.880472  6.159643 -2.357298
      ESP Fit Center  964 is at  -7.623241  5.199643 -2.357298
      ESP Fit Center  965 is at  -6.920472  4.496874 -2.357298
      ESP Fit Center  966 is at  -5.960472  4.239643 -2.357298
      ESP Fit Center  967 is at  -5.000472  4.496874 -2.357298
      ESP Fit Center  968 is at  -7.623241  6.159643 -3.317298
      ESP Fit Center  969 is at  -7.305680  5.182292 -3.317298
      ESP Fit Center  970 is at  -6.474296  4.578256 -3.317298
      ESP Fit Center  971 is at  -5.446648  4.578256 -3.317298
      ESP Fit Center  972 is at  -6.920472  6.159643 -4.020067
      ESP Fit Center  973 is at  -6.440472  5.328259 -4.020067
      ESP Fit Center  974 is at  -5.480472  5.328259 -4.020067
      ESP Fit Center  975 is at  -5.960472  6.159643 -4.277298
      ESP Fit Center  976 is at  -4.965790  6.518922  0.984167
      ESP Fit Center  977 is at  -4.005790  6.518922  0.726936
      ESP Fit Center  978 is at  -4.485790  7.350306  0.726936
      ESP Fit Center  979 is at  -5.445790  7.350306  0.726936
      ESP Fit Center  980 is at  -5.925790  6.518922  0.726936
      ESP Fit Center  981 is at  -5.445790  5.687538  0.726936
      ESP Fit Center  982 is at  -4.485790  5.687538  0.726936
      ESP Fit Center  983 is at  -3.620582  7.496273  0.024167
      ESP Fit Center  984 is at  -6.310998  5.541571  0.024167
      ESP Fit Center  985 is at  -5.479614  4.937535  0.024167
      ESP Fit Center  986 is at  -4.451966  4.937535  0.024167
      ESP Fit Center  987 is at  -4.965790  4.598922 -0.935833
      ESP Fit Center  988 is at  -6.343973  7.555725  0.593122
      ESP Fit Center  989 is at  -5.863973  8.387109  0.335891
      ESP Fit Center  990 is at  -6.823973  8.387109  0.335891
      ESP Fit Center  991 is at  -7.303973  7.555725  0.335891
      ESP Fit Center  992 is at  -6.823973  6.724341  0.335891
      ESP Fit Center  993 is at  -5.830149  9.137112 -0.366878
      ESP Fit Center  994 is at  -6.857797  9.137112 -0.366878
      ESP Fit Center  995 is at  -7.689181  8.533076 -0.366878
      ESP Fit Center  996 is at  -8.006742  7.555725 -0.366878
      ESP Fit Center  997 is at  -7.689181  6.578374 -0.366878
      ESP Fit Center  998 is at  -6.343973  9.475725 -1.326878
      ESP Fit Center  999 is at  -7.303973  9.218494 -1.326878
      ESP Fit Center 1000 is at  -8.006742  8.515725 -1.326878
      ESP Fit Center 1001 is at  -8.263973  7.555725 -1.326878
      ESP Fit Center 1002 is at  -8.006742  6.595725 -1.326878
      ESP Fit Center 1003 is at  -6.857797  9.137112 -2.286878
      ESP Fit Center 1004 is at  -7.689181  8.533076 -2.286878
      ESP Fit Center 1005 is at  -8.006742  7.555725 -2.286878
      ESP Fit Center 1006 is at  -0.130068 -6.518194  6.266124
      ESP Fit Center 1007 is at   0.903178 -6.518194  6.266124
      ESP Fit Center 1008 is at  -1.522633 -7.532565  3.771649
      ESP Fit Center 1009 is at  -1.860889 -4.541065  2.738404
      ESP Fit Center 1010 is at  -2.107920 -5.623377  2.738404
      ESP Fit Center 1011 is at  -1.860889 -6.705689  2.738404
      ESP Fit Center 1012 is at  -1.168725 -7.573636  2.738404
      ESP Fit Center 1013 is at  -0.168518 -8.055310  2.738404
      ESP Fit Center 1014 is at   2.633999 -6.705689  2.738404
      ESP Fit Center 1015 is at   1.179660 -7.360036  1.862461
      ESP Fit Center 1016 is at   1.992666 -6.655562  1.862461
      ESP Fit Center 1017 is at  -0.567178 -5.584481  6.468455
      ESP Fit Center 1018 is at  -1.647178 -5.584481  6.179070
      ESP Fit Center 1019 is at  -1.107178 -6.519788  6.179070
      ESP Fit Center 1020 is at  -2.362020 -5.057468  5.388455
      ESP Fit Center 1021 is at  -2.362020 -6.111494  5.388455
      ESP Fit Center 1022 is at  -1.792170 -6.998197  5.388455
      ESP Fit Center 1023 is at  -0.833394 -7.436056  5.388455
      ESP Fit Center 1024 is at  -2.664412 -5.067559  4.308455
      ESP Fit Center 1025 is at  -2.664412 -6.101403  4.308455
      ESP Fit Center 1026 is at  -2.183961 -7.016826  4.308455
      ESP Fit Center 1027 is at  -2.362020 -5.057468  3.228455
      ESP Fit Center 1028 is at  -2.362020 -6.111494  3.228455
      ESP Fit Center 1029 is at   2.047099 -5.582298  1.617822
      ESP Fit Center 1030 is at  -1.048508 -4.168582  1.617822
      ESP Fit Center 1031 is at  -1.618358 -5.055285  1.617822
      ESP Fit Center 1032 is at  -1.618358 -6.109311  1.617822
      ESP Fit Center 1033 is at  -1.048508 -6.996014  1.617822
      ESP Fit Center 1034 is at  -0.089732 -7.433873  1.617822
      ESP Fit Center 1035 is at   0.953566 -7.283869  1.617822
      ESP Fit Center 1036 is at   1.750145 -6.593629  1.617822
      ESP Fit Center 1037 is at   1.256484 -5.582298  0.827207
      ESP Fit Center 1038 is at   0.716484 -4.646991  0.827207
      ESP Fit Center 1039 is at  -0.363516 -4.646991  0.827207
      ESP Fit Center 1040 is at  -0.903516 -5.582298  0.827207
      ESP Fit Center 1041 is at  -0.363516 -6.517605  0.827207
      ESP Fit Center 1042 is at   0.716484 -6.517605  0.827207
      ESP Fit Center 1043 is at   0.176484 -5.582298  0.537822
      ESP Fit Center 1044 is at   1.935481 -6.588823  5.865994
      ESP Fit Center 1045 is at   0.315481 -7.524130  5.865994
      ESP Fit Center 1046 is at   1.395481 -7.524130  5.865994
      ESP Fit Center 1047 is at  -0.369511 -8.002539  5.075379
[...]
 1302 Fit       0.005694
 1303 Fit      -0.010617
 1304 Fit       0.002583
 1305 Fit      -0.001359
 1306 Fit      -0.007200
 1307 Fit      -0.005866
 1308 Fit      -0.000506
 1309 Fit       0.003247
 1310 Fit      -0.000940
 1311 Fit      -0.005945
 1312 Fit       0.000296
 1313 Fit       0.001783
 1314 Fit      -0.008963
 1315 Fit      -0.000415
 1316 Fit      -0.007928
 1317 Fit      -0.016929
 1318 Fit       0.011232
 1319 Fit       0.011455
 1320 Fit       0.004544
 1321 Fit       0.004904
 1322 Fit       0.009606
 1323 Fit       0.014212
 1324 Fit       0.005245
 1325 Fit       0.009509
 1326 Fit       0.012764
 1327 Fit       0.011120
 1328 Fit       0.010693
 1329 Fit       0.011124
 1330 Fit       0.009428
 1331 Fit       0.008692
 1332 Fit       0.008101
 1333 Fit      -0.004881
 1334 Fit      -0.006821
 1335 Fit      -0.012847
 1336 Fit      -0.011959
 1337 Fit      -0.004174
 1338 Fit      -0.011517
 1339 Fit      -0.015110
 1340 Fit      -0.016775
 1341 Fit      -0.016493
 1342 Fit      -0.013631
 1343 Fit      -0.008348
 1344 Fit      -0.001096
 1345 Fit      -0.004111
 1346 Fit      -0.018834
 1347 Fit      -0.018484
 1348 Fit      -0.017802
 1349 Fit      -0.016632
 1350 Fit      -0.014479
 1351 Fit      -0.010099
 1352 Fit      -0.026648
 1353 Fit      -0.022100
 1354 Fit      -0.018403
 1355 Fit      -0.014860
 1356 Fit      -0.011277
 1357 Fit      -0.006114
 1358 Fit      -0.031058
 1359 Fit      -0.023750
 1360 Fit      -0.017403
 1361 Fit      -0.011409
 1362 Fit      -0.006022
 1363 Fit      -0.029346
 1364 Fit      -0.021455
 1365 Fit      -0.013078
 1366 Fit      -0.004568
 1367 Fit      -0.022197
 1368 Fit      -0.014326
 1369 Fit      -0.011983
 1370 Fit      -0.006924
 1371 Fit      -0.005665
 1372 Fit      -0.006171
 1373 Fit       0.002190
 1374 Fit      -0.000635
 1375 Fit      -0.002568
 1376 Fit      -0.001589
 1377 Fit       0.000552
 1378 Fit      -0.003992
 1379 Fit      -0.005467
 1380 Fit      -0.001767
 1381 Fit      -0.002038
 1382 Fit      -0.006613
 1383 Fit      -0.002809
 1384 Fit      -0.002543
 1385 Fit      -0.008926
 1386 Fit      -0.003714
 1387 Fit      -0.004183
 1388 Fit      -0.005979
 1389 Fit      -0.000643
 1390 Fit       0.006014
 1391 Fit       0.008037
 1392 Fit       0.012177
 1393 Fit       0.012330
 1394 Fit       0.005611
 1395 Fit       0.004936
 1396 Fit      -0.000983
 1397 Fit      -0.000938
 1398 Fit       0.005359
 1399 Fit       0.006982
 1400 Fit       0.001591
 1401 Fit       0.006523
 1402 Fit       0.000517
 1403 Fit       0.003431
 1404 Fit      -0.003092
 1405 Fit       0.000217
 1406 Fit      -0.004501
 1407 Fit      -0.007482
 1408 Fit      -0.004461
 1409 Fit      -0.009009
 1410 Fit      -0.006712
 1411 Fit      -0.011749
 1412 Fit      -0.014946
 1413 Fit      -0.012146
 1414 Fit      -0.005353
 1415 Fit      -0.014815
 1416 Fit      -0.013484
 1417 Fit      -0.005495
 1418 Fit      -0.012091
 1419 Fit      -0.017649
 1420 Fit      -0.017987
 1421 Fit      -0.013099
 1422 Fit      -0.004630
 1423 Fit      -0.000669
 1424 Fit      -0.008122
 1425 Fit      -0.014707
 1426 Fit      -0.017448
 1427 Fit      -0.014702
 1428 Fit      -0.007870
 1429 Fit      -0.013690
 1430 Fit      -0.017441
 1431 Fit      -0.018660
 1432 Fit      -0.014823
 1433 Fit      -0.008168
 1434 Fit      -0.004322
 1435 Fit      -0.006919
 1436 Fit      -0.012637
 1437 Fit      -0.016724
 1438 Fit      -0.016271
 1439 Fit      -0.012950
 1440 Fit      -0.011587
 1441 Fit      -0.016424
 1442 Fit      -0.017060
 1443 Fit      -0.013009
 1444 Fit      -0.012207
 1445 Fit      -0.015678
 1446 Fit      -0.015836
 1447 Fit      -0.015678
 1448 Fit       0.008339
 1449 Fit       0.006190
 1450 Fit      -0.001083
 1451 Fit       0.008901
 1452 Fit       0.008548
 1453 Fit       0.008489
 1454 Fit       0.007862
 1455 Fit       0.007134
 1456 Fit       0.007458
 1457 Fit       0.008044
 1458 Fit       0.002465
 1459 Fit       0.003409
 1460 Fit       0.004862
 1461 Fit       0.005954
 1462 Fit      -0.001362
 1463 Fit       0.002758
 1464 Fit       0.003553
 1465 Fit       0.005991
 1466 Fit       0.007424
 1467 Fit       0.007685
 1468 Fit      -0.001369
 1469 Fit       0.003882
 1470 Fit       0.006246
 1471 Fit       0.006694
 1472 Fit       0.005419
 1473 Fit       0.002250
 1474 Fit      -0.002049
 1475 Fit       0.003594
 1476 Fit       0.004056
 1477 Fit      -0.000456
 1478 Fit       0.008208
 1479 Fit       0.003306
 1480 Fit       0.002782
 1481 Fit       0.002429
 1482 Fit       0.002936
 1483 Fit       0.001085
 1484 Fit       0.003508
 1485 Fit       0.005318
 1486 Fit       0.002557
 1487 Fit       0.002283
 1488 Fit       0.002999
 1489 Fit       0.002917
 1490 Fit       0.001940
 1491 Fit      -0.000360
 1492 Fit      -0.004541
 1493 Fit       0.003387
 1494 Fit       0.002835
 1495 Fit       0.001812
 1496 Fit      -0.001448
 1497 Fit      -0.010086
 1498 Fit       0.001542
 1499 Fit      -0.001926
 1500 Fit       0.007142
 1501 Fit       0.008707
 1502 Fit       0.007254
 1503 Fit       0.005750
 1504 Fit       0.005152
 1505 Fit       0.006547
 1506 Fit       0.009154
 1507 Fit       0.004227
 1508 Fit       0.006679
 1509 Fit       0.011131
 1510 Fit       0.005896
 1511 Fit       0.005311
 1512 Fit       0.006390
 1513 Fit       0.006667
 1514 Fit       0.005749
 1515 Fit       0.008366
 1516 Fit       0.007763
 1517 Fit       0.007564
 1518 Fit       0.006698
 1519 Fit       0.005054
 1520 Fit       0.008070
 1521 Fit       0.007470
 1522 Fit       0.006285
 1523 Fit       0.004525
 1524 Fit       0.007559
 1525 Fit       0.005728
 1526 Fit       0.009489
 1527 Fit       0.010560
 1528 Fit       0.006391
 1529 Fit       0.004915
 1530 Fit       0.003424
 1531 Fit       0.003667
 1532 Fit      -0.000709
 1533 Fit       0.001751
 1534 Fit       0.002682
 1535 Fit       0.003326
 1536 Fit       0.004371
 1537 Fit       0.008051
 1538 Fit       0.006570
 1539 Fit       0.005830
 1540 Fit       0.011267
 1541 Fit       0.010399
 1542 Fit       0.009039
 1543 Fit       0.008476
 1544 Fit       0.007580
 1545 Fit       0.006755
 1546 Fit       0.006411
 1547 Fit       0.005947
 1548 Fit       0.003697
 1549 Fit       0.004333
 1550 Fit       0.004271
 1551 Fit      -0.002914
 1552 Fit       0.000733
 1553 Fit       0.005632
 1554 Fit       0.002957
 1555 Fit       0.000606
 1556 Fit       0.002340
 1557 Fit       0.003339
 1558 Fit       0.003998
 1559 Fit       0.004664
 1560 Fit       0.005384
 1561 Fit       0.004119
 1562 Fit       0.002024
 1563 Fit       0.001306
 1564 Fit       0.002627
 1565 Fit       0.003785
 1566 Fit       0.004378
 1567 Fit       0.003363
 1568 Fit       0.008496
 1569 Fit       0.009643
 1570 Fit       0.007034
 1571 Fit       0.008018
 1572 Fit       0.009145
 1573 Fit       0.010207
 1574 Fit       0.005897
 1575 Fit       0.007102
 1576 Fit       0.008258
 1577 Fit       0.009151
 1578 Fit       0.010046
 1579 Fit       0.006150
 1580 Fit       0.007345
 1581 Fit       0.008231
 1582 Fit       0.009123
 1583 Fit       0.005281
 1584 Fit       0.006444
 1585 Fit       0.007375
 1586 Fit       0.008209
 1587 Fit       0.006253
 1588 Fit       0.004205
 1589 Fit       0.010901
 1590 Fit       0.009702
 1591 Fit       0.000885
 1592 Fit       0.010743
 1593 Fit       0.011131
 1594 Fit       0.010071
 1595 Fit       0.010822
 1596 Fit       0.012178
 1597 Fit       0.011078
 1598 Fit       0.010504
 1599 Fit       0.009018
 1600 Fit       0.008540
 1601 Fit       0.012681
 1602 Fit       0.010822
 1603 Fit       0.010560
 1604 Fit       0.009839
 1605 Fit       0.008332
 1606 Fit       0.009718
 1607 Fit       0.007779
 1608 Fit       0.005737
 1609 Fit       0.010355
 1610 Fit       0.009078
 1611 Fit       0.007614
 1612 Fit       0.005701
 1613 Fit       0.001687
 1614 Fit       0.009472
 1615 Fit       0.008700
 1616 Fit       0.007068
 1617 Fit       0.005004
 1618 Fit       0.000298
 1619 Fit       0.008309
 1620 Fit       0.008037
 1621 Fit       0.005871
 1622 Fit       0.002750
 1623 Fit       0.006707
 1624 Fit       0.004027
 1625 Fit       0.000018
 1626 Fit       0.002121
 1627 Fit      -0.001684
 1628 Fit      -0.000597
 1629 Fit      -0.001122
 1630 Fit       0.011537
 1631 Fit       0.010519
 1632 Fit       0.011193
 1633 Fit       0.012345
 1634 Fit       0.011188
 1635 Fit       0.010883
 1636 Fit       0.011187
 1637 Fit       0.011826
 1638 Fit       0.011399
 1639 Fit       0.011255
 1640 Fit       0.011435
 1641 Fit       0.010046
 1642 Fit       0.010068
 1643 Fit       0.011500
 1644 Fit       0.013234
 1645 Fit       0.012412
 1646 Fit       0.007551
 1647 Fit       0.007724
 1648 Fit       0.010520
 1649 Fit       0.011034
 1650 Fit       0.007585
 1651 Fit       0.007868
 1652 Fit       0.009987
 1653 Fit       0.002546
 1654 Fit       0.005717
 1655 Fit      -0.005137
 1656 Fit       0.001572
 1657 Fit      -0.007215
 1658 Fit       0.011997
 1659 Fit       0.011620
 1660 Fit       0.010585
 1661 Fit       0.009614
 1662 Fit       0.012154
 1663 Fit       0.011492
 1664 Fit       0.010182
 1665 Fit       0.010036
 1666 Fit       0.012377
 1667 Fit       0.010521
 1668 Fit       0.009098
 1669 Fit       0.007767
 1670 Fit       0.006806
 1671 Fit       0.007194
 1672 Fit       0.009183
 1673 Fit       0.006994
 1674 Fit       0.004679
 1675 Fit       0.002416
 1676 Fit       0.000947
 1677 Fit       0.001704
 1678 Fit      -0.000775
 1679 Fit       0.008329
 1680 Fit       0.010280
 1681 Fit       0.010889
 1682 Fit       0.005386
 1683 Fit       0.009961
 1684 Fit       0.011752
 1685 Fit       0.011823
 1686 Fit       0.005784
 1687 Fit       0.012366
 1688 Fit      -0.003992
 1689 Fit      -0.008655
 1690 Fit      -0.011293
 1691 Fit      -0.011615
 1692 Fit      -0.009101
 1693 Fit      -0.006697
 1694 Fit      -0.011295
 1695 Fit      -0.013852
 1696 Fit      -0.014476
 1697 Fit      -0.013283
 1698 Fit      -0.010256
 1699 Fit      -0.010814
 1700 Fit      -0.011928
 1701 Fit      -0.010758
 1702 Fit      -0.005664
 1703 Fit      -0.000701
 1704 Fit      -0.003281
 1705 Fit      -0.007711
 1706 Fit      -0.005179
 1707 Fit      -0.003298
 1708 Fit      -0.001954
 1709 Fit      -0.003033
 1710 Fit      -0.002398
 1711 Fit      -0.001368
 1712 Fit      -0.000534
 1713 Fit      -0.000247
 1714 Fit      -0.002016
 1715 Fit      -0.001423
 1716 Fit      -0.000811
 1717 Fit      -0.000718
 1718 Fit      -0.001585
 1719 Fit      -0.004585
 1720 Fit      -0.003293
 1721 Fit      -0.005840
 1722 Fit       0.000499
 1723 Fit       0.000020
 1724 Fit       0.001744
 1725 Fit       0.006303
 1726 Fit       0.014645
 1727 Fit       0.013201
 1728 Fit       0.010769
 1729 Fit       0.007134
 1730 Fit       0.012262
 1731 Fit       0.006949
 1732 Fit       0.003211
 1733 Fit      -0.002980
 1734 Fit       0.009084
 1735 Fit       0.006545
 1736 Fit       0.003068
 1737 Fit      -0.001651
 1738 Fit       0.008523
 1739 Fit       0.004812
 1740 Fit       0.001417
 1741 Fit      -0.001274
 1742 Fit       0.007418
 1743 Fit       0.002944
 1744 Fit      -0.000366
 1745 Fit      -0.003180
 1746 Fit      -0.003876
 1747 Fit      -0.007749
 1748 Fit      -0.008738
 1749 Fit      -0.011003
 1750 Fit      -0.013928
 1751 Fit      -0.014098
 1752 Fit      -0.011196
 1753 Fit      -0.015277
 1754 Fit       0.009393
 1755 Fit      -0.002841
 1756 Fit       0.001687
 1757 Fit       0.005918
 1758 Fit       0.007009
 1759 Fit       0.002725
 1760 Fit      -0.001292
 1761 Fit       0.001875
 1762 Fit       0.003220
 1763 Fit       0.003419
 1764 Fit      -0.007533
 1765 Fit      -0.002235
 1766 Fit      -0.000082
 1767 Fit      -0.000619
 1768 Fit      -0.007129
 1769 Fit      -0.004942
 1770 Fit       0.008375
 1771 Fit       0.014326
 1772 Fit       0.009528
 1773 Fit       0.005048
 1774 Fit       0.010934
 1775 Fit       0.000875
 1776 Fit       0.004967
 1777 Fit       0.007813
 1778 Fit       0.005986
 1779 Fit       0.011414
 1780 Fit       0.006841
 1781 Fit       0.000020
 1782 Fit       0.009113
 1783 Fit       0.007402
 1784 Fit       0.004704
 1785 Fit       0.009564
 1786 Fit       0.005490
 1787 Fit       0.002119
 1788 Fit      -0.002747
 1789 Fit       0.009754
 1790 Fit       0.007773
 1791 Fit       0.002562
 1792 Fit      -0.002022
 1793 Fit       0.007463
 1794 Fit       0.005284
 1795 Fit       0.014536
 1796 Fit       0.011212
 1797 Fit       0.010029
 1798 Fit       0.012910
 1799 Fit       0.015570
 1800 Fit       0.005700
 1801 Fit       0.005294
 1802 Fit       0.009227
 1803 Fit      -0.004937
 1804 Fit      -0.006203
 1805 Fit      -0.013260
 1806 Fit      -0.002771
 1807 Fit      -0.010475
 1808 Fit      -0.017587
 1809 Fit      -0.008584
 1810 Fit      -0.014025
 1811 Fit      -0.019777
 1812 Fit      -0.025988
 1813 Fit       0.001345
 1814 Fit      -0.000983
 1815 Fit      -0.004065
 1816 Fit      -0.013011
 1817 Fit      -0.017083
 1818 Fit      -0.021652
 1819 Fit      -0.026977
 1820 Fit      -0.006855
 1821 Fit      -0.008161
 1822 Fit      -0.009969
 1823 Fit      -0.015925
 1824 Fit      -0.018402
 1825 Fit      -0.021072
 1826 Fit      -0.023455
 1827 Fit      -0.011943
 1828 Fit      -0.014269
 1829 Fit      -0.013709
 1830 Fit      -0.013470
 1831 Fit      -0.013649
 1832 Fit      -0.014295
 1833 Fit      -0.017039
 1834 Fit      -0.017735
 1835 Fit      -0.017523
 1836 Fit      -0.014102
 1837 Fit      -0.008158
 1838 Fit      -0.013768
 1839 Fit      -0.016028
 1840 Fit      -0.016544
 1841 Fit      -0.016615
 1842 Fit      -0.016101
 1843 Fit      -0.014218
 1844 Fit      -0.008718
 1845 Fit      -0.007481
 1846 Fit      -0.013181
 1847 Fit      -0.016032
 1848 Fit      -0.012980
 1849 Fit       0.004007
 1850 Fit       0.001653
 1851 Fit      -0.002167
 1852 Fit       0.003629
 1853 Fit       0.000833
 1854 Fit      -0.002059
 1855 Fit      -0.006697
 1856 Fit      -0.001908
 1857 Fit       0.001065
 1858 Fit      -0.002048
 1859 Fit      -0.006029
 1860 Fit      -0.001354
 1861 Fit       0.005996
 1862 Fit       0.003206
 1863 Fit      -0.002402
 1864 Fit      -0.001185
 1865 Fit      -0.006846
 1866 Fit      -0.013113
 1867 Fit       0.006837
 1868 Fit       0.009068
 1869 Fit       0.009889
 1870 Fit       0.010122
 1871 Fit       0.004382
 1872 Fit       0.004773
 1873 Fit       0.008684
 1874 Fit       0.008312
 1875 Fit       0.010194
 1876 Fit       0.009513
 1877 Fit       0.011214
 1878 Fit       0.009062
 1879 Fit       0.008524
 1880 Fit       0.007602
 1881 Fit       0.006615
 1882 Fit       0.005469
 1883 Fit      -0.002892
 1884 Fit      -0.004715
 1885 Fit      -0.009172
 1886 Fit      -0.008000
 1887 Fit      -0.001989
 1888 Fit      -0.008379
 1889 Fit      -0.011572
 1890 Fit      -0.012793
 1891 Fit      -0.012225
 1892 Fit      -0.009637
 1893 Fit      -0.005338
 1894 Fit       0.000132
 1895 Fit      -0.001523
 1896 Fit      -0.013860
 1897 Fit      -0.014507
 1898 Fit      -0.014420
 1899 Fit      -0.013636
 1900 Fit      -0.011815
 1901 Fit      -0.008339
 1902 Fit      -0.020167
 1903 Fit      -0.017773
 1904 Fit      -0.015750
 1905 Fit      -0.013657
 1906 Fit      -0.011282
 1907 Fit      -0.007871
 1908 Fit      -0.025161
 1909 Fit      -0.020406
 1910 Fit      -0.016659
 1911 Fit      -0.013147
 1912 Fit      -0.009780
 1913 Fit      -0.006288
 1914 Fit      -0.026505
 1915 Fit      -0.020378
 1916 Fit      -0.015012
 1917 Fit      -0.009880
 1918 Fit      -0.005222
 1919 Fit      -0.023529
 1920 Fit      -0.017429
 1921 Fit      -0.010811
 1922 Fit      -0.017391
 1923 Fit      -0.011679
 1924 Fit      -0.009795
 1925 Fit      -0.005585
 1926 Fit       0.000921
 1927 Fit      -0.003151
 1928 Fit      -0.002740
 1929 Fit      -0.003681
 1930 Fit      -0.003524
 1931 Fit      -0.001584
 1932 Fit      -0.005289
 1933 Fit      -0.002153
 1934 Fit      -0.006054
 1935 Fit      -0.003251
 1936 Fit      -0.003727
 1937 Fit      -0.006506
 1938 Fit      -0.004069
 1939 Fit      -0.004358
 1940 Fit      -0.004823
 1941 Fit      -0.005678
 1942 Fit      -0.007014
 1943 Fit       0.005053
 1944 Fit       0.010173
 1945 Fit       0.011282
 1946 Fit       0.008529
 1947 Fit      -0.001372
 1948 Fit      -0.001916
 1949 Fit       0.003812
 1950 Fit       0.005575
 1951 Fit       0.000072
 1952 Fit       0.004798
 1953 Fit      -0.001489
 1954 Fit       0.002284
 1955 Fit      -0.001160
 1956 Fit      -0.000241
 1957 Fit      -0.002575
 1958 Fit      -0.003052
 1959 Fit       0.001282
 1960 Fit      -0.008460
 1961 Fit      -0.008256
 1962 Fit      -0.005145
 1963 Fit      -0.008464
 1964 Fit      -0.007711
 1965 Fit      -0.002412
 1966 Fit      -0.010486
 1967 Fit      -0.012923
 1968 Fit      -0.011460
 1969 Fit      -0.007042
 1970 Fit      -0.010141
 1971 Fit      -0.012290
 1972 Fit      -0.010302
 1973 Fit      -0.004224
 1974 Fit      -0.011305
 1975 Fit      -0.014417
 1976 Fit      -0.014342
 1977 Fit      -0.010839
 1978 Fit      -0.005078
 1979 Fit      -0.002205
 1980 Fit      -0.007226
 1981 Fit      -0.011683
 1982 Fit      -0.013645
 1983 Fit      -0.012099
 1984 Fit      -0.008115
 1985 Fit      -0.012164
 1986 Fit      -0.014297
 1987 Fit      -0.014776
 1988 Fit      -0.012106
 1989 Fit      -0.007755
 1990 Fit      -0.005274
 1991 Fit      -0.006842
 1992 Fit      -0.010537
 1993 Fit      -0.013288
 1994 Fit      -0.013257
 1995 Fit      -0.011483
 1996 Fit      -0.010835
 1997 Fit      -0.013705
 1998 Fit      -0.013868
 1999 Fit      -0.011152
 2000 Fit      -0.010612
 2001 Fit      -0.012909
 2002 Fit      -0.013274
 2003 Fit      -0.013055
 2004 Fit       0.007420
 2005 Fit       0.006655
 2006 Fit       0.004331
 2007 Fit       0.007815
 2008 Fit       0.007279
 2009 Fit       0.007434
 2010 Fit       0.006856
 2011 Fit       0.006264
 2012 Fit       0.006625
 2013 Fit       0.007311
 2014 Fit       0.003904
 2015 Fit       0.004683
 2016 Fit       0.005515
 2017 Fit       0.006513
 2018 Fit      -0.000534
 2019 Fit       0.001993
 2020 Fit       0.003842
 2021 Fit       0.006445
 2022 Fit       0.007235
 2023 Fit       0.001038
 2024 Fit       0.003934
 2025 Fit       0.005524
 2026 Fit       0.006128
 2027 Fit       0.005712
 2028 Fit      -0.002594
 2029 Fit       0.002246
 2030 Fit       0.004396
 2031 Fit       0.004809
 2032 Fit       0.003652
 2033 Fit       0.000439
 2034 Fit       0.001698
 2035 Fit       0.002110
 2036 Fit       0.005951
 2037 Fit       0.005270
 2038 Fit       0.004603
 2039 Fit       0.006928
 2040 Fit       0.003895
 2041 Fit       0.003585
 2042 Fit       0.002676
 2043 Fit       0.002760
 2044 Fit       0.002477
 2045 Fit       0.002691
 2046 Fit       0.002943
 2047 Fit       0.006467
 2048 Fit       0.004049
 2049 Fit       0.002506
 2050 Fit       0.002214
 2051 Fit       0.001545
 2052 Fit       0.000726
 2053 Fit       0.002753
 2054 Fit       0.002394
 2055 Fit       0.001684
 2056 Fit       0.000016
 2057 Fit      -0.003294
 2058 Fit       0.002872
 2059 Fit       0.001807
 2060 Fit       0.000366
 2061 Fit      -0.003109
 2062 Fit       0.000396
 2063 Fit      -0.003197
 2064 Fit       0.006312
 2065 Fit       0.007300
 2066 Fit       0.006375
 2067 Fit       0.005482
 2068 Fit       0.005023
 2069 Fit       0.005960
 2070 Fit       0.007771
 2071 Fit       0.007316
 2072 Fit       0.004404
 2073 Fit       0.006370
 2074 Fit       0.009640
 2075 Fit       0.004437
 2076 Fit       0.008231
 2077 Fit       0.005037
 2078 Fit       0.005805
 2079 Fit       0.005765
 2080 Fit       0.005074
 2081 Fit       0.006644
 2082 Fit       0.006385
 2083 Fit       0.005712
 2084 Fit       0.004561
 2085 Fit       0.007096
 2086 Fit       0.006696
 2087 Fit       0.006040
 2088 Fit       0.004963
 2089 Fit       0.003662
 2090 Fit       0.007425
 2091 Fit       0.006686
 2092 Fit       0.005739
 2093 Fit       0.004479
 2094 Fit       0.006997
 2095 Fit       0.005095
 Job cpu time:       0 days  0 hours 12 minutes 37.6 seconds.
 Normal termination of Gaussian 16 at Sun Jul  9 10:05:11 2023.
