 Copyright (c) 1988-2019, Gaussian, Inc.  All Rights Reserved.
  
 This is part of the Gaussian(R) 16 program.  It is based on
 the Gaussian(R) 09 system (copyright 2009, Gaussian, Inc.),
 the Gaussian(R) 03 system (copyright 2003, Gaussian, Inc.),
 the Gaussian(R) 98 system (copyright 1998, Gaussian, Inc.),
 the Gaussian(R) 94 system (copyright 1995, Gaussian, Inc.),
 the Gaussian 92(TM) system (copyright 1992, Gaussian, Inc.),
 the Gaussian 90(TM) system (copyright 1990, Gaussian, Inc.),
 the Gaussian 88(TM) system (copyright 1988, Gaussian, Inc.),
 the Gaussian 86(TM) system (copyright 1986, Carnegie Mellon
 University), and the Gaussian 82(TM) system (copyright 1983,
 Carnegie Mellon University). Gaussian is a federally registered
 trademark of Gaussian, Inc.
 Cite this work as:
 Gaussian 16, Revision C.01,
 M. J. Frisch, G. W. Trucks, H. B. Schlegel, G. E. Scuseria, 
 M. A. Robb, J. R. Cheeseman, G. Scalmani, V. Barone, 
 G. A. Petersson, H. Nakatsuji, X. Li, M. Caricato, A. V. Marenich, 
 J. Bloino, B. G. Janesko, R. Gomperts, B. Mennucci, H. P. Hratchian, 
 J. V. Ortiz, A. F. Izmaylov, J. L. Sonnenberg, D. Williams-Young, 
 F. Ding, F. Lipparini, F. Egidi, J. Goings, B. Peng, A. Petrone, 
 T. Henderson, D. Ranasinghe, V. G. Zakrzewski, J. Gao, N. Rega, 
 G. Zheng, W. Liang, M. Hada, M. Ehara, K. Toyota, R. Fukuda, 
 J. Hasegawa, M. Ishida, T. Nakajima, Y. Honda, O. Kitao, H. Nakai, 
 T. Vreven, K. Throssell, J. A. Montgomery, Jr., J. E. Peralta, 
 F. Ogliaro, M. J. Bearpark, J. J. Heyd, E. N. Brothers, K. N. Kudin, 
 V. N. Staroverov, T. A. Keith, R. Kobayashi, J. Normand, 
 K. Raghavachari, A. P. Rendell, J. C. Burant, S. S. Iyengar, 
 J. Tomasi, M. Cossi, J. M. Millam, M. Klene, C. Adamo, R. Cammi, 
 J. W. Ochterski, R. L. Martin, K. Morokuma, O. Farkas, 
 J. B. Foresman, and D. J. Fox, Gaussian, Inc., Wallingford CT, 2019.
 
 ******************************************
 Gaussian 16:  EM64L-G16RevC.01  3-Jul-2019
                 9-Jul-2023 
 ******************************************
 ----------------------------------------------------------------------
 #P B3LYP/6-31G(d) Integral=Ultrafine SCF(Conver=8,XQC,MaxConventionalC
 ycles=64,MaxCycle=128) NoSymm Test Pop=mk IOp(6/33=2) GFInput GFPrint
 ----------------------------------------------------------------------
 1/38=1,172=1/1;
 2/12=2,15=1,17=6,18=5,40=1/2;
 3/5=1,6=6,7=1,11=2,24=110,25=1,30=1,74=-5,75=-5/1,2,3;
 4//1;
 5/5=2,6=8,7=128,8=3,13=1,38=5,85=64/2,8;
 6/7=2,8=2,9=2,10=2,15=8,20=1,28=1,33=2/1,2;
 99/5=1,9=1/99;
 -------------------------------------------------
 MEP step - Input generated by PyRED DVE-DMDS-OPLS
 -------------------------------------------------
 Symbolic Z-matrix:
 Charge =  0 Multiplicity = 1
 C                     7.27614   4.72433   0.36091 
 H                     6.85349   5.45031   1.06289 
 H                     6.93271   3.72629   0.65175 
 H                     8.36806   4.75419   0.44462 
 C                     6.8446    5.04415  -1.0607 
 H                     7.20355   6.04405  -1.35995 
 H                     7.27668   4.31935  -1.7714 
 O                     5.4275    5.00142  -1.12288 
 C                     4.91537   5.29809  -2.40863 
 H                     5.31915   4.60095  -3.16154 
 H                     5.20643   6.32088  -2.71 
 C                     3.39544   5.19944  -2.39762 
 H                     3.00017   5.7795   -1.54871 
 H                     3.01635   5.64727  -3.32386 
 O                     2.89585   3.87488  -2.3789 
 C                     2.87241   3.24994  -1.10282 
 H                     2.35545   3.886    -0.36706 
 H                     3.88324   3.05884  -0.7259 
 C                     2.11443   1.94066  -1.27065 
 H                     2.63131   1.30241  -2.00519 
 H                     1.10758   2.15058  -1.66179 
 O                     2.07266   1.31125   0. 
 C                     1.53363   0.        0. 
 H                     1.89375  -0.48005   0.91514 
 H                     1.92172  -0.57404  -0.856 
 C                     0.        0.        0. 
 H                    -0.40619   0.49531  -0.88838 
 H                    -0.36202   0.54901   0.87497 
 S                    -0.73191  -1.6784    0.12979 
 C                    -0.54196  -2.27322  -1.60421 
 H                    -1.01292  -1.55278  -2.28126 
 H                     0.5191   -2.3485   -1.86076 
 C                    -1.21283  -3.63963  -1.73498 
 H                    -2.28038  -3.56106  -1.50262 
 H                    -0.75695  -4.34941  -1.03752 
 S                    -1.01892  -4.24281  -3.46441 
 C                    -2.03404  -5.77725  -3.40732 
 H                    -2.22085  -6.03684  -4.45335 
 H                    -3.00273  -5.53864  -2.95528 
 C                    -1.35197  -6.94503  -2.69257 
 H                    -0.41333  -7.1945   -3.19564 
 H                    -1.10335  -6.69364  -1.65697 
 S                    -2.34708  -8.49299  -2.71849 
 C                    -3.57693  -8.17766  -1.38411 
 H                    -4.05885  -7.20968  -1.55991 
 H                    -4.34363  -8.94327  -1.54324 
 C                    -3.01689  -8.26847   0.03478 
 H                    -2.24143  -7.51604   0.21493 
 H                    -3.81524  -8.10129   0.76887 
 H                    -2.57832  -9.25379   0.21989 
 
 ITRead=  0  0  0  0  0  0  0  0  0  0  0  0  0  0  0  0  0  0  0  0
 ITRead=  0  0  0  0  0  0  0  0  0  0  0  0  0  0  0  0  0  0  0  0
 ITRead=  0  0  0  0  0  0  0  0  0  0
 MicOpt= -1 -1 -1 -1 -1 -1 -1 -1 -1 -1 -1 -1 -1 -1 -1 -1 -1 -1 -1 -1
 MicOpt= -1 -1 -1 -1 -1 -1 -1 -1 -1 -1 -1 -1 -1 -1 -1 -1 -1 -1 -1 -1
 MicOpt= -1 -1 -1 -1 -1 -1 -1 -1 -1 -1
 NAtoms=     50 NQM=       50 NQMF=       0 NMMI=      0 NMMIF=      0
                NMic=       0 NMicF=      0.
                          Input orientation:                          
 ---------------------------------------------------------------------
 Center     Atomic      Atomic             Coordinates (Angstroms)
 Number     Number       Type             X           Y           Z
 ---------------------------------------------------------------------
      1          6           0        7.276138    4.724330    0.360911
      2          1           0        6.853487    5.450312    1.062890
      3          1           0        6.932711    3.726293    0.651752
      4          1           0        8.368057    4.754189    0.444618
      5          6           0        6.844598    5.044146   -1.060698
      6          1           0        7.203554    6.044049   -1.359954
      7          1           0        7.276680    4.319345   -1.771404
      8          8           0        5.427500    5.001424   -1.122884
      9          6           0        4.915372    5.298085   -2.408625
     10          1           0        5.319150    4.600952   -3.161542
     11          1           0        5.206427    6.320883   -2.710001
     12          6           0        3.395440    5.199436   -2.397615
     13          1           0        3.000171    5.779497   -1.548706
     14          1           0        3.016346    5.647272   -3.323864
     15          8           0        2.895846    3.874875   -2.378904
     16          6           0        2.872412    3.249935   -1.102819
     17          1           0        2.355447    3.885995   -0.367057
     18          1           0        3.883240    3.058836   -0.725903
     19          6           0        2.114427    1.940656   -1.270652
     20          1           0        2.631307    1.302406   -2.005191
     21          1           0        1.107581    2.150585   -1.661792
     22          8           0        2.072660    1.311251    0.000000
     23          6           0        1.533632    0.000000    0.000000
     24          1           0        1.893753   -0.480048    0.915140
     25          1           0        1.921721   -0.574040   -0.855998
     26          6           0        0.000000    0.000000    0.000000
     27          1           0       -0.406191    0.495314   -0.888376
     28          1           0       -0.362018    0.549009    0.874969
     29         16           0       -0.731909   -1.678397    0.129785
     30          6           0       -0.541958   -2.273219   -1.604208
     31          1           0       -1.012918   -1.552780   -2.281260
     32          1           0        0.519095   -2.348496   -1.860757
     33          6           0       -1.212833   -3.639632   -1.734979
     34          1           0       -2.280376   -3.561061   -1.502619
     35          1           0       -0.756954   -4.349414   -1.037523
     36         16           0       -1.018921   -4.242811   -3.464405
     37          6           0       -2.034045   -5.777245   -3.407318
     38          1           0       -2.220854   -6.036844   -4.453349
     39          1           0       -3.002733   -5.538635   -2.955276
     40          6           0       -1.351967   -6.945026   -2.692573
     41          1           0       -0.413327   -7.194502   -3.195644
     42          1           0       -1.103350   -6.693642   -1.656971
     43         16           0       -2.347081   -8.492987   -2.718488
     44          6           0       -3.576933   -8.177658   -1.384107
     45          1           0       -4.058849   -7.209682   -1.559906
     46          1           0       -4.343629   -8.943270   -1.543244
     47          6           0       -3.016890   -8.268470    0.034779
     48          1           0       -2.241430   -7.516042    0.214928
     49          1           0       -3.815242   -8.101290    0.768872
     50          1           0       -2.578322   -9.253791    0.219886
 ---------------------------------------------------------------------
 Stoichiometry    C14H30O3S3
 Framework group  C1[X(C14H30O3S3)]
 Standard basis: 6-31G(d) (6D, 7F)
   372 basis functions,   752 primitive gaussians,   372 cartesian basis functions
    93 alpha electrons       93 beta electrons
 Requested convergence on RMS density matrix=1.00D-08 within  64 cycles.
 Requested convergence on MAX density matrix=1.00D-06.
 Requested convergence on             energy=1.00D-06.
 SCF Done:  E(RB3LYP) =  -1971.75681955     A.U. after   13 cycles
            NFock= 13  Conv=0.40D-08     -V/T= 2.0058
 Mulliken charges:
     1  C   -0.454876
     2  H    0.159139
     3  H    0.160865
     4  H    0.144200
     5  C   -0.003905
     6  H    0.118913
     7  H    0.122219
     8  O   -0.469459
     9  C   -0.017979
    10  H    0.130287
    11  H    0.114753
    12  C   -0.036094
    13  H    0.134225
    14  H    0.143032
    15  O   -0.485079
    16  C   -0.029476
    17  H    0.129345
    18  H    0.157235
    19  C   -0.033301
    20  H    0.130654
    21  H    0.129829
    22  O   -0.480152
    23  C   -0.009477
    24  H    0.159481
    25  H    0.126633
    26  C   -0.439751
    27  H    0.174078
    28  H    0.187490
    29  S    0.083336
    30  C   -0.416812
    31  H    0.185091
    32  H    0.187695
    33  C   -0.417517
    34  H    0.182349
    35  H    0.184132
    36  S    0.086975
    37  C   -0.410923
    38  H    0.192805
    39  H    0.173735
    40  C   -0.414755
    41  H    0.191647
    42  H    0.176982
    43  S    0.083121
    44  C   -0.411255
    45  H    0.167816
    46  H    0.179015
    47  C   -0.434502
    48  H    0.151459
    49  H    0.150674
    50  H    0.166103
 Sum of Mulliken charges =  -0.00000
 Dipole moment (field-independent basis, Debye):
    X=              0.5754    Y=              1.8195    Z=              0.3399  Tot=              1.9384
 Quadrupole moment (field-independent basis, Debye-Ang):
   XX=           -128.7952   YY=           -147.1249   ZZ=           -155.6216
   XY=             15.2066   XZ=             -6.3759   YZ=            -15.6886
 Traceless Quadrupole moment (field-independent basis, Debye-Ang):
   XX=             15.0520   YY=             -3.2777   ZZ=            -11.7743
   XY=             15.2066   XZ=             -6.3759   YZ=            -15.6886
 Octapole moment (field-independent basis, Debye-Ang**2):
  XXX=           -249.2687  YYY=            815.0591  ZZZ=            691.6106  XYY=            -87.7543
  XXY=            238.4348  XXZ=            191.2093  XZZ=            -93.1339  YZZ=            262.7161
  YYZ=            287.4125  XYZ=             -8.9145
 Hexadecapole moment (field-independent basis, Debye-Ang**3):
 XXXX=          -8421.5178 YYYY=         -24293.4789 ZZZZ=          -3741.4533 XXXY=          -4979.6713
 XXXZ=           -101.6105 YYYX=          -5254.1681 YYYZ=          -2958.4995 ZZZX=            -16.9161
 ZZZY=          -1869.3529 XXYY=          -4640.3329 XXZZ=          -2177.1696 YYZZ=          -4742.8299
 XXYZ=           -751.6872 YYXZ=           -384.7129 ZZXY=          -2000.4497
 Merz-Kollman atomic radii used.
 Atom Element Radius
    1     6    1.50
    2     1    1.20
    3     1    1.20
    4     1    1.20
    5     6    1.50
    6     1    1.20
    7     1    1.20
    8     8    1.40
    9     6    1.50
   10     1    1.20
   11     1    1.20
   12     6    1.50
   13     1    1.20
   14     1    1.20
   15     8    1.40
   16     6    1.50
   17     1    1.20
   18     1    1.20
   19     6    1.50
   20     1    1.20
   21     1    1.20
   22     8    1.40
   23     6    1.50
   24     1    1.20
   25     1    1.20
   26     6    1.50
   27     1    1.20
   28     1    1.20
   29    16    1.75
   30     6    1.50
   31     1    1.20
   32     1    1.20
   33     6    1.50
   34     1    1.20
   35     1    1.20
   36    16    1.75
   37     6    1.50
   38     1    1.20
   39     1    1.20
   40     6    1.50
   41     1    1.20
   42     1    1.20
   43    16    1.75
   44     6    1.50
   45     1    1.20
   46     1    1.20
   47     6    1.50
   48     1    1.20
   49     1    1.20
   50     1    1.20
 Generate VDW surfaces: Layer= 4 Dens= 1 Start= 1.400 Inc= 0.200
            Electrostatic Properties Using The SCF Density.


       Atomic Center    1 is at   7.276138  4.724330  0.360911
       Atomic Center    2 is at   6.853487  5.450312  1.062890
       Atomic Center    3 is at   6.932711  3.726293  0.651752
       Atomic Center    4 is at   8.368057  4.754189  0.444618
       Atomic Center    5 is at   6.844598  5.044146 -1.060698
       Atomic Center    6 is at   7.203554  6.044049 -1.359954
       Atomic Center    7 is at   7.276680  4.319345 -1.771404
       Atomic Center    8 is at   5.427500  5.001424 -1.122884
       Atomic Center    9 is at   4.915372  5.298085 -2.408625
       Atomic Center   10 is at   5.319150  4.600952 -3.161542
       Atomic Center   11 is at   5.206427  6.320883 -2.710001
       Atomic Center   12 is at   3.395440  5.199436 -2.397615
       Atomic Center   13 is at   3.000171  5.779497 -1.548706
       Atomic Center   14 is at   3.016346  5.647272 -3.323864
       Atomic Center   15 is at   2.895846  3.874875 -2.378904
       Atomic Center   16 is at   2.872412  3.249935 -1.102819
       Atomic Center   17 is at   2.355447  3.885995 -0.367057
       Atomic Center   18 is at   3.883240  3.058836 -0.725903
       Atomic Center   19 is at   2.114427  1.940656 -1.270652
       Atomic Center   20 is at   2.631307  1.302406 -2.005191
       Atomic Center   21 is at   1.107581  2.150585 -1.661792
       Atomic Center   22 is at   2.072660  1.311251  0.000000
       Atomic Center   23 is at   1.533632  0.000000  0.000000
       Atomic Center   24 is at   1.893753 -0.480048  0.915140
       Atomic Center   25 is at   1.921721 -0.574040 -0.855998
       Atomic Center   26 is at   0.000000  0.000000  0.000000
       Atomic Center   27 is at  -0.406191  0.495314 -0.888376
       Atomic Center   28 is at  -0.362018  0.549009  0.874969
       Atomic Center   29 is at  -0.731909 -1.678397  0.129785
       Atomic Center   30 is at  -0.541958 -2.273219 -1.604208
       Atomic Center   31 is at  -1.012918 -1.552780 -2.281260
       Atomic Center   32 is at   0.519095 -2.348496 -1.860757
       Atomic Center   33 is at  -1.212833 -3.639632 -1.734979
       Atomic Center   34 is at  -2.280376 -3.561061 -1.502619
       Atomic Center   35 is at  -0.756954 -4.349414 -1.037523
       Atomic Center   36 is at  -1.018921 -4.242811 -3.464405
       Atomic Center   37 is at  -2.034045 -5.777245 -3.407318
       Atomic Center   38 is at  -2.220854 -6.036844 -4.453349
       Atomic Center   39 is at  -3.002733 -5.538635 -2.955276
       Atomic Center   40 is at  -1.351967 -6.945026 -2.692573
       Atomic Center   41 is at  -0.413327 -7.194502 -3.195644
       Atomic Center   42 is at  -1.103350 -6.693642 -1.656971
       Atomic Center   43 is at  -2.347081 -8.492987 -2.718488
       Atomic Center   44 is at  -3.576933 -8.177658 -1.384107
       Atomic Center   45 is at  -4.058849 -7.209682 -1.559906
       Atomic Center   46 is at  -4.343629 -8.943270 -1.543244
       Atomic Center   47 is at  -3.016890 -8.268470  0.034779
       Atomic Center   48 is at  -2.241430 -7.516042  0.214928
       Atomic Center   49 is at  -3.815242 -8.101290  0.768872
       Atomic Center   50 is at  -2.578322 -9.253791  0.219886
      ESP Fit Center   51 is at   8.326138  4.724330  2.179564
      ESP Fit Center   52 is at   7.801138  3.815003  2.179564
      ESP Fit Center   53 is at   8.469074  6.452596  0.360911
      ESP Fit Center   54 is at   8.469074  2.996064  0.360911
      ESP Fit Center   55 is at   8.031634  3.070025 -0.689089
      ESP Fit Center   56 is at   6.853487  5.450312  2.742890
      ESP Fit Center   57 is at   7.840966  5.450312  2.422039
      ESP Fit Center   58 is at   7.158635  6.389461  2.422039
      ESP Fit Center   59 is at   6.054600  6.030738  2.422039
      ESP Fit Center   60 is at   6.054600  4.869886  2.422039
      ESP Fit Center   61 is at   8.077454  6.477342  1.582039
      ESP Fit Center   62 is at   7.130938  7.023813  1.582039
      ESP Fit Center   63 is at   6.054600  6.834026  1.582039
      ESP Fit Center   64 is at   5.352070  5.996783  1.582039
      ESP Fit Center   65 is at   5.352070  4.903841  1.582039
      ESP Fit Center   66 is at   7.130938  7.023813  0.543741
      ESP Fit Center   67 is at   6.054600  6.834026  0.543741
      ESP Fit Center   68 is at   6.932711  3.726293  2.331752
      ESP Fit Center   69 is at   6.133824  3.145867  2.010901
      ESP Fit Center   70 is at   7.237859  2.787144  2.010901
      ESP Fit Center   71 is at   5.431294  3.179822  1.170901
      ESP Fit Center   72 is at   6.133824  2.342579  1.170901
      ESP Fit Center   73 is at   7.210162  2.152792  1.170901
      ESP Fit Center   74 is at   8.156678  2.699263  1.170901
      ESP Fit Center   75 is at   5.431294  3.179822  0.132603
      ESP Fit Center   76 is at   6.133824  2.342579  0.132603
      ESP Fit Center   77 is at   7.210162  2.152792  0.132603
      ESP Fit Center   78 is at   8.156678  2.699263  0.132603
      ESP Fit Center   79 is at   7.237859  2.787144 -0.707397
      ESP Fit Center   80 is at   9.355536  4.754189  1.803767
      ESP Fit Center   81 is at   8.673205  5.693338  1.803767
      ESP Fit Center   82 is at   8.673205  3.815040  1.803767
      ESP Fit Center   83 is at   9.965832  4.754189  0.963767
      ESP Fit Center   84 is at   9.592024  5.781219  0.963767
      ESP Fit Center   85 is at   8.645508  6.327690  0.963767
      ESP Fit Center   86 is at   8.645508  3.180688  0.963767
      ESP Fit Center   87 is at   9.592024  3.727159  0.963767
      ESP Fit Center   88 is at   9.965832  4.754189 -0.074531
      ESP Fit Center   89 is at   9.592024  5.781219 -0.074531
      ESP Fit Center   90 is at   8.645508  6.327690 -0.074531
      ESP Fit Center   91 is at   8.645508  3.180688 -0.074531
      ESP Fit Center   92 is at   9.592024  3.727159 -0.074531
      ESP Fit Center   93 is at   9.355536  4.754189 -0.914531
      ESP Fit Center   94 is at   6.585777  6.844288 -0.010698
      ESP Fit Center   95 is at   6.099928  3.080612 -1.060698
      ESP Fit Center   96 is at   7.508702  6.983198 -0.000805
      ESP Fit Center   97 is at   8.801329  6.044049 -0.840805
      ESP Fit Center   98 is at   8.427521  7.071079 -0.840805
      ESP Fit Center   99 is at   7.481005  7.617550 -0.840805
      ESP Fit Center  100 is at   6.404667  7.427763 -0.840805
      ESP Fit Center  101 is at   8.801329  6.044049 -1.879103
      ESP Fit Center  102 is at   8.427521  7.071079 -1.879103
      ESP Fit Center  103 is at   7.481005  7.617550 -1.879103
      ESP Fit Center  104 is at   6.404667  7.427763 -1.879103
      ESP Fit Center  105 is at   8.191033  6.044049 -2.719103
      ESP Fit Center  106 is at   7.508702  6.983198 -2.719103
      ESP Fit Center  107 is at   7.203554  6.044049 -3.039954
      ESP Fit Center  108 is at   8.874455  4.319345 -1.252255
      ESP Fit Center  109 is at   6.477793  2.935631 -1.252255
      ESP Fit Center  110 is at   7.554131  2.745844 -1.252255
      ESP Fit Center  111 is at   8.500647  3.292315 -1.252255
      ESP Fit Center  112 is at   8.874455  4.319345 -2.290553
      ESP Fit Center  113 is at   6.477793  2.935631 -2.290553
      ESP Fit Center  114 is at   7.554131  2.745844 -2.290553
      ESP Fit Center  115 is at   8.500647  3.292315 -2.290553
      ESP Fit Center  116 is at   8.264159  4.319345 -3.130553
      ESP Fit Center  117 is at   7.581828  5.258494 -3.130553
      ESP Fit Center  118 is at   7.581828  3.380196 -3.130553
      ESP Fit Center  119 is at   7.276680  4.319345 -3.451404
      ESP Fit Center  120 is at   4.937500  5.850129  0.574526
      ESP Fit Center  121 is at   4.447500  5.001424  0.574526
      ESP Fit Center  122 is at   4.937500  4.152719  0.574526
      ESP Fit Center  123 is at   4.902972  6.615757 -0.142884
      ESP Fit Center  124 is at   4.054267  5.999136 -0.142884
      ESP Fit Center  125 is at   3.730090  5.001424 -0.142884
      ESP Fit Center  126 is at   5.427500  6.961424 -1.122884
      ESP Fit Center  127 is at   4.390372  6.207412 -4.227278
      ESP Fit Center  128 is at   5.596601  3.027451 -2.642393
      ESP Fit Center  129 is at   6.916925  4.600952 -3.680691
      ESP Fit Center  130 is at   4.520263  3.217238 -3.680691
      ESP Fit Center  131 is at   5.596601  3.027451 -3.680691
      ESP Fit Center  132 is at   6.543117  3.573922 -3.680691
      ESP Fit Center  133 is at   6.306629  4.600952 -4.520691
      ESP Fit Center  134 is at   5.624298  5.540101 -4.520691
      ESP Fit Center  135 is at   4.520263  5.181378 -4.520691
      ESP Fit Center  136 is at   4.520263  4.020526 -4.520691
      ESP Fit Center  137 is at   5.624298  3.661803 -4.520691
      ESP Fit Center  138 is at   5.319150  4.600952 -4.841542
      ESP Fit Center  139 is at   5.511575  7.260032 -1.350852
      ESP Fit Center  140 is at   6.430394  7.347913 -2.190852
      ESP Fit Center  141 is at   5.483878  7.894384 -2.190852
      ESP Fit Center  142 is at   4.407540  7.704597 -2.190852
      ESP Fit Center  143 is at   6.804202  6.320883 -3.229150
      ESP Fit Center  144 is at   6.430394  7.347913 -3.229150
      ESP Fit Center  145 is at   5.483878  7.894384 -3.229150
      ESP Fit Center  146 is at   4.407540  7.704597 -3.229150
      ESP Fit Center  147 is at   6.193906  6.320883 -4.069150
      ESP Fit Center  148 is at   5.511575  7.260032 -4.069150
      ESP Fit Center  149 is at   4.407540  6.901309 -4.069150
      ESP Fit Center  150 is at   5.206427  6.320883 -4.390001
      ESP Fit Center  151 is at   3.648567  7.284125 -2.397615
      ESP Fit Center  152 is at   1.356462  5.701999 -2.397615
      ESP Fit Center  153 is at   3.920440  4.290109 -4.216268
      ESP Fit Center  154 is at   3.000171  5.779497  0.131294
      ESP Fit Center  155 is at   3.305319  6.718646 -0.189557
      ESP Fit Center  156 is at   2.201284  6.359923 -0.189557
      ESP Fit Center  157 is at   4.224138  6.806527 -1.029557
      ESP Fit Center  158 is at   3.277622  7.352998 -1.029557
      ESP Fit Center  159 is at   2.201284  7.163211 -1.029557
      ESP Fit Center  160 is at   1.498754  6.325968 -1.029557
      ESP Fit Center  161 is at   1.498754  5.233026 -1.029557
      ESP Fit Center  162 is at   3.277622  7.352998 -2.067855
      ESP Fit Center  163 is at   2.201284  7.163211 -2.067855
      ESP Fit Center  164 is at   1.498754  6.325968 -2.067855
      ESP Fit Center  165 is at   2.217459  7.030986 -2.804715
      ESP Fit Center  166 is at   1.514929  6.193743 -2.804715
      ESP Fit Center  167 is at   3.293797  7.220773 -3.843013
      ESP Fit Center  168 is at   2.217459  7.030986 -3.843013
      ESP Fit Center  169 is at   1.514929  6.193743 -3.843013
      ESP Fit Center  170 is at   1.514929  5.100801 -3.843013
      ESP Fit Center  171 is at   4.003825  5.647272 -4.683013
      ESP Fit Center  172 is at   3.321494  6.586421 -4.683013
      ESP Fit Center  173 is at   2.217459  6.227698 -4.683013
      ESP Fit Center  174 is at   2.217459  5.066846 -4.683013
      ESP Fit Center  175 is at   3.321494  4.708123 -4.683013
      ESP Fit Center  176 is at   3.016346  5.647272 -5.003864
      ESP Fit Center  177 is at   1.198436  4.854875 -2.378904
      ESP Fit Center  178 is at   0.935846  3.874875 -2.378904
      ESP Fit Center  179 is at   4.593256  2.894875 -2.378904
      ESP Fit Center  180 is at   1.522613  4.872587 -3.358904
      ESP Fit Center  181 is at   1.198436  3.874875 -3.358904
      ESP Fit Center  182 is at   1.522613  2.877163 -3.358904
      ESP Fit Center  183 is at   3.420374  2.260542 -3.358904
      ESP Fit Center  184 is at   4.269079  2.877163 -3.358904
      ESP Fit Center  185 is at   3.875846  3.874875 -4.076314
      ESP Fit Center  186 is at   1.915846  3.874875 -4.076314
      ESP Fit Center  187 is at   2.405846  3.026170 -4.076314
      ESP Fit Center  188 is at   3.385846  3.026170 -4.076314
      ESP Fit Center  189 is at   2.895846  3.874875 -4.338904
      ESP Fit Center  190 is at   0.833434  3.752498 -1.102819
      ESP Fit Center  191 is at   4.402361  2.266697 -2.152819
      ESP Fit Center  192 is at   2.355447  3.885995  1.312943
      ESP Fit Center  193 is at   3.342926  3.885995  0.992092
      ESP Fit Center  194 is at   2.660595  4.825144  0.992092
      ESP Fit Center  195 is at   1.556560  4.466421  0.992092
      ESP Fit Center  196 is at   1.556560  3.305569  0.992092
      ESP Fit Center  197 is at   2.660595  2.946846  0.992092
      ESP Fit Center  198 is at   3.579414  4.913025  0.152092
      ESP Fit Center  199 is at   2.632898  5.459496  0.152092
      ESP Fit Center  200 is at   1.556560  5.269709  0.152092
      ESP Fit Center  201 is at   0.854030  4.432466  0.152092
      ESP Fit Center  202 is at   0.854030  3.339524  0.152092
      ESP Fit Center  203 is at   0.854030  4.432466 -0.886206
      ESP Fit Center  204 is at   3.883240  3.058836  0.954097
      ESP Fit Center  205 is at   4.870719  3.058836  0.633246
      ESP Fit Center  206 is at   4.188388  3.997985  0.633246
      ESP Fit Center  207 is at   4.188388  2.119687  0.633246
      ESP Fit Center  208 is at   5.481015  3.058836 -0.206754
      ESP Fit Center  209 is at   4.160691  1.485335 -0.206754
      ESP Fit Center  210 is at   5.107207  2.031806 -0.206754
      ESP Fit Center  211 is at   5.107207  2.031806 -1.245052
      ESP Fit Center  212 is at   4.870719  3.058836 -2.085052
      ESP Fit Center  213 is at   0.923462  0.566210 -2.320652
      ESP Fit Center  214 is at   4.229082  1.302406 -1.486042
      ESP Fit Center  215 is at   3.855274  0.275376 -1.486042
      ESP Fit Center  216 is at   4.229082  1.302406 -2.524340
      ESP Fit Center  217 is at   1.832420 -0.081308 -2.524340
      ESP Fit Center  218 is at   2.908758 -0.271095 -2.524340
      ESP Fit Center  219 is at   3.855274  0.275376 -2.524340
      ESP Fit Center  220 is at   3.618786  1.302406 -3.364340
      ESP Fit Center  221 is at   1.832420  1.882832 -3.364340
      ESP Fit Center  222 is at   1.832420  0.721980 -3.364340
      ESP Fit Center  223 is at   2.936455  0.363257 -3.364340
      ESP Fit Center  224 is at   2.631307  1.302406 -3.685191
      ESP Fit Center  225 is at   0.308694  2.731011 -0.302643
      ESP Fit Center  226 is at   0.308694  3.534299 -1.142643
      ESP Fit Center  227 is at  -0.393836  2.697056 -1.142643
      ESP Fit Center  228 is at   0.308694  3.534299 -2.180941
      ESP Fit Center  229 is at  -0.393836  2.697056 -2.180941
      ESP Fit Center  230 is at  -0.393836  1.604114 -2.180941
      ESP Fit Center  231 is at   0.308694  2.731011 -3.020941
      ESP Fit Center  232 is at   0.308694  1.570159 -3.020941
      ESP Fit Center  233 is at   1.107581  2.150585 -3.341792
      ESP Fit Center  234 is at   2.072660  1.311251  1.960000
      ESP Fit Center  235 is at   3.052660  1.311251  1.697410
      ESP Fit Center  236 is at   2.562660  2.159956  1.697410
      ESP Fit Center  237 is at   1.582660  2.159956  1.697410
      ESP Fit Center  238 is at   1.092660  1.311251  1.697410
      ESP Fit Center  239 is at   3.770070  1.311251  0.980000
      ESP Fit Center  240 is at   3.445893  2.308963  0.980000
      ESP Fit Center  241 is at   1.548132  2.925584  0.980000
      ESP Fit Center  242 is at   0.699427  2.308963  0.980000
      ESP Fit Center  243 is at   3.445893  0.313539  0.980000
      ESP Fit Center  244 is at   4.032660  1.311251  0.000000
      ESP Fit Center  245 is at   0.375250  2.291251  0.000000
      ESP Fit Center  246 is at   3.770070  0.331251  0.000000
      ESP Fit Center  247 is at   1.008632  0.909327  1.818653
      ESP Fit Center  248 is at   3.633632  0.000000  0.000000
      ESP Fit Center  249 is at   1.786759 -2.084689  0.000000
      ESP Fit Center  250 is at   3.393090 -0.975919  0.000000
      ESP Fit Center  251 is at   1.893753 -0.480048  2.595140
      ESP Fit Center  252 is at   2.881232 -0.480048  2.274289
      ESP Fit Center  253 is at   2.198901  0.459101  2.274289
      ESP Fit Center  254 is at   1.094866  0.100378  2.274289
      ESP Fit Center  255 is at   1.094866 -1.060474  2.274289
      ESP Fit Center  256 is at   2.198901 -1.419197  2.274289
      ESP Fit Center  257 is at   3.491528 -0.480048  1.434289
      ESP Fit Center  258 is at   2.171204 -2.053549  1.434289
      ESP Fit Center  259 is at   3.117720 -1.507078  1.434289
      ESP Fit Center  260 is at   2.171204 -2.053549  0.395991
      ESP Fit Center  261 is at   3.117720 -1.507078  0.395991
      ESP Fit Center  262 is at   2.199172 -2.147541 -0.336849
      ESP Fit Center  263 is at   3.145688 -1.601070 -0.336849
      ESP Fit Center  264 is at   3.519496 -0.574040 -1.375147
      ESP Fit Center  265 is at   2.199172 -2.147541 -1.375147
      ESP Fit Center  266 is at   3.145688 -1.601070 -1.375147
      ESP Fit Center  267 is at   2.909200 -0.574040 -2.215147
      ESP Fit Center  268 is at   1.122834  0.006386 -2.215147
      ESP Fit Center  269 is at   2.226869 -1.513189 -2.215147
      ESP Fit Center  270 is at   1.921721 -0.574040 -2.535998
      ESP Fit Center  271 is at   0.253127  2.084689  0.000000
      ESP Fit Center  272 is at  -0.744670  1.963534  0.000000
      ESP Fit Center  273 is at  -1.571873  1.392558  0.000000
      ESP Fit Center  274 is at  -2.038978  0.502563  0.000000
      ESP Fit Center  275 is at  -0.128740  2.068815 -0.369227
      ESP Fit Center  276 is at  -1.205078  1.879028 -0.369227
      ESP Fit Center  277 is at  -1.907608  1.041785 -0.369227
      ESP Fit Center  278 is at  -1.205078  1.879028 -1.407525
      ESP Fit Center  279 is at  -1.907608  1.041785 -1.407525
      ESP Fit Center  280 is at  -1.907608 -0.051157 -1.407525
      ESP Fit Center  281 is at   0.581288  0.495314 -2.247525
      ESP Fit Center  282 is at  -1.205078  1.075740 -2.247525
      ESP Fit Center  283 is at  -0.406191  0.495314 -2.568376
      ESP Fit Center  284 is at  -0.362018  0.549009  2.554969
      ESP Fit Center  285 is at   0.625461  0.549009  2.234118
      ESP Fit Center  286 is at  -0.056870  1.488158  2.234118
      ESP Fit Center  287 is at  -1.160905  1.129435  2.234118
      ESP Fit Center  288 is at  -1.160905 -0.031417  2.234118
      ESP Fit Center  289 is at  -0.056870 -0.390140  2.234118
      ESP Fit Center  290 is at  -0.084567  2.122510  1.394118
      ESP Fit Center  291 is at  -1.160905  1.932723  1.394118
      ESP Fit Center  292 is at  -1.863435  1.095480  1.394118
      ESP Fit Center  293 is at  -0.084567  2.122510  0.355820
      ESP Fit Center  294 is at  -1.160905  1.932723  0.355820
      ESP Fit Center  295 is at  -1.863435  1.095480  0.355820
      ESP Fit Center  296 is at  -0.731909 -1.678397  2.579785
      ESP Fit Center  297 is at   0.331106 -1.678397  2.337159
      ESP Fit Center  298 is at  -0.200401 -0.757799  2.337159
      ESP Fit Center  299 is at  -1.263417 -0.757799  2.337159
      ESP Fit Center  300 is at  -1.794924 -1.678397  2.337159
      ESP Fit Center  301 is at  -1.263417 -2.598995  2.337159
      ESP Fit Center  302 is at  -0.200401 -2.598995  2.337159
      ESP Fit Center  303 is at  -1.986286 -0.230768  1.657335
      ESP Fit Center  304 is at  -2.569805 -1.138742  1.657335
      ESP Fit Center  305 is at  -2.569805 -2.218052  1.657335
      ESP Fit Center  306 is at  -1.986286 -3.126026  1.657335
      ESP Fit Center  307 is at  -1.004511 -3.574387  1.657335
      ESP Fit Center  308 is at   0.063813 -3.420785  1.657335
      ESP Fit Center  309 is at   0.879501 -2.713988  1.657335
      ESP Fit Center  310 is at  -2.221160  0.189065  0.674961
      ESP Fit Center  311 is at  -2.883939 -0.642034  0.674961
      ESP Fit Center  312 is at  -3.120482 -1.678397  0.674961
      ESP Fit Center  313 is at  -2.883939 -2.714760  0.674961
      ESP Fit Center  314 is at  -2.221160 -3.545859  0.674961
      ESP Fit Center  315 is at  -1.263417 -4.007084  0.674961
      ESP Fit Center  316 is at  -0.200401 -4.007084  0.674961
      ESP Fit Center  317 is at   0.757342 -3.545859  0.674961
      ESP Fit Center  318 is at   1.420121 -2.714760  0.674961
      ESP Fit Center  319 is at  -2.221160  0.189065 -0.415391
      ESP Fit Center  320 is at  -2.883939 -0.642034 -0.415391
      ESP Fit Center  321 is at  -3.120482 -1.678397 -0.415391
      ESP Fit Center  322 is at   0.757342 -3.545859 -0.415391
      ESP Fit Center  323 is at   1.420121 -2.714760 -0.415391
      ESP Fit Center  324 is at  -1.986286 -0.230768 -1.397765
      ESP Fit Center  325 is at  -2.569805 -1.138742 -1.397765
      ESP Fit Center  326 is at  -2.580936 -1.770656 -1.604208
      ESP Fit Center  327 is at  -1.811805 -0.169066 -1.762111
      ESP Fit Center  328 is at  -2.514335 -1.006309 -1.762111
      ESP Fit Center  329 is at   0.211049 -0.525750 -2.800409
      ESP Fit Center  330 is at  -0.735467  0.020721 -2.800409
      ESP Fit Center  331 is at  -1.811805 -0.169066 -2.800409
      ESP Fit Center  332 is at  -2.514335 -1.006309 -2.800409
      ESP Fit Center  333 is at  -2.514335 -2.099251 -2.800409
      ESP Fit Center  334 is at  -0.025439 -1.552780 -3.640409
      ESP Fit Center  335 is at  -0.707770 -0.613631 -3.640409
      ESP Fit Center  336 is at  -1.811805 -0.972354 -3.640409
      ESP Fit Center  337 is at  -1.012918 -1.552780 -3.961260
      ESP Fit Center  338 is at   2.116870 -2.348496 -1.341608
      ESP Fit Center  339 is at   1.743062 -3.375526 -1.341608
      ESP Fit Center  340 is at   2.116870 -2.348496 -2.379906
      ESP Fit Center  341 is at   1.743062 -1.321466 -2.379906
      ESP Fit Center  342 is at   0.796546 -0.774995 -2.379906
      ESP Fit Center  343 is at   1.743062 -3.375526 -2.379906
      ESP Fit Center  344 is at   1.506574 -2.348496 -3.219906
      ESP Fit Center  345 is at   0.824243 -1.409347 -3.219906
      ESP Fit Center  346 is at  -3.079263 -2.980635 -0.143470
      ESP Fit Center  347 is at  -3.079263 -4.141487 -0.143470
      ESP Fit Center  348 is at  -3.079263 -2.177347 -0.983470
      ESP Fit Center  349 is at  -3.781793 -3.014590 -0.983470
      ESP Fit Center  350 is at  -3.781793 -4.107532 -0.983470
      ESP Fit Center  351 is at  -3.079263 -4.944775 -0.983470
      ESP Fit Center  352 is at  -3.079263 -2.177347 -2.021768
      ESP Fit Center  353 is at  -3.781793 -3.014590 -2.021768
      ESP Fit Center  354 is at  -3.781793 -4.107532 -2.021768
      ESP Fit Center  355 is at  -3.079263 -2.980635 -2.861768
      ESP Fit Center  356 is at  -0.756954 -4.349414  0.642477
      ESP Fit Center  357 is at   0.230525 -4.349414  0.321626
      ESP Fit Center  358 is at  -1.555841 -4.929840  0.321626
      ESP Fit Center  359 is at  -0.451806 -5.288563  0.321626
      ESP Fit Center  360 is at   0.840821 -4.349414 -0.518374
      ESP Fit Center  361 is at   0.467013 -5.376444 -0.518374
      ESP Fit Center  362 is at   0.840821 -4.349414 -1.556672
      ESP Fit Center  363 is at   0.467013 -5.376444 -1.556672
      ESP Fit Center  364 is at   0.896566 -4.242811 -1.936855
      ESP Fit Center  365 is at   0.592489 -5.278402 -1.936855
      ESP Fit Center  366 is at   1.369652 -4.242811 -2.919229
      ESP Fit Center  367 is at  -2.508172 -2.375349 -2.919229
      ESP Fit Center  368 is at  -3.170951 -3.206448 -2.919229
      ESP Fit Center  369 is at   1.133109 -5.279174 -2.919229
      ESP Fit Center  370 is at   1.369652 -4.242811 -4.009581
      ESP Fit Center  371 is at   1.133109 -3.206448 -4.009581
      ESP Fit Center  372 is at   0.470330 -2.375349 -4.009581
      ESP Fit Center  373 is at  -0.487413 -1.914124 -4.009581
      ESP Fit Center  374 is at  -1.550429 -1.914124 -4.009581
      ESP Fit Center  375 is at  -2.508172 -2.375349 -4.009581
      ESP Fit Center  376 is at  -3.170951 -3.206448 -4.009581
      ESP Fit Center  377 is at  -3.407494 -4.242811 -4.009581
      ESP Fit Center  378 is at   1.133109 -5.279174 -4.009581
      ESP Fit Center  379 is at   0.896566 -4.242811 -4.991955
      ESP Fit Center  380 is at   0.592489 -3.207220 -4.991955
      ESP Fit Center  381 is at  -0.223199 -2.500423 -4.991955
      ESP Fit Center  382 is at  -1.291523 -2.346821 -4.991955
      ESP Fit Center  383 is at  -2.273298 -2.795182 -4.991955
      ESP Fit Center  384 is at  -2.856817 -3.703156 -4.991955
      ESP Fit Center  385 is at  -0.223199 -5.985199 -4.991955
      ESP Fit Center  386 is at   0.592489 -5.278402 -4.991955
      ESP Fit Center  387 is at   0.044094 -4.242811 -5.671779
      ESP Fit Center  388 is at  -0.487413 -3.322213 -5.671779
      ESP Fit Center  389 is at  -1.550429 -3.322213 -5.671779
      ESP Fit Center  390 is at  -2.081936 -4.242811 -5.671779
      ESP Fit Center  391 is at  -0.487413 -5.163409 -5.671779
      ESP Fit Center  392 is at  -1.018921 -4.242811 -5.914405
      ESP Fit Center  393 is at  -3.779030 -5.264871 -4.457318
      ESP Fit Center  394 is at  -3.019741 -4.653130 -4.972498
      ESP Fit Center  395 is at  -3.722271 -5.490373 -4.972498
      ESP Fit Center  396 is at  -3.722271 -6.583315 -4.972498
      ESP Fit Center  397 is at  -3.019741 -7.420558 -4.972498
      ESP Fit Center  398 is at  -1.943403 -7.610345 -4.972498
      ESP Fit Center  399 is at  -0.996887 -7.063874 -4.972498
      ESP Fit Center  400 is at  -1.233375 -6.036844 -5.812498
      ESP Fit Center  401 is at  -1.915706 -5.097695 -5.812498
      ESP Fit Center  402 is at  -3.019741 -5.456418 -5.812498
      ESP Fit Center  403 is at  -3.019741 -6.617270 -5.812498
      ESP Fit Center  404 is at  -1.915706 -6.975993 -5.812498
      ESP Fit Center  405 is at  -2.220854 -6.036844 -6.133349
      ESP Fit Center  406 is at  -3.002733 -5.538635 -1.275276
      ESP Fit Center  407 is at  -3.801620 -4.958209 -1.596127
      ESP Fit Center  408 is at  -3.801620 -4.154921 -2.436127
      ESP Fit Center  409 is at  -4.504150 -4.992164 -2.436127
      ESP Fit Center  410 is at  -3.801620 -4.154921 -3.474425
      ESP Fit Center  411 is at  -4.504150 -4.992164 -3.474425
      ESP Fit Center  412 is at  -4.504150 -6.085106 -3.474425
      ESP Fit Center  413 is at  -3.801620 -4.958209 -4.314425
      ESP Fit Center  414 is at   0.177982 -7.928264 -1.642573
      ESP Fit Center  415 is at   0.574152 -7.194502 -1.836495
      ESP Fit Center  416 is at   1.184448 -7.194502 -2.676495
      ESP Fit Center  417 is at   0.810640 -6.167472 -2.676495
      ESP Fit Center  418 is at   0.810640 -8.221532 -2.676495
      ESP Fit Center  419 is at   1.184448 -7.194502 -3.714793
      ESP Fit Center  420 is at   0.810640 -6.167472 -3.714793
      ESP Fit Center  421 is at   0.810640 -8.221532 -3.714793
      ESP Fit Center  422 is at   0.574152 -7.194502 -4.554793
      ESP Fit Center  423 is at  -0.108179 -6.255353 -4.554793
      ESP Fit Center  424 is at  -0.108179 -8.133651 -4.554793
      ESP Fit Center  425 is at  -0.413327 -7.194502 -4.875644
      ESP Fit Center  426 is at  -0.115871 -6.693642 -0.297822
      ESP Fit Center  427 is at   0.494425 -6.693642 -1.137822
      ESP Fit Center  428 is at  -2.604767 -6.147171 -1.137822
      ESP Fit Center  429 is at   0.120617 -7.720672 -1.137822
      ESP Fit Center  430 is at  -0.431594 -8.492987 -1.190938
      ESP Fit Center  431 is at  -2.619683-10.388977 -1.190938
      ESP Fit Center  432 is at  -1.551359-10.235375 -1.190938
      ESP Fit Center  433 is at  -0.735671 -9.528578 -1.190938
      ESP Fit Center  434 is at   0.041492 -8.492987 -2.173312
      ESP Fit Center  435 is at  -2.878589-10.821674 -2.173312
      ESP Fit Center  436 is at  -1.815573-10.821674 -2.173312
      ESP Fit Center  437 is at  -0.857830-10.360449 -2.173312
      ESP Fit Center  438 is at  -0.195051 -9.529350 -2.173312
      ESP Fit Center  439 is at  -4.499111 -7.456624 -3.263664
      ESP Fit Center  440 is at  -4.735654 -8.492987 -3.263664
      ESP Fit Center  441 is at  -4.499111 -9.529350 -3.263664
      ESP Fit Center  442 is at  -3.836332-10.360449 -3.263664
      ESP Fit Center  443 is at  -2.878589-10.821674 -3.263664
      ESP Fit Center  444 is at  -1.815573-10.821674 -3.263664
      ESP Fit Center  445 is at  -0.857830-10.360449 -3.263664
      ESP Fit Center  446 is at  -0.195051 -9.529350 -3.263664
      ESP Fit Center  447 is at  -3.601458 -7.045358 -4.246038
      ESP Fit Center  448 is at  -4.184977 -7.953332 -4.246038
      ESP Fit Center  449 is at  -4.184977 -9.032642 -4.246038
      ESP Fit Center  450 is at  -3.601458 -9.940616 -4.246038
      ESP Fit Center  451 is at  -2.619683-10.388977 -4.246038
      ESP Fit Center  452 is at  -1.551359-10.235375 -4.246038
      ESP Fit Center  453 is at  -0.735671 -9.528578 -4.246038
      ESP Fit Center  454 is at  -1.284066 -8.492987 -4.925862
      ESP Fit Center  455 is at  -2.878589 -7.572389 -4.925862
      ESP Fit Center  456 is at  -3.410096 -8.492987 -4.925862
      ESP Fit Center  457 is at  -2.878589 -9.413585 -4.925862
      ESP Fit Center  458 is at  -1.815573 -9.413585 -4.925862
      ESP Fit Center  459 is at  -2.347081 -8.492987 -5.168488
      ESP Fit Center  460 is at  -5.321918 -7.665284 -0.334107
      ESP Fit Center  461 is at  -3.753701 -6.270533 -0.200757
      ESP Fit Center  462 is at  -4.857736 -6.629256 -0.200757
      ESP Fit Center  463 is at  -2.834882 -6.182652 -1.040757
      ESP Fit Center  464 is at  -3.781398 -5.636181 -1.040757
      ESP Fit Center  465 is at  -4.857736 -5.825968 -1.040757
      ESP Fit Center  466 is at  -5.560266 -6.663211 -1.040757
      ESP Fit Center  467 is at  -4.857736 -5.825968 -2.079055
      ESP Fit Center  468 is at  -5.560266 -6.663211 -2.079055
      ESP Fit Center  469 is at  -5.560266 -7.756153 -2.079055
      ESP Fit Center  470 is at  -4.857736 -6.629256 -2.919055
      ESP Fit Center  471 is at  -5.142516 -9.523696 -0.184095
      ESP Fit Center  472 is at  -5.845046 -8.396799 -1.024095
      ESP Fit Center  473 is at  -5.845046 -9.489741 -1.024095
      ESP Fit Center  474 is at  -5.142516-10.326984 -1.024095
      ESP Fit Center  475 is at  -4.066178-10.516771 -1.024095
      ESP Fit Center  476 is at  -5.845046 -8.396799 -2.062393
      ESP Fit Center  477 is at  -5.845046 -9.489741 -2.062393
      ESP Fit Center  478 is at  -5.142516-10.326984 -2.062393
      ESP Fit Center  479 is at  -4.066178-10.516771 -2.062393
      ESP Fit Center  480 is at  -5.142516 -8.362844 -2.902393
      ESP Fit Center  481 is at  -5.142516 -9.523696 -2.902393
      ESP Fit Center  482 is at  -1.966890 -8.268470  1.853432
      ESP Fit Center  483 is at  -3.275711 -6.468328  1.084779
      ESP Fit Center  484 is at  -3.761560 -6.304936  0.034779
      ESP Fit Center  485 is at  -4.588763 -9.661028  0.034779
      ESP Fit Center  486 is at  -2.241430 -7.516042  1.894928
      ESP Fit Center  487 is at  -1.253951 -7.516042  1.574077
      ESP Fit Center  488 is at  -1.936282 -6.576893  1.574077
      ESP Fit Center  489 is at  -0.643655 -7.516042  0.734077
      ESP Fit Center  490 is at  -1.017463 -6.489012  0.734077
      ESP Fit Center  491 is at  -1.963979 -5.942541  0.734077
      ESP Fit Center  492 is at  -3.040317 -6.132328  0.734077
      ESP Fit Center  493 is at  -1.017463 -8.543072  0.734077
      ESP Fit Center  494 is at  -1.963979 -5.942541 -0.304221
      ESP Fit Center  495 is at  -3.040317 -6.132328 -0.304221
      ESP Fit Center  496 is at  -3.815242 -8.101290  2.448872
      ESP Fit Center  497 is at  -2.827763 -8.101290  2.128021
      ESP Fit Center  498 is at  -3.510094 -7.162141  2.128021
      ESP Fit Center  499 is at  -4.614129 -7.520864  2.128021
      ESP Fit Center  500 is at  -4.614129 -8.681716  2.128021
      ESP Fit Center  501 is at  -3.510094 -9.040439  2.128021
      ESP Fit Center  502 is at  -3.537791 -6.527789  1.288021
      ESP Fit Center  503 is at  -4.614129 -6.717576  1.288021
      ESP Fit Center  504 is at  -5.316659 -7.554819  1.288021
      ESP Fit Center  505 is at  -5.316659 -8.647761  1.288021
      ESP Fit Center  506 is at  -4.614129 -9.485004  1.288021
      ESP Fit Center  507 is at  -4.614129 -6.717576  0.249723
      ESP Fit Center  508 is at  -5.316659 -7.554819  0.249723
      ESP Fit Center  509 is at  -5.316659 -8.647761  0.249723
      ESP Fit Center  510 is at  -2.578322 -9.253791  1.899886
      ESP Fit Center  511 is at  -1.590843 -9.253791  1.579035
      ESP Fit Center  512 is at  -3.377209 -9.834217  1.579035
      ESP Fit Center  513 is at  -2.273174-10.192940  1.579035
      ESP Fit Center  514 is at  -0.980547 -9.253791  0.739035
      ESP Fit Center  515 is at  -3.377209-10.637505  0.739035
      ESP Fit Center  516 is at  -2.300871-10.827292  0.739035
      ESP Fit Center  517 is at  -1.354355-10.280821  0.739035
      ESP Fit Center  518 is at  -0.980547 -9.253791 -0.299263
      ESP Fit Center  519 is at  -3.377209-10.637505 -0.299263
      ESP Fit Center  520 is at  -2.300871-10.827292 -0.299263
      ESP Fit Center  521 is at  -1.354355-10.280821 -0.299263
      ESP Fit Center  522 is at   8.317459  4.724330  2.523236
      ESP Fit Center  523 is at   7.796798  3.822520  2.523236
      ESP Fit Center  524 is at   5.475750  4.195688  1.857287
      ESP Fit Center  525 is at   8.734996  2.894980  0.894961
      ESP Fit Center  526 is at   8.734996  6.553680 -0.173139
      ESP Fit Center  527 is at   8.734996  2.894980 -0.173139
      ESP Fit Center  528 is at   6.853487  5.450312  2.982890
      ESP Fit Center  529 is at   7.813487  5.450312  2.725659
      ESP Fit Center  530 is at   7.333487  6.281696  2.725659
      ESP Fit Center  531 is at   6.373487  6.281696  2.725659
      ESP Fit Center  532 is at   5.893487  5.450312  2.725659
      ESP Fit Center  533 is at   6.373487  4.618928  2.725659
      ESP Fit Center  534 is at   8.198695  6.427663  2.022890
      ESP Fit Center  535 is at   7.367311  7.031699  2.022890
      ESP Fit Center  536 is at   6.339663  7.031699  2.022890
      ESP Fit Center  537 is at   5.508279  6.427663  2.022890
      ESP Fit Center  538 is at   5.190718  5.450312  2.022890
      ESP Fit Center  539 is at   5.508279  4.472961  2.022890
      ESP Fit Center  540 is at   7.813487  7.113081  1.062890
      ESP Fit Center  541 is at   6.853487  7.370312  1.062890
      ESP Fit Center  542 is at   5.893487  7.113081  1.062890
      ESP Fit Center  543 is at   5.190718  6.410312  1.062890
      ESP Fit Center  544 is at   4.933487  5.450312  1.062890
      ESP Fit Center  545 is at   6.932711  3.726293  2.571752
      ESP Fit Center  546 is at   5.972711  3.726293  2.314521
      ESP Fit Center  547 is at   6.452711  2.894909  2.314521
      ESP Fit Center  548 is at   7.412711  2.894909  2.314521
      ESP Fit Center  549 is at   5.269942  3.726293  1.611752
      ESP Fit Center  550 is at   5.587503  2.748942  1.611752
      ESP Fit Center  551 is at   6.418887  2.144906  1.611752
      ESP Fit Center  552 is at   7.446535  2.144906  1.611752
      ESP Fit Center  553 is at   8.277919  2.748942  1.611752
      ESP Fit Center  554 is at   5.269942  2.766293  0.651752
      ESP Fit Center  555 is at   5.972711  2.063524  0.651752
      ESP Fit Center  556 is at   6.932711  1.806293  0.651752
      ESP Fit Center  557 is at   7.892711  2.063524  0.651752
      ESP Fit Center  558 is at   6.418887  2.144906 -0.308248
      ESP Fit Center  559 is at   7.446535  2.144906 -0.308248
      ESP Fit Center  560 is at   9.328057  4.754189  2.107387
      ESP Fit Center  561 is at   8.848057  5.585573  2.107387
      ESP Fit Center  562 is at   8.848057  3.922805  2.107387
      ESP Fit Center  563 is at  10.030826  4.754189  1.404618
      ESP Fit Center  564 is at   9.713265  5.731540  1.404618
      ESP Fit Center  565 is at   8.881881  6.335576  1.404618
      ESP Fit Center  566 is at   8.881881  3.172802  1.404618
      ESP Fit Center  567 is at   9.713265  3.776838  1.404618
      ESP Fit Center  568 is at  10.288057  4.754189  0.444618
      ESP Fit Center  569 is at  10.030826  5.714189  0.444618
      ESP Fit Center  570 is at   9.328057  6.416958  0.444618
      ESP Fit Center  571 is at   9.328057  3.091420  0.444618
      ESP Fit Center  572 is at  10.030826  3.794189  0.444618
      ESP Fit Center  573 is at  10.030826  4.754189 -0.515382
      ESP Fit Center  574 is at   9.713265  5.731540 -0.515382
      ESP Fit Center  575 is at   9.713265  3.776838 -0.515382
      ESP Fit Center  576 is at   9.328057  4.754189 -1.218151
      ESP Fit Center  577 is at   9.184425  5.044146 -1.594748
      ESP Fit Center  578 is at   8.548762  7.021400 -0.399954
      ESP Fit Center  579 is at   7.717378  7.625436 -0.399954
      ESP Fit Center  580 is at   6.689730  7.625436 -0.399954
      ESP Fit Center  581 is at   9.123554  6.044049 -1.359954
      ESP Fit Center  582 is at   8.866323  7.004049 -1.359954
      ESP Fit Center  583 is at   8.163554  7.706818 -1.359954
      ESP Fit Center  584 is at   7.203554  7.964049 -1.359954
      ESP Fit Center  585 is at   6.243554  7.706818 -1.359954
      ESP Fit Center  586 is at   8.866323  6.044049 -2.319954
      ESP Fit Center  587 is at   8.548762  7.021400 -2.319954
      ESP Fit Center  588 is at   7.717378  7.625436 -2.319954
      ESP Fit Center  589 is at   6.689730  7.625436 -2.319954
      ESP Fit Center  590 is at   8.163554  6.044049 -3.022723
      ESP Fit Center  591 is at   7.683554  6.875433 -3.022723
      ESP Fit Center  592 is at   7.203554  6.044049 -3.279954
      ESP Fit Center  593 is at   9.196680  4.319345 -1.771404
      ESP Fit Center  594 is at   6.316680  2.656576 -1.771404
      ESP Fit Center  595 is at   7.276680  2.399345 -1.771404
      ESP Fit Center  596 is at   8.236680  2.656576 -1.771404
      ESP Fit Center  597 is at   8.939449  3.359345 -1.771404
      ESP Fit Center  598 is at   8.939449  4.319345 -2.731404
      ESP Fit Center  599 is at   8.621888  5.296696 -2.731404
      ESP Fit Center  600 is at   6.762856  2.737958 -2.731404
      ESP Fit Center  601 is at   7.790504  2.737958 -2.731404
      ESP Fit Center  602 is at   8.621888  3.341994 -2.731404
      ESP Fit Center  603 is at   8.236680  4.319345 -3.434173
      ESP Fit Center  604 is at   7.756680  5.150729 -3.434173
      ESP Fit Center  605 is at   7.756680  3.487961 -3.434173
      ESP Fit Center  606 is at   7.276680  4.319345 -3.691404
      ESP Fit Center  607 is at   4.941550  5.843114  0.895286
      ESP Fit Center  608 is at   4.455600  5.001424  0.895286
      ESP Fit Center  609 is at   4.941550  4.159734  0.895286
      ESP Fit Center  610 is at   4.886318  6.667012  0.273733
      ESP Fit Center  611 is at   4.010666  6.030814  0.273733
      ESP Fit Center  612 is at   5.690733  7.169340 -0.624437
      ESP Fit Center  613 is at   4.653100  7.043348 -0.624437
      ESP Fit Center  614 is at   5.690733  2.833508 -1.621331
      ESP Fit Center  615 is at   4.648333  7.155382 -0.912249
      ESP Fit Center  616 is at   4.394712  6.199895 -4.570950
      ESP Fit Center  617 is at   5.832974  3.019565 -2.201542
      ESP Fit Center  618 is at   5.319150  2.680952 -3.161542
      ESP Fit Center  619 is at   6.279150  2.938183 -3.161542
      ESP Fit Center  620 is at   6.981919  4.600952 -4.121542
      ESP Fit Center  621 is at   6.664358  5.578303 -4.121542
      ESP Fit Center  622 is at   4.805326  3.019565 -4.121542
      ESP Fit Center  623 is at   5.832974  3.019565 -4.121542
      ESP Fit Center  624 is at   6.664358  3.623601 -4.121542
      ESP Fit Center  625 is at   6.279150  4.600952 -4.824311
      ESP Fit Center  626 is at   5.799150  5.432336 -4.824311
      ESP Fit Center  627 is at   4.839150  5.432336 -4.824311
      ESP Fit Center  628 is at   4.359150  4.600952 -4.824311
      ESP Fit Center  629 is at   4.839150  3.769568 -4.824311
      ESP Fit Center  630 is at   5.799150  3.769568 -4.824311
      ESP Fit Center  631 is at   5.319150  4.600952 -5.081542
      ESP Fit Center  632 is at   5.720251  7.902270 -1.750001
      ESP Fit Center  633 is at   4.692603  7.902270 -1.750001
      ESP Fit Center  634 is at   6.166427  7.983652 -2.710001
      ESP Fit Center  635 is at   5.206427  8.240883 -2.710001
      ESP Fit Center  636 is at   4.246427  7.983652 -2.710001
      ESP Fit Center  637 is at   6.869196  6.320883 -3.670001
      ESP Fit Center  638 is at   6.551635  7.298234 -3.670001
      ESP Fit Center  639 is at   5.720251  7.902270 -3.670001
      ESP Fit Center  640 is at   4.692603  7.902270 -3.670001
      ESP Fit Center  641 is at   6.166427  6.320883 -4.372770
      ESP Fit Center  642 is at   5.686427  7.152267 -4.372770
      ESP Fit Center  643 is at   4.726427  7.152267 -4.372770
      ESP Fit Center  644 is at   5.206427  6.320883 -4.630001
      ESP Fit Center  645 is at   3.916100  7.480599 -1.863565
      ESP Fit Center  646 is at   1.055613  5.199436 -1.863565
      ESP Fit Center  647 is at   1.055613  5.199436 -2.931665
      ESP Fit Center  648 is at   3.916100  4.297626 -4.559940
      ESP Fit Center  649 is at   3.000171  5.779497  0.371294
      ESP Fit Center  650 is at   3.480171  6.610881  0.114063
      ESP Fit Center  651 is at   2.520171  6.610881  0.114063
      ESP Fit Center  652 is at   2.040171  5.779497  0.114063
      ESP Fit Center  653 is at   3.513995  7.360884 -0.588706
      ESP Fit Center  654 is at   2.486347  7.360884 -0.588706
      ESP Fit Center  655 is at   1.654963  6.756848 -0.588706
      ESP Fit Center  656 is at   1.337402  5.779497 -0.588706
      ESP Fit Center  657 is at   3.960171  7.442266 -1.548706
      ESP Fit Center  658 is at   3.000171  7.699497 -1.548706
      ESP Fit Center  659 is at   2.040171  7.442266 -1.548706
      ESP Fit Center  660 is at   1.337402  6.739497 -1.548706
      ESP Fit Center  661 is at   1.080171  5.779497 -1.548706
      ESP Fit Center  662 is at   3.016346  7.567272 -3.323864
      ESP Fit Center  663 is at   2.056346  7.310041 -3.323864
      ESP Fit Center  664 is at   1.353577  6.607272 -3.323864
      ESP Fit Center  665 is at   1.096346  5.647272 -3.323864
      ESP Fit Center  666 is at   3.530170  7.228659 -4.283864
      ESP Fit Center  667 is at   2.502522  7.228659 -4.283864
      ESP Fit Center  668 is at   1.671138  6.624623 -4.283864
      ESP Fit Center  669 is at   1.353577  5.647272 -4.283864
      ESP Fit Center  670 is at   1.671138  4.669921 -4.283864
      ESP Fit Center  671 is at   3.976346  5.647272 -4.986633
      ESP Fit Center  672 is at   3.496346  6.478656 -4.986633
      ESP Fit Center  673 is at   2.536346  6.478656 -4.986633
      ESP Fit Center  674 is at   2.056346  5.647272 -4.986633
      ESP Fit Center  675 is at   2.536346  4.815888 -4.986633
      ESP Fit Center  676 is at   3.496346  4.815888 -4.986633
      ESP Fit Center  677 is at   3.016346  5.647272 -5.243864
      ESP Fit Center  678 is at   0.775466  4.397502 -1.880457
      ESP Fit Center  679 is at   0.775466  4.397502 -2.877351
      ESP Fit Center  680 is at   1.144543  3.874875 -3.775521
      ESP Fit Center  681 is at   1.479012  2.845485 -3.775521
      ESP Fit Center  682 is at   2.354664  2.209287 -3.775521
      ESP Fit Center  683 is at   3.437028  2.209287 -3.775521
      ESP Fit Center  684 is at   4.312680  2.845485 -3.775521
      ESP Fit Center  685 is at   3.867746  3.874875 -4.397074
      ESP Fit Center  686 is at   1.923946  3.874875 -4.397074
      ESP Fit Center  687 is at   2.409896  3.033185 -4.397074
      ESP Fit Center  688 is at   3.381796  3.033185 -4.397074
      ESP Fit Center  689 is at   2.895846  3.874875 -4.618904
      ESP Fit Center  690 is at   0.764301  4.265148 -1.636869
      ESP Fit Center  691 is at   4.450936  2.235479 -2.599195
      ESP Fit Center  692 is at   2.355447  3.885995  1.552943
      ESP Fit Center  693 is at   3.315447  3.885995  1.295712
      ESP Fit Center  694 is at   2.835447  4.717379  1.295712
      ESP Fit Center  695 is at   1.875447  4.717379  1.295712
      ESP Fit Center  696 is at   1.395447  3.885995  1.295712
      ESP Fit Center  697 is at   2.835447  3.054611  1.295712
      ESP Fit Center  698 is at   3.700655  4.863346  0.592943
      ESP Fit Center  699 is at   2.869271  5.467382  0.592943
      ESP Fit Center  700 is at   1.841623  5.467382  0.592943
      ESP Fit Center  701 is at   1.010239  4.863346  0.592943
      ESP Fit Center  702 is at   0.692678  3.885995  0.592943
      ESP Fit Center  703 is at   1.395447  5.548764 -0.367057
      ESP Fit Center  704 is at   0.692678  4.845995 -0.367057
      ESP Fit Center  705 is at   0.435447  3.885995 -0.367057
      ESP Fit Center  706 is at   1.010239  4.863346 -1.327057
      ESP Fit Center  707 is at   3.883240  3.058836  1.194097
      ESP Fit Center  708 is at   4.843240  3.058836  0.936866
      ESP Fit Center  709 is at   4.363240  3.890220  0.936866
      ESP Fit Center  710 is at   4.363240  2.227452  0.936866
      ESP Fit Center  711 is at   4.397064  1.477449  0.234097
      ESP Fit Center  712 is at   5.228448  2.081485  0.234097
      ESP Fit Center  713 is at   4.843240  1.396067 -0.725903
      ESP Fit Center  714 is at   5.546009  2.098836 -0.725903
      ESP Fit Center  715 is at   5.228448  2.081485 -1.685903
      ESP Fit Center  716 is at   4.222538  0.925443 -0.736602
      ESP Fit Center  717 is at   0.885649  0.522571 -2.767028
      ESP Fit Center  718 is at   3.976515  0.325055 -1.045191
      ESP Fit Center  719 is at   4.551307  1.302406 -2.005191
      ESP Fit Center  720 is at   3.591307 -0.360363 -2.005191
      ESP Fit Center  721 is at   4.294076  0.342406 -2.005191
      ESP Fit Center  722 is at   4.294076  1.302406 -2.965191
      ESP Fit Center  723 is at   1.286099  0.325055 -2.965191
      ESP Fit Center  724 is at   2.117483 -0.278981 -2.965191
      ESP Fit Center  725 is at   3.145131 -0.278981 -2.965191
      ESP Fit Center  726 is at   3.976515  0.325055 -2.965191
      ESP Fit Center  727 is at   3.591307  1.302406 -3.667960
      ESP Fit Center  728 is at   2.151307  2.133790 -3.667960
      ESP Fit Center  729 is at   1.671307  1.302406 -3.667960
      ESP Fit Center  730 is at   2.151307  0.471022 -3.667960
      ESP Fit Center  731 is at   3.111307  0.471022 -3.667960
      ESP Fit Center  732 is at   2.631307  1.302406 -3.925191
      ESP Fit Center  733 is at  -0.237627  3.127936 -0.701792
      ESP Fit Center  734 is at   0.147581  3.813354 -1.661792
      ESP Fit Center  735 is at  -0.555188  3.110585 -1.661792
      ESP Fit Center  736 is at   0.593757  3.731972 -2.621792
      ESP Fit Center  737 is at  -0.237627  3.127936 -2.621792
      ESP Fit Center  738 is at  -0.555188  2.150585 -2.621792
      ESP Fit Center  739 is at   0.593757  0.569198 -2.621792
      ESP Fit Center  740 is at   0.627581  2.981969 -3.324561
      ESP Fit Center  741 is at   0.147581  2.150585 -3.324561
      ESP Fit Center  742 is at   0.627581  1.319201 -3.324561
      ESP Fit Center  743 is at   1.107581  2.150585 -3.581792
      ESP Fit Center  744 is at   2.072660  1.311251  2.240000
      ESP Fit Center  745 is at   3.044560  1.311251  2.018170
      ESP Fit Center  746 is at   2.558610  2.152941  2.018170
      ESP Fit Center  747 is at   1.586710  2.152941  2.018170
      ESP Fit Center  748 is at   1.100760  1.311251  2.018170
      ESP Fit Center  749 is at   3.823963  1.311251  1.396617
      ESP Fit Center  750 is at   3.489494  2.340641  1.396617
      ESP Fit Center  751 is at   2.613842  2.976839  1.396617
      ESP Fit Center  752 is at   1.531478  2.976839  1.396617
      ESP Fit Center  753 is at   0.655826  2.340641  1.396617
      ESP Fit Center  754 is at   4.256499  1.311251  0.498447
      ESP Fit Center  755 is at   0.438033  2.759404  0.498447
      ESP Fit Center  756 is at   4.006353  0.296371  0.498447
      ESP Fit Center  757 is at   4.006353  0.296371 -0.498447
      ESP Fit Center  758 is at   3.873459  0.000000  0.534050
      ESP Fit Center  759 is at   3.873459  0.000000 -0.534050
      ESP Fit Center  760 is at   1.893753 -0.480048  2.835140
      ESP Fit Center  761 is at   2.853753 -0.480048  2.577909
      ESP Fit Center  762 is at   2.373753  0.351336  2.577909
      ESP Fit Center  763 is at   1.413753  0.351336  2.577909
      ESP Fit Center  764 is at   0.933753 -0.480048  2.577909
      ESP Fit Center  765 is at   1.413753 -1.311432  2.577909
      ESP Fit Center  766 is at   2.373753 -1.311432  2.577909
      ESP Fit Center  767 is at   3.556522 -0.480048  1.875140
      ESP Fit Center  768 is at   3.238961  0.497303  1.875140
      ESP Fit Center  769 is at   2.407577 -2.061435  1.875140
      ESP Fit Center  770 is at   3.238961 -1.457399  1.875140
      ESP Fit Center  771 is at   3.813753 -0.480048  0.915140
      ESP Fit Center  772 is at   1.893753 -2.400048  0.915140
      ESP Fit Center  773 is at   2.853753 -2.142817  0.915140
      ESP Fit Center  774 is at   3.556522 -1.440048  0.915140
      ESP Fit Center  775 is at   3.841721 -0.574040 -0.855998
      ESP Fit Center  776 is at   2.881721 -2.236809 -0.855998
      ESP Fit Center  777 is at   3.584490 -1.534040 -0.855998
      ESP Fit Center  778 is at   3.584490 -0.574040 -1.815998
      ESP Fit Center  779 is at   2.435545 -2.155427 -1.815998
      ESP Fit Center  780 is at   3.266929 -1.551391 -1.815998
      ESP Fit Center  781 is at   2.881721 -0.574040 -2.518767
      ESP Fit Center  782 is at   0.961721 -0.574040 -2.518767
      ESP Fit Center  783 is at   2.401721 -1.405424 -2.518767
      ESP Fit Center  784 is at   1.921721 -0.574040 -2.775998
      ESP Fit Center  785 is at  -1.366191  2.158083 -0.888376
      ESP Fit Center  786 is at  -2.068960  1.455314 -0.888376
      ESP Fit Center  787 is at  -2.326191  0.495314 -0.888376
      ESP Fit Center  788 is at  -0.920015  2.076701 -1.848376
      ESP Fit Center  789 is at  -1.751399  1.472665 -1.848376
      ESP Fit Center  790 is at  -2.068960  0.495314 -1.848376
      ESP Fit Center  791 is at   0.553809  0.495314 -2.551145
      ESP Fit Center  792 is at  -0.886191  1.326698 -2.551145
      ESP Fit Center  793 is at  -1.366191  0.495314 -2.551145
      ESP Fit Center  794 is at  -0.406191  0.495314 -2.808376
      ESP Fit Center  795 is at  -0.362018  0.549009  2.794969
      ESP Fit Center  796 is at   0.597982  0.549009  2.537738
      ESP Fit Center  797 is at   0.117982  1.380393  2.537738
      ESP Fit Center  798 is at  -0.842018  1.380393  2.537738
      ESP Fit Center  799 is at  -1.322018  0.549009  2.537738
      ESP Fit Center  800 is at   0.117982 -0.282375  2.537738
      ESP Fit Center  801 is at   0.151806  2.130396  1.834969
      ESP Fit Center  802 is at  -0.875842  2.130396  1.834969
      ESP Fit Center  803 is at  -1.707226  1.526360  1.834969
      ESP Fit Center  804 is at  -2.024787  0.549009  1.834969
      ESP Fit Center  805 is at  -0.362018  2.469009  0.874969
      ESP Fit Center  806 is at  -1.322018  2.211778  0.874969
      ESP Fit Center  807 is at  -2.024787  1.509009  0.874969
      ESP Fit Center  808 is at  -2.282018  0.549009  0.874969
      ESP Fit Center  809 is at  -0.731909 -1.678397  2.929785
      ESP Fit Center  810 is at   0.339605 -1.678397  2.716648
      ESP Fit Center  811 is at  -0.196152 -0.750439  2.716648
      ESP Fit Center  812 is at  -1.267666 -0.750439  2.716648
      ESP Fit Center  813 is at  -1.803423 -1.678397  2.716648
      ESP Fit Center  814 is at  -1.267666 -2.606355  2.716648
      ESP Fit Center  815 is at  -0.196152 -2.606355  2.716648
      ESP Fit Center  816 is at  -2.446552 -0.688448  2.109684
      ESP Fit Center  817 is at  -2.711808 -1.678397  2.109684
      ESP Fit Center  818 is at  -2.446552 -2.668346  2.109684
      ESP Fit Center  819 is at  -1.721858 -3.393040  2.109684
      ESP Fit Center  820 is at  -0.731909 -3.658296  2.109684
      ESP Fit Center  821 is at   0.258040 -3.393040  2.109684
      ESP Fit Center  822 is at   0.982734 -2.668346  2.109684
      ESP Fit Center  823 is at  -2.824725 -0.157877  1.201299
      ESP Fit Center  824 is at  -3.262243 -1.140558  1.201299
      ESP Fit Center  825 is at  -3.262243 -2.216236  1.201299
      ESP Fit Center  826 is at  -2.824725 -3.198917  1.201299
      ESP Fit Center  827 is at  -2.025340 -3.918686  1.201299
      ESP Fit Center  828 is at  -1.002310 -4.251089  1.201299
      ESP Fit Center  829 is at   0.067476 -4.138650  1.201299
      ESP Fit Center  830 is at   0.999040 -3.600811  1.201299
      ESP Fit Center  831 is at   1.631308 -2.730569  1.201299
      ESP Fit Center  832 is at  -2.419286  0.556051  0.129785
      ESP Fit Center  833 is at  -3.112517 -0.204387  0.129785
      ESP Fit Center  834 is at  -3.484234 -1.163898  0.129785
      ESP Fit Center  835 is at  -3.484234 -2.192896  0.129785
      ESP Fit Center  836 is at   1.337316 -3.564745  0.129785
      ESP Fit Center  837 is at   1.879013 -2.689874  0.129785
      ESP Fit Center  838 is at  -2.824725 -0.157877 -0.941729
      ESP Fit Center  839 is at  -3.262243 -1.140558 -0.941729
      ESP Fit Center  840 is at  -1.972918  0.109989 -2.281260
      ESP Fit Center  841 is at  -2.675687 -0.592780 -2.281260
      ESP Fit Center  842 is at  -2.932918 -1.552780 -2.281260
      ESP Fit Center  843 is at   0.332290 -0.575429 -3.241260
      ESP Fit Center  844 is at  -0.499094  0.028607 -3.241260
      ESP Fit Center  845 is at  -1.526742  0.028607 -3.241260
      ESP Fit Center  846 is at  -2.358126 -0.575429 -3.241260
      ESP Fit Center  847 is at  -2.675687 -1.552780 -3.241260
      ESP Fit Center  848 is at  -0.052918 -1.552780 -3.944029
      ESP Fit Center  849 is at  -0.532918 -0.721396 -3.944029
      ESP Fit Center  850 is at  -1.492918 -0.721396 -3.944029
      ESP Fit Center  851 is at  -1.972918 -1.552780 -3.944029
      ESP Fit Center  852 is at   1.864303 -3.325847 -0.900757
      ESP Fit Center  853 is at   2.439095 -2.348496 -1.860757
      ESP Fit Center  854 is at   1.479095 -4.011265 -1.860757
      ESP Fit Center  855 is at   2.181864 -3.308496 -1.860757
      ESP Fit Center  856 is at   2.181864 -2.348496 -2.820757
      ESP Fit Center  857 is at   1.864303 -1.371145 -2.820757
      ESP Fit Center  858 is at   1.032919 -0.767109 -2.820757
      ESP Fit Center  859 is at   1.864303 -3.325847 -2.820757
      ESP Fit Center  860 is at   1.479095 -2.348496 -3.523526
      ESP Fit Center  861 is at   0.999095 -1.517112 -3.523526
      ESP Fit Center  862 is at  -2.441611 -5.057717 -0.238603
      ESP Fit Center  863 is at  -3.240376 -3.561061  0.160150
      ESP Fit Center  864 is at  -2.760376 -4.392445  0.160150
      ESP Fit Center  865 is at  -3.625584 -2.583710 -0.542619
      ESP Fit Center  866 is at  -3.943145 -3.561061 -0.542619
      ESP Fit Center  867 is at  -3.625584 -4.538412 -0.542619
      ESP Fit Center  868 is at  -2.794200 -5.142448 -0.542619
      ESP Fit Center  869 is at  -3.240376 -1.898292 -1.502619
      ESP Fit Center  870 is at  -3.943145 -2.601061 -1.502619
      ESP Fit Center  871 is at  -4.200376 -3.561061 -1.502619
      ESP Fit Center  872 is at  -3.943145 -4.521061 -1.502619
      ESP Fit Center  873 is at  -3.625584 -2.583710 -2.462619
      ESP Fit Center  874 is at  -3.943145 -3.561061 -2.462619
      ESP Fit Center  875 is at   0.203046 -4.349414  0.625246
      ESP Fit Center  876 is at  -1.716954 -4.349414  0.625246
      ESP Fit Center  877 is at  -1.236954 -5.180798  0.625246
      ESP Fit Center  878 is at  -0.276954 -5.180798  0.625246
      ESP Fit Center  879 is at   0.905815 -4.349414 -0.077523
      ESP Fit Center  880 is at  -2.102162 -5.326765 -0.077523
      ESP Fit Center  881 is at  -0.243130 -5.930801 -0.077523
      ESP Fit Center  882 is at   0.588254 -5.326765 -0.077523
      ESP Fit Center  883 is at   1.163046 -4.349414 -1.037523
      ESP Fit Center  884 is at   0.905815 -5.309414 -1.037523
      ESP Fit Center  885 is at   1.567942 -4.242811 -2.392891
      ESP Fit Center  886 is at   1.344296 -5.294983 -2.392891
      ESP Fit Center  887 is at   1.781079 -4.242811 -3.464405
      ESP Fit Center  888 is at   1.592001 -3.231334 -3.464405
      ESP Fit Center  889 is at  -2.706298 -2.008363 -3.464405
      ESP Fit Center  890 is at  -3.399529 -2.768801 -3.464405
      ESP Fit Center  891 is at  -3.771246 -3.728312 -3.464405
      ESP Fit Center  892 is at   1.592001 -5.254288 -3.464405
      ESP Fit Center  893 is at   1.567942 -4.242811 -4.535919
      ESP Fit Center  894 is at   1.344296 -3.190639 -4.535919
      ESP Fit Center  895 is at   0.712028 -2.320397 -4.535919
      ESP Fit Center  896 is at  -0.219536 -1.782558 -4.535919
      ESP Fit Center  897 is at  -1.289322 -1.670119 -4.535919
      ESP Fit Center  898 is at  -2.312352 -2.002522 -4.535919
      ESP Fit Center  899 is at  -3.111737 -2.722291 -4.535919
      ESP Fit Center  900 is at  -3.549255 -3.704972 -4.535919
      ESP Fit Center  901 is at   0.712028 -6.165225 -4.535919
      ESP Fit Center  902 is at   1.344296 -5.294983 -4.535919
      ESP Fit Center  903 is at   0.960978 -4.242811 -5.444304
      ESP Fit Center  904 is at   0.695722 -3.252862 -5.444304
      ESP Fit Center  905 is at  -0.028972 -2.528168 -5.444304
      ESP Fit Center  906 is at  -1.018921 -2.262912 -5.444304
      ESP Fit Center  907 is at  -2.008870 -2.528168 -5.444304
      ESP Fit Center  908 is at  -2.733564 -3.252862 -5.444304
      ESP Fit Center  909 is at  -2.998820 -4.242811 -5.444304
      ESP Fit Center  910 is at  -0.028972 -5.957454 -5.444304
      ESP Fit Center  911 is at   0.695722 -5.232760 -5.444304
      ESP Fit Center  912 is at   0.052593 -4.242811 -6.051268
      ESP Fit Center  913 is at  -0.483164 -3.314853 -6.051268
      ESP Fit Center  914 is at  -1.554678 -3.314853 -6.051268
      ESP Fit Center  915 is at  -2.090435 -4.242811 -6.051268
      ESP Fit Center  916 is at  -1.554678 -5.170769 -6.051268
      ESP Fit Center  917 is at  -0.483164 -5.170769 -6.051268
      ESP Fit Center  918 is at  -1.018921 -4.242811 -6.264405
      ESP Fit Center  919 is at  -3.566062 -5.059493 -5.413349
      ESP Fit Center  920 is at  -3.883623 -6.036844 -5.413349
      ESP Fit Center  921 is at  -3.566062 -7.014195 -5.413349
      ESP Fit Center  922 is at  -2.734678 -7.618231 -5.413349
      ESP Fit Center  923 is at  -1.707030 -7.618231 -5.413349
      ESP Fit Center  924 is at  -0.875646 -7.014195 -5.413349
      ESP Fit Center  925 is at  -1.260854 -6.036844 -6.116118
      ESP Fit Center  926 is at  -1.740854 -5.205460 -6.116118
      ESP Fit Center  927 is at  -2.700854 -5.205460 -6.116118
      ESP Fit Center  928 is at  -3.180854 -6.036844 -6.116118
      ESP Fit Center  929 is at  -2.700854 -6.868228 -6.116118
      ESP Fit Center  930 is at  -1.740854 -6.868228 -6.116118
      ESP Fit Center  931 is at  -2.220854 -6.036844 -6.373349
      ESP Fit Center  932 is at  -3.002733 -5.538635 -1.035276
      ESP Fit Center  933 is at  -4.347941 -4.561284 -1.995276
      ESP Fit Center  934 is at  -3.962733 -3.875866 -2.955276
      ESP Fit Center  935 is at  -4.665502 -4.578635 -2.955276
      ESP Fit Center  936 is at  -4.922733 -5.538635 -2.955276
      ESP Fit Center  937 is at  -4.347941 -4.561284 -3.915276
      ESP Fit Center  938 is at  -4.665502 -5.538635 -3.915276
      ESP Fit Center  939 is at  -4.347941 -6.515986 -3.915276
      ESP Fit Center  940 is at   1.249442 -7.194502 -2.235644
      ESP Fit Center  941 is at   0.931881 -6.217151 -2.235644
      ESP Fit Center  942 is at   0.931881 -8.171853 -2.235644
      ESP Fit Center  943 is at   1.506673 -7.194502 -3.195644
      ESP Fit Center  944 is at   1.249442 -6.234502 -3.195644
      ESP Fit Center  945 is at   0.546673 -8.857271 -3.195644
      ESP Fit Center  946 is at   1.249442 -8.154502 -3.195644
      ESP Fit Center  947 is at   1.249442 -7.194502 -4.155644
      ESP Fit Center  948 is at   0.931881 -6.217151 -4.155644
      ESP Fit Center  949 is at   0.100497 -8.775889 -4.155644
      ESP Fit Center  950 is at   0.931881 -8.171853 -4.155644
      ESP Fit Center  951 is at   0.546673 -7.194502 -4.858413
      ESP Fit Center  952 is at   0.066673 -8.025886 -4.858413
      ESP Fit Center  953 is at  -0.413327 -7.194502 -5.115644
      ESP Fit Center  954 is at  -0.143350 -6.693642  0.005798
      ESP Fit Center  955 is at   0.559419 -6.693642 -0.696971
      ESP Fit Center  956 is at  -2.448558 -5.716291 -0.696971
      ESP Fit Center  957 is at   0.241858 -7.670993 -0.696971
      ESP Fit Center  958 is at   0.816650 -6.693642 -1.656971
      ESP Fit Center  959 is at   0.559419 -5.733642 -1.656971
      ESP Fit Center  960 is at  -0.367182 -8.492987 -0.738589
      ESP Fit Center  961 is at  -0.632438 -9.482936 -0.738589
      ESP Fit Center  962 is at   0.239782 -8.492987 -1.646974
      ESP Fit Center  963 is at  -3.640512-10.733276 -1.646974
      ESP Fit Center  964 is at  -2.617482-11.065679 -1.646974
      ESP Fit Center  965 is at  -1.547696-10.953240 -1.646974
      ESP Fit Center  966 is at  -0.616132-10.415401 -1.646974
      ESP Fit Center  967 is at   0.016136 -9.545159 -1.646974
      ESP Fit Center  968 is at  -4.034458-10.727435 -2.718488
      ESP Fit Center  969 is at  -3.113337-11.186099 -2.718488
      ESP Fit Center  970 is at  -2.088730-11.281043 -2.718488
      ESP Fit Center  971 is at  -1.099014-10.999444 -2.718488
      ESP Fit Center  972 is at  -0.277856-10.379335 -2.718488
      ESP Fit Center  973 is at   0.263841 -9.504464 -2.718488
      ESP Fit Center  974 is at  -4.439897 -6.972467 -3.790002
      ESP Fit Center  975 is at  -4.877415 -7.955148 -3.790002
      ESP Fit Center  976 is at  -4.877415 -9.030826 -3.790002
      ESP Fit Center  977 is at  -4.439897-10.013507 -3.790002
      ESP Fit Center  978 is at  -3.640512-10.733276 -3.790002
      ESP Fit Center  979 is at  -2.617482-11.065679 -3.790002
      ESP Fit Center  980 is at  -1.547696-10.953240 -3.790002
      ESP Fit Center  981 is at  -0.616132-10.415401 -3.790002
      ESP Fit Center  982 is at   0.016136 -9.545159 -3.790002
      ESP Fit Center  983 is at  -0.367182 -8.492987 -4.698387
      ESP Fit Center  984 is at  -4.061724 -7.503038 -4.698387
      ESP Fit Center  985 is at  -4.326980 -8.492987 -4.698387
      ESP Fit Center  986 is at  -4.061724 -9.482936 -4.698387
      ESP Fit Center  987 is at  -3.337030-10.207630 -4.698387
      ESP Fit Center  988 is at  -2.347081-10.472886 -4.698387
      ESP Fit Center  989 is at  -1.357132-10.207630 -4.698387
      ESP Fit Center  990 is at  -0.632438 -9.482936 -4.698387
      ESP Fit Center  991 is at  -1.275567 -8.492987 -5.305351
      ESP Fit Center  992 is at  -3.418595 -8.492987 -5.305351
      ESP Fit Center  993 is at  -2.882838 -9.420945 -5.305351
      ESP Fit Center  994 is at  -1.811324 -9.420945 -5.305351
      ESP Fit Center  995 is at  -2.347081 -8.492987 -5.518488
      ESP Fit Center  996 is at  -4.538849 -6.378298  0.102863
      ESP Fit Center  997 is at  -3.545025 -5.628295 -0.599906
      ESP Fit Center  998 is at  -4.572673 -5.628295 -0.599906
      ESP Fit Center  999 is at  -5.404057 -6.232331 -0.599906
      ESP Fit Center 1000 is at  -5.721618 -7.209682 -0.599906
      ESP Fit Center 1001 is at  -5.018849 -5.546913 -1.559906
      ESP Fit Center 1002 is at  -5.721618 -6.249682 -1.559906
      ESP Fit Center 1003 is at  -5.978849 -7.209682 -1.559906
      ESP Fit Center 1004 is at  -5.404057 -6.232331 -2.519906
      ESP Fit Center 1005 is at  -5.721618 -7.209682 -2.519906
      ESP Fit Center 1006 is at  -5.018849 -7.209682 -3.222675
      ESP Fit Center 1007 is at  -6.006398 -8.943270 -0.583244
      ESP Fit Center 1008 is at  -5.688837 -9.920621 -0.583244
      ESP Fit Center 1009 is at  -4.857453-10.524657 -0.583244
      ESP Fit Center 1010 is at  -3.829805-10.524657 -0.583244
      ESP Fit Center 1011 is at  -6.006398 -7.983270 -1.543244
      ESP Fit Center 1012 is at  -6.263629 -8.943270 -1.543244
      ESP Fit Center 1013 is at  -6.006398 -9.903270 -1.543244
      ESP Fit Center 1014 is at  -5.303629-10.606039 -1.543244
      ESP Fit Center 1015 is at  -4.343629-10.863270 -1.543244
      ESP Fit Center 1016 is at  -6.006398 -8.943270 -2.503244
      ESP Fit Center 1017 is at  -5.688837 -9.920621 -2.503244
      ESP Fit Center 1018 is at  -4.857453-10.524657 -2.503244
      ESP Fit Center 1019 is at  -5.303629 -8.943270 -3.206013
      ESP Fit Center 1020 is at  -4.823629 -9.774654 -3.206013
      ESP Fit Center 1021 is at  -1.975569 -8.268470  2.197104
      ESP Fit Center 1022 is at  -2.496230 -7.366660  2.197104
      ESP Fit Center 1023 is at  -2.496230 -9.170280  2.197104
      ESP Fit Center 1024 is at  -3.283929 -6.411173  1.531155
      ESP Fit Center 1025 is at  -3.537550 -5.987307  0.568829
      ESP Fit Center 1026 is at  -4.475748-10.097820  0.568829
      ESP Fit Center 1027 is at  -1.281430 -7.516042  1.877697
      ESP Fit Center 1028 is at  -1.761430 -6.684658  1.877697
      ESP Fit Center 1029 is at  -2.721430 -6.684658  1.877697
      ESP Fit Center 1030 is at  -0.578661 -7.516042  1.174928
      ESP Fit Center 1031 is at  -0.896222 -6.538691  1.174928
      ESP Fit Center 1032 is at  -1.727606 -5.934655  1.174928
      ESP Fit Center 1033 is at  -2.755254 -5.934655  1.174928
      ESP Fit Center 1034 is at  -0.896222 -8.493393  1.174928
      ESP Fit Center 1035 is at  -0.321430 -7.516042  0.214928
      ESP Fit Center 1036 is at  -0.578661 -6.556042  0.214928
      ESP Fit Center 1037 is at  -1.281430 -5.853273  0.214928
      ESP Fit Center 1038 is at  -2.241430 -5.596042  0.214928
      ESP Fit Center 1039 is at  -3.201430 -5.853273  0.214928
      ESP Fit Center 1040 is at  -0.578661 -8.476042  0.214928
      ESP Fit Center 1041 is at  -2.755254 -5.934655 -0.745072
      ESP Fit Center 1042 is at  -3.815242 -8.101290  2.688872
      ESP Fit Center 1043 is at  -2.855242 -8.101290  2.431641
      ESP Fit Center 1044 is at  -3.335242 -7.269906  2.431641
      ESP Fit Center 1045 is at  -4.295242 -7.269906  2.431641
      ESP Fit Center 1046 is at  -4.775242 -8.101290  2.431641
      ESP Fit Center 1047 is at  -4.295242 -8.932674  2.431641
[...]
 1411 Fit       0.003989
 1412 Fit       0.010659
 1413 Fit       0.015662
 1414 Fit       0.002675
 1415 Fit       0.007787
 1416 Fit       0.013765
 1417 Fit       0.002827
 1418 Fit       0.005955
 1419 Fit       0.009682
 1420 Fit       0.006674
 1421 Fit       0.000481
 1422 Fit       0.006416
 1423 Fit       0.003576
 1424 Fit       0.004245
 1425 Fit      -0.000865
 1426 Fit      -0.003687
 1427 Fit      -0.007994
 1428 Fit       0.000429
 1429 Fit       0.003972
 1430 Fit      -0.010331
 1431 Fit      -0.012317
 1432 Fit      -0.007344
 1433 Fit      -0.001614
 1434 Fit       0.001276
 1435 Fit      -0.005869
 1436 Fit      -0.008203
 1437 Fit      -0.005000
 1438 Fit      -0.006508
 1439 Fit      -0.012925
 1440 Fit      -0.013119
 1441 Fit      -0.010883
 1442 Fit      -0.008213
 1443 Fit      -0.007437
 1444 Fit      -0.009002
 1445 Fit      -0.012016
 1446 Fit      -0.013311
 1447 Fit      -0.010375
 1448 Fit      -0.003721
 1449 Fit      -0.005484
 1450 Fit      -0.011878
 1451 Fit      -0.011516
 1452 Fit      -0.011668
 1453 Fit      -0.011669
 1454 Fit      -0.013049
 1455 Fit      -0.014257
 1456 Fit      -0.012109
 1457 Fit      -0.005404
 1458 Fit      -0.001742
 1459 Fit      -0.008346
 1460 Fit      -0.009154
 1461 Fit      -0.011412
 1462 Fit      -0.011595
 1463 Fit      -0.006114
 1464 Fit       0.000183
 1465 Fit      -0.003636
 1466 Fit      -0.007247
 1467 Fit      -0.001606
 1468 Fit       0.001864
 1469 Fit      -0.000595
 1470 Fit      -0.007407
 1471 Fit       0.004569
 1472 Fit       0.002938
 1473 Fit       0.001011
 1474 Fit       0.002358
 1475 Fit       0.000824
 1476 Fit       0.002524
 1477 Fit       0.003083
 1478 Fit       0.015945
 1479 Fit       0.008964
 1480 Fit       0.010732
 1481 Fit       0.001616
 1482 Fit       0.005482
 1483 Fit       0.003985
 1484 Fit       0.002824
 1485 Fit       0.000350
 1486 Fit       0.001700
 1487 Fit       0.000170
 1488 Fit       0.000972
 1489 Fit      -0.006077
 1490 Fit      -0.002295
 1491 Fit       0.001692
 1492 Fit       0.001063
 1493 Fit      -0.000464
 1494 Fit       0.002377
 1495 Fit       0.002030
 1496 Fit       0.002294
 1497 Fit       0.004562
 1498 Fit       0.011014
 1499 Fit       0.006888
 1500 Fit       0.003634
 1501 Fit      -0.002307
 1502 Fit      -0.004052
 1503 Fit       0.001023
 1504 Fit      -0.006842
 1505 Fit      -0.012878
 1506 Fit      -0.014938
 1507 Fit      -0.011754
 1508 Fit      -0.000325
 1509 Fit      -0.007663
 1510 Fit      -0.013645
 1511 Fit      -0.016868
 1512 Fit      -0.015968
 1513 Fit      -0.010682
 1514 Fit      -0.001640
 1515 Fit      -0.005994
 1516 Fit      -0.010804
 1517 Fit      -0.014754
 1518 Fit      -0.016205
 1519 Fit      -0.013935
 1520 Fit      -0.007617
 1521 Fit      -0.007055
 1522 Fit      -0.009225
 1523 Fit      -0.009505
 1524 Fit      -0.010313
 1525 Fit      -0.012222
 1526 Fit      -0.014248
 1527 Fit      -0.014721
 1528 Fit      -0.012170
 1529 Fit      -0.006090
 1530 Fit      -0.000514
 1531 Fit      -0.010217
 1532 Fit      -0.014321
 1533 Fit      -0.015099
 1534 Fit      -0.015131
 1535 Fit      -0.014793
 1536 Fit      -0.012659
 1537 Fit      -0.007613
 1538 Fit      -0.005336
 1539 Fit      -0.014349
 1540 Fit      -0.015194
 1541 Fit      -0.011830
 1542 Fit      -0.010486
 1543 Fit       0.010056
 1544 Fit       0.000794
 1545 Fit       0.017898
 1546 Fit       0.014798
 1547 Fit       0.012256
 1548 Fit       0.010776
 1549 Fit       0.016250
 1550 Fit       0.012042
 1551 Fit       0.009637
 1552 Fit       0.012234
 1553 Fit       0.007940
 1554 Fit       0.000872
 1555 Fit       0.009949
 1556 Fit       0.009444
 1557 Fit       0.008713
 1558 Fit       0.007154
 1559 Fit       0.008276
 1560 Fit       0.008356
 1561 Fit       0.008009
 1562 Fit       0.006545
 1563 Fit       0.003576
 1564 Fit       0.005370
 1565 Fit       0.005659
 1566 Fit       0.004938
 1567 Fit       0.002264
 1568 Fit      -0.000978
 1569 Fit       0.002608
 1570 Fit       0.003624
 1571 Fit       0.002673
 1572 Fit       0.002728
 1573 Fit       0.007840
 1574 Fit       0.005429
 1575 Fit       0.004084
 1576 Fit       0.005153
 1577 Fit       0.005243
 1578 Fit       0.008023
 1579 Fit       0.008400
 1580 Fit       0.007427
 1581 Fit       0.007063
 1582 Fit       0.013072
 1583 Fit      -0.000061
 1584 Fit       0.005203
 1585 Fit       0.004637
 1586 Fit       0.006477
 1587 Fit       0.007110
 1588 Fit       0.005582
 1589 Fit       0.003683
 1590 Fit       0.006570
 1591 Fit       0.008013
 1592 Fit       0.008596
 1593 Fit       0.008048
 1594 Fit       0.006431
 1595 Fit       0.009620
 1596 Fit       0.009905
 1597 Fit       0.009770
 1598 Fit       0.009285
 1599 Fit       0.008171
 1600 Fit       0.002272
 1601 Fit       0.003529
 1602 Fit       0.003106
 1603 Fit       0.001059
 1604 Fit       0.004259
 1605 Fit       0.003751
 1606 Fit       0.002830
 1607 Fit       0.001585
 1608 Fit      -0.003048
 1609 Fit       0.003477
 1610 Fit       0.001361
 1611 Fit      -0.000978
 1612 Fit      -0.003015
 1613 Fit      -0.001400
 1614 Fit      -0.000523
 1615 Fit       0.000467
 1616 Fit      -0.001867
 1617 Fit      -0.000506
 1618 Fit       0.002081
 1619 Fit      -0.005467
 1620 Fit       0.000177
 1621 Fit       0.001134
 1622 Fit       0.003238
 1623 Fit      -0.011051
 1624 Fit       0.001665
 1625 Fit       0.004180
 1626 Fit       0.002809
 1627 Fit       0.000137
 1628 Fit       0.000826
 1629 Fit       0.001647
 1630 Fit       0.000835
 1631 Fit      -0.001389
 1632 Fit      -0.002015
 1633 Fit       0.002267
 1634 Fit       0.002583
 1635 Fit       0.002016
 1636 Fit       0.000005
 1637 Fit      -0.003113
 1638 Fit      -0.005674
 1639 Fit       0.003281
 1640 Fit       0.003042
 1641 Fit       0.001695
 1642 Fit      -0.001420
 1643 Fit      -0.006354
 1644 Fit      -0.011554
 1645 Fit       0.003925
 1646 Fit       0.001308
 1647 Fit      -0.004912
 1648 Fit      -0.002113
 1649 Fit      -0.000413
 1650 Fit      -0.007502
 1651 Fit      -0.004276
 1652 Fit      -0.000942
 1653 Fit       0.000593
 1654 Fit      -0.005923
 1655 Fit      -0.001349
 1656 Fit       0.000887
 1657 Fit       0.001647
 1658 Fit      -0.001087
 1659 Fit       0.001298
 1660 Fit       0.002363
 1661 Fit      -0.000141
 1662 Fit       0.002509
 1663 Fit       0.004385
 1664 Fit       0.004224
 1665 Fit       0.003292
 1666 Fit       0.003502
 1667 Fit       0.005820
 1668 Fit       0.005823
 1669 Fit       0.005195
 1670 Fit       0.003650
 1671 Fit       0.005054
 1672 Fit       0.006781
 1673 Fit       0.006950
 1674 Fit       0.006726
 1675 Fit       0.004698
 1676 Fit       0.006001
 1677 Fit       0.007650
 1678 Fit       0.008177
 1679 Fit       0.006842
 1680 Fit       0.008419
 1681 Fit       0.008283
 1682 Fit      -0.002953
 1683 Fit       0.007792
 1684 Fit       0.005111
 1685 Fit       0.003509
 1686 Fit       0.007264
 1687 Fit       0.006476
 1688 Fit       0.005779
 1689 Fit       0.004575
 1690 Fit       0.001750
 1691 Fit       0.007441
 1692 Fit       0.007113
 1693 Fit       0.006895
 1694 Fit       0.006815
 1695 Fit       0.007740
 1696 Fit       0.007512
 1697 Fit       0.007664
 1698 Fit       0.007852
 1699 Fit       0.008170
 1700 Fit       0.000320
 1701 Fit       0.003130
 1702 Fit       0.004810
 1703 Fit       0.006633
 1704 Fit       0.007442
 1705 Fit       0.001217
 1706 Fit       0.003653
 1707 Fit       0.005207
 1708 Fit       0.006398
 1709 Fit       0.006903
 1710 Fit       0.003391
 1711 Fit       0.005004
 1712 Fit       0.006129
 1713 Fit       0.006780
 1714 Fit       0.007754
 1715 Fit       0.005931
 1716 Fit      -0.014169
 1717 Fit      -0.009632
 1718 Fit      -0.010828
 1719 Fit      -0.004008
 1720 Fit       0.001239
 1721 Fit       0.008452
 1722 Fit       0.007936
 1723 Fit       0.008726
 1724 Fit      -0.002148
 1725 Fit      -0.000561
 1726 Fit       0.003770
 1727 Fit       0.006648
 1728 Fit       0.007512
 1729 Fit      -0.002701
 1730 Fit       0.002206
 1731 Fit       0.005106
 1732 Fit       0.005636
 1733 Fit       0.006879
 1734 Fit       0.002669
 1735 Fit       0.000215
 1736 Fit       0.003331
 1737 Fit       0.004495
 1738 Fit       0.003330
 1739 Fit       0.006575
 1740 Fit       0.006509
 1741 Fit       0.008058
 1742 Fit       0.007750
 1743 Fit       0.007988
 1744 Fit       0.009189
 1745 Fit       0.008090
 1746 Fit       0.008149
 1747 Fit       0.008570
 1748 Fit       0.010074
 1749 Fit       0.008250
 1750 Fit       0.009279
 1751 Fit       0.006729
 1752 Fit      -0.001535
 1753 Fit       0.007174
 1754 Fit       0.005154
 1755 Fit       0.002156
 1756 Fit      -0.002674
 1757 Fit      -0.000699
 1758 Fit      -0.005406
 1759 Fit      -0.000355
 1760 Fit      -0.001504
 1761 Fit       0.001872
 1762 Fit       0.002420
 1763 Fit       0.001898
 1764 Fit       0.003880
 1765 Fit       0.004226
 1766 Fit       0.003641
 1767 Fit       0.002376
 1768 Fit       0.000522
 1769 Fit       0.006047
 1770 Fit       0.004443
 1771 Fit       0.009509
 1772 Fit       0.007365
 1773 Fit       0.005304
 1774 Fit       0.002520
 1775 Fit      -0.002163
 1776 Fit       0.009283
 1777 Fit       0.007509
 1778 Fit       0.005391
 1779 Fit       0.002242
 1780 Fit      -0.002877
 1781 Fit       0.006384
 1782 Fit       0.007320
 1783 Fit       0.005587
 1784 Fit       0.002053
 1785 Fit      -0.001593
 1786 Fit       0.001106
 1787 Fit       0.003998
 1788 Fit      -0.006804
 1789 Fit      -0.009802
 1790 Fit      -0.008034
 1791 Fit      -0.011929
 1792 Fit      -0.012606
 1793 Fit      -0.011752
 1794 Fit      -0.011420
 1795 Fit      -0.011332
 1796 Fit      -0.011011
 1797 Fit      -0.013369
 1798 Fit      -0.011651
 1799 Fit      -0.008494
 1800 Fit      -0.015427
 1801 Fit      -0.013644
 1802 Fit      -0.003975
 1803 Fit      -0.005396
 1804 Fit      -0.009572
 1805 Fit      -0.011395
 1806 Fit      -0.006983
 1807 Fit      -0.004260
 1808 Fit      -0.007399
 1809 Fit      -0.006845
 1810 Fit      -0.001747
 1811 Fit      -0.001007
 1812 Fit      -0.002481
 1813 Fit       0.000969
 1814 Fit      -0.000151
 1815 Fit      -0.001211
 1816 Fit      -0.000856
 1817 Fit      -0.014122
 1818 Fit      -0.014791
 1819 Fit      -0.005462
 1820 Fit      -0.002922
 1821 Fit      -0.003010
 1822 Fit      -0.004015
 1823 Fit      -0.002120
 1824 Fit       0.005234
 1825 Fit      -0.005452
 1826 Fit      -0.010633
 1827 Fit      -0.001237
 1828 Fit      -0.002485
 1829 Fit       0.002964
 1830 Fit       0.000368
 1831 Fit      -0.003875
 1832 Fit       0.006174
 1833 Fit       0.005151
 1834 Fit       0.002839
 1835 Fit       0.000303
 1836 Fit      -0.005320
 1837 Fit      -0.002949
 1838 Fit       0.000629
 1839 Fit      -0.000384
 1840 Fit      -0.005272
 1841 Fit       0.000031
 1842 Fit       0.003003
 1843 Fit      -0.002279
 1844 Fit       0.002348
 1845 Fit      -0.004972
 1846 Fit       0.001467
 1847 Fit       0.006329
 1848 Fit      -0.009836
 1849 Fit      -0.000869
 1850 Fit       0.001584
 1851 Fit      -0.011039
 1852 Fit      -0.014104
 1853 Fit      -0.016139
 1854 Fit      -0.013122
 1855 Fit      -0.015244
 1856 Fit      -0.017126
 1857 Fit      -0.016583
 1858 Fit      -0.014379
 1859 Fit      -0.012169
 1860 Fit      -0.013588
 1861 Fit      -0.010634
 1862 Fit      -0.008205
 1863 Fit      -0.002743
 1864 Fit       0.000098
 1865 Fit      -0.002293
 1866 Fit      -0.000276
 1867 Fit      -0.001632
 1868 Fit      -0.002469
 1869 Fit      -0.005219
 1870 Fit      -0.002376
 1871 Fit      -0.000588
 1872 Fit      -0.003003
 1873 Fit      -0.001479
 1874 Fit      -0.003725
 1875 Fit      -0.009882
 1876 Fit      -0.002109
 1877 Fit      -0.001116
 1878 Fit      -0.005128
 1879 Fit      -0.004771
 1880 Fit      -0.000945
 1881 Fit      -0.001267
 1882 Fit       0.001838
 1883 Fit       0.001200
 1884 Fit       0.004252
 1885 Fit       0.002876
 1886 Fit       0.005039
 1887 Fit       0.007442
 1888 Fit       0.003389
 1889 Fit       0.004958
 1890 Fit       0.003903
 1891 Fit       0.006582
 1892 Fit       0.006670
 1893 Fit       0.007804
 1894 Fit       0.001302
 1895 Fit      -0.000217
 1896 Fit      -0.000581
 1897 Fit       0.001808
 1898 Fit       0.001337
 1899 Fit      -0.005451
 1900 Fit       0.000274
 1901 Fit       0.002216
 1902 Fit       0.001085
 1903 Fit      -0.006513
 1904 Fit       0.000332
 1905 Fit       0.002140
 1906 Fit       0.000934
 1907 Fit       0.002571
 1908 Fit      -0.005969
 1909 Fit      -0.005744
 1910 Fit      -0.002389
 1911 Fit      -0.003294
 1912 Fit      -0.006593
 1913 Fit      -0.007927
 1914 Fit      -0.008315
 1915 Fit      -0.004488
 1916 Fit      -0.000772
 1917 Fit      -0.005449
 1918 Fit      -0.007835
 1919 Fit      -0.007887
 1920 Fit      -0.007454
 1921 Fit      -0.008186
 1922 Fit      -0.009436
 1923 Fit      -0.008633
 1924 Fit      -0.003551
 1925 Fit      -0.007857
 1926 Fit      -0.009036
 1927 Fit      -0.007558
 1928 Fit      -0.005129
 1929 Fit      -0.003765
 1930 Fit      -0.004714
 1931 Fit      -0.007449
 1932 Fit      -0.009211
 1933 Fit      -0.007374
 1934 Fit      -0.003710
 1935 Fit      -0.008173
 1936 Fit      -0.009617
 1937 Fit      -0.007846
 1938 Fit      -0.003800
 1939 Fit       0.000469
 1940 Fit       0.003414
 1941 Fit       0.000037
 1942 Fit      -0.004893
 1943 Fit      -0.006949
 1944 Fit      -0.004782
 1945 Fit      -0.008034
 1946 Fit      -0.008283
 1947 Fit      -0.005037
 1948 Fit      -0.000581
 1949 Fit      -0.002632
 1950 Fit      -0.000902
 1951 Fit      -0.004762
 1952 Fit      -0.004781
 1953 Fit       0.003336
 1954 Fit      -0.000015
 1955 Fit       0.005840
 1956 Fit       0.002844
 1957 Fit       0.001473
 1958 Fit       0.006431
 1959 Fit       0.005935
 1960 Fit       0.003573
 1961 Fit      -0.000449
 1962 Fit       0.000999
 1963 Fit      -0.000190
 1964 Fit       0.001622
 1965 Fit       0.003418
 1966 Fit       0.006115
 1967 Fit       0.001858
 1968 Fit       0.002748
 1969 Fit       0.006341
 1970 Fit       0.007962
 1971 Fit       0.001957
 1972 Fit       0.010087
 1973 Fit       0.001127
 1974 Fit       0.007796
 1975 Fit       0.012391
 1976 Fit       0.002882
 1977 Fit       0.008224
 1978 Fit       0.014044
 1979 Fit       0.001867
 1980 Fit       0.004565
 1981 Fit       0.009129
 1982 Fit       0.006705
 1983 Fit       0.004016
 1984 Fit       0.009975
 1985 Fit       0.004178
 1986 Fit       0.001769
 1987 Fit       0.003876
 1988 Fit       0.000112
 1989 Fit      -0.003176
 1990 Fit      -0.005409
 1991 Fit      -0.007451
 1992 Fit      -0.002891
 1993 Fit      -0.002358
 1994 Fit      -0.000933
 1995 Fit      -0.005639
 1996 Fit      -0.008711
 1997 Fit      -0.009709
 1998 Fit      -0.007079
 1999 Fit      -0.003783
 2000 Fit      -0.001723
 2001 Fit      -0.001012
 2002 Fit      -0.005269
 2003 Fit      -0.007400
 2004 Fit      -0.006365
 2005 Fit      -0.002470
 2006 Fit      -0.005592
 2007 Fit      -0.009684
 2008 Fit      -0.009949
 2009 Fit      -0.008950
 2010 Fit      -0.007532
 2011 Fit      -0.007135
 2012 Fit      -0.008082
 2013 Fit      -0.009737
 2014 Fit      -0.010190
 2015 Fit      -0.007904
 2016 Fit      -0.003173
 2017 Fit      -0.004294
 2018 Fit      -0.008678
 2019 Fit      -0.008902
 2020 Fit      -0.009359
 2021 Fit      -0.009509
 2022 Fit      -0.010253
 2023 Fit      -0.010686
 2024 Fit      -0.008935
 2025 Fit      -0.004328
 2026 Fit      -0.002060
 2027 Fit      -0.006500
 2028 Fit      -0.007424
 2029 Fit      -0.009026
 2030 Fit      -0.008890
 2031 Fit      -0.005110
 2032 Fit      -0.001171
 2033 Fit      -0.003628
 2034 Fit      -0.006102
 2035 Fit       0.001898
 2036 Fit      -0.000234
 2037 Fit       0.000832
 2038 Fit      -0.000807
 2039 Fit      -0.005181
 2040 Fit       0.002208
 2041 Fit       0.001312
 2042 Fit       0.000053
 2043 Fit       0.001104
 2044 Fit       0.000042
 2045 Fit       0.001141
 2046 Fit       0.001492
 2047 Fit       0.010561
 2048 Fit       0.006365
 2049 Fit       0.007036
 2050 Fit       0.003190
 2051 Fit       0.002966
 2052 Fit       0.000270
 2053 Fit       0.000152
 2054 Fit       0.000214
 2055 Fit      -0.000318
 2056 Fit      -0.001604
 2057 Fit       0.000769
 2058 Fit      -0.000181
 2059 Fit       0.000987
 2060 Fit       0.000801
 2061 Fit       0.000908
 2062 Fit       0.003037
 2063 Fit       0.006345
 2064 Fit       0.003654
 2065 Fit       0.003360
 2066 Fit      -0.002214
 2067 Fit      -0.007648
 2068 Fit      -0.009679
 2069 Fit      -0.007796
 2070 Fit      -0.000719
 2071 Fit      -0.006186
 2072 Fit      -0.010417
 2073 Fit      -0.012568
 2074 Fit      -0.011856
 2075 Fit      -0.008195
 2076 Fit      -0.002623
 2077 Fit      -0.006881
 2078 Fit      -0.010500
 2079 Fit      -0.012797
 2080 Fit      -0.013063
 2081 Fit      -0.010912
 2082 Fit      -0.006394
 2083 Fit       0.000773
 2084 Fit      -0.001942
 2085 Fit      -0.002538
 2086 Fit      -0.003176
 2087 Fit      -0.005082
 2088 Fit      -0.007778
 2089 Fit      -0.010488
 2090 Fit      -0.012311
 2091 Fit      -0.012329
 2092 Fit      -0.009961
 2093 Fit      -0.005085
 2094 Fit      -0.005911
 2095 Fit      -0.008079
 2096 Fit      -0.008832
 2097 Fit      -0.009597
 2098 Fit      -0.010796
 2099 Fit      -0.011852
 2100 Fit      -0.011738
 2101 Fit      -0.009576
 2102 Fit      -0.005133
 2103 Fit      -0.001710
 2104 Fit      -0.007263
 2105 Fit      -0.010869
 2106 Fit      -0.011994
 2107 Fit      -0.012275
 2108 Fit      -0.011971
 2109 Fit      -0.010277
 2110 Fit      -0.006619
 2111 Fit      -0.004789
 2112 Fit      -0.010538
 2113 Fit      -0.011699
 2114 Fit      -0.009483
 2115 Fit      -0.008012
 2116 Fit       0.009468
 2117 Fit       0.009238
 2118 Fit       0.008350
 2119 Fit       0.007041
 2120 Fit       0.004280
 2121 Fit       0.012153
 2122 Fit       0.010609
 2123 Fit       0.009998
 2124 Fit       0.014735
 2125 Fit       0.011282
 2126 Fit       0.009463
 2127 Fit       0.008621
 2128 Fit       0.011511
 2129 Fit       0.008660
 2130 Fit       0.007094
 2131 Fit       0.005759
 2132 Fit       0.008449
 2133 Fit       0.007509
 2134 Fit       0.007765
 2135 Fit       0.007446
 2136 Fit       0.006704
 2137 Fit       0.005208
 2138 Fit       0.002751
 2139 Fit       0.006188
 2140 Fit       0.005981
 2141 Fit       0.005150
 2142 Fit       0.003221
 2143 Fit       0.003058
 2144 Fit       0.003081
 2145 Fit       0.002100
 2146 Fit       0.003398
 2147 Fit       0.002445
 2148 Fit       0.003202
 2149 Fit       0.002546
 2150 Fit       0.002358
 2151 Fit       0.003255
 2152 Fit       0.001995
 2153 Fit       0.005834
 2154 Fit       0.004231
 2155 Fit       0.009558
 2156 Fit       0.009746
 2157 Fit       0.007667
 2158 Fit       0.005656
 2159 Fit       0.003281
 2160 Fit       0.003924
 2161 Fit       0.003923
 2162 Fit       0.005440
 2163 Fit       0.005436
 2164 Fit       0.005214
 2165 Fit       0.004994
 2166 Fit       0.008843
 2167 Fit       0.008993
 2168 Fit       0.004454
 2169 Fit       0.004056
 2170 Fit       0.005351
 2171 Fit       0.005835
 2172 Fit       0.004795
 2173 Fit       0.003464
 2174 Fit       0.005386
 2175 Fit       0.006552
 2176 Fit       0.007060
 2177 Fit       0.006679
 2178 Fit       0.005508
 2179 Fit       0.007201
 2180 Fit       0.007861
 2181 Fit       0.008130
 2182 Fit       0.007953
 2183 Fit       0.007304
 2184 Fit       0.006089
 2185 Fit       0.009754
 2186 Fit       0.009289
 2187 Fit       0.003132
 2188 Fit       0.002558
 2189 Fit       0.001309
 2190 Fit       0.003723
 2191 Fit       0.003072
 2192 Fit       0.002302
 2193 Fit       0.001473
 2194 Fit      -0.000767
 2195 Fit       0.004107
 2196 Fit       0.002703
 2197 Fit       0.001331
 2198 Fit      -0.000091
 2199 Fit      -0.001127
 2200 Fit       0.004661
 2201 Fit       0.001028
 2202 Fit      -0.002140
 2203 Fit      -0.005208
 2204 Fit      -0.007455
 Job cpu time:       0 days  0 hours 11 minutes 14.6 seconds.
 Normal termination of Gaussian 16 at Sun Jul  9 09:09:56 2023.
