 Copyright (c) 1988-2019, Gaussian, Inc.  All Rights Reserved.
  
 This is part of the Gaussian(R) 16 program.  It is based on
 the Gaussian(R) 09 system (copyright 2009, Gaussian, Inc.),
 the Gaussian(R) 03 system (copyright 2003, Gaussian, Inc.),
 the Gaussian(R) 98 system (copyright 1998, Gaussian, Inc.),
 the Gaussian(R) 94 system (copyright 1995, Gaussian, Inc.),
 the Gaussian 92(TM) system (copyright 1992, Gaussian, Inc.),
 the Gaussian 90(TM) system (copyright 1990, Gaussian, Inc.),
 the Gaussian 88(TM) system (copyright 1988, Gaussian, Inc.),
 the Gaussian 86(TM) system (copyright 1986, Carnegie Mellon
 University), and the Gaussian 82(TM) system (copyright 1983,
 Carnegie Mellon University). Gaussian is a federally registered
 trademark of Gaussian, Inc.
 Cite this work as:
 Gaussian 16, Revision C.01,
 M. J. Frisch, G. W. Trucks, H. B. Schlegel, G. E. Scuseria, 
 M. A. Robb, J. R. Cheeseman, G. Scalmani, V. Barone, 
 G. A. Petersson, H. Nakatsuji, X. Li, M. Caricato, A. V. Marenich, 
 J. Bloino, B. G. Janesko, R. Gomperts, B. Mennucci, H. P. Hratchian, 
 J. V. Ortiz, A. F. Izmaylov, J. L. Sonnenberg, D. Williams-Young, 
 F. Ding, F. Lipparini, F. Egidi, J. Goings, B. Peng, A. Petrone, 
 T. Henderson, D. Ranasinghe, V. G. Zakrzewski, J. Gao, N. Rega, 
 G. Zheng, W. Liang, M. Hada, M. Ehara, K. Toyota, R. Fukuda, 
 J. Hasegawa, M. Ishida, T. Nakajima, Y. Honda, O. Kitao, H. Nakai, 
 T. Vreven, K. Throssell, J. A. Montgomery, Jr., J. E. Peralta, 
 F. Ogliaro, M. J. Bearpark, J. J. Heyd, E. N. Brothers, K. N. Kudin, 
 V. N. Staroverov, T. A. Keith, R. Kobayashi, J. Normand, 
 K. Raghavachari, A. P. Rendell, J. C. Burant, S. S. Iyengar, 
 J. Tomasi, M. Cossi, J. M. Millam, M. Klene, C. Adamo, R. Cammi, 
 J. W. Ochterski, R. L. Martin, K. Morokuma, O. Farkas, 
 J. B. Foresman, and D. J. Fox, Gaussian, Inc., Wallingford CT, 2019.
 
 ******************************************
 Gaussian 16:  EM64L-G16RevC.01  3-Jul-2019
                 9-Jul-2023 
 ******************************************
 ----------------------------------------------------------------------
 #P B3LYP/6-31G(d) Integral=Ultrafine SCF(Conver=8,XQC,MaxConventionalC
 ycles=64,MaxCycle=128) NoSymm Test Pop=mk IOp(6/33=2) GFInput GFPrint
 ----------------------------------------------------------------------
 1/38=1,172=1/1;
 2/12=2,15=1,17=6,18=5,40=1/2;
 3/5=1,6=6,7=1,11=2,24=110,25=1,30=1,74=-5,75=-5/1,2,3;
 4//1;
 5/5=2,6=8,7=128,8=3,13=1,38=5,85=64/2,8;
 6/7=2,8=2,9=2,10=2,15=8,20=1,28=1,33=2/1,2;
 99/5=1,9=1/99;
 -------------------------------------------------
 MEP step - Input generated by PyRED DVE-DMDS-OPLS
 -------------------------------------------------
 Symbolic Z-matrix:
 Charge =  0 Multiplicity = 1
 C                    -6.70841  -5.03679   2.02142 
 H                    -7.10612  -4.33281   1.28328 
 H                    -6.83663  -6.05126   1.63056 
 H                    -7.29209  -4.9406    2.94358 
 C                    -5.23954  -4.75352   2.2905 
 H                    -5.11699  -3.73773   2.6994 
 H                    -4.83982  -5.45602   3.04096 
 O                    -4.53074  -4.90182   1.06693 
 C                    -3.12655  -4.75343   1.17242 
 H                    -2.68762  -5.2804    0.31886 
 H                    -2.741    -5.22133   2.09123 
 C                    -2.69311  -3.28695   1.12336 
 H                    -3.08438  -2.829     0.20278 
 H                    -3.10639  -2.725     1.97658 
 O                    -1.27472  -3.27282   1.16857 
 C                    -0.6898   -1.98399   1.26457 
 H                     0.31215  -2.13849   1.67901 
 H                    -1.24899  -1.34464   1.96507 
 C                    -0.59538  -1.28624  -0.09998 
 H                    -1.5967   -1.12352  -0.51223 
 H                    -0.04222  -1.92747  -0.80313 
 O                     0.        0.        0. 
 C                     1.42036   0.        0. 
 H                     1.79903  -0.52415  -0.89251 
 H                     1.83185  -0.51329   0.88115 
 C                     1.86979   1.45748   0. 
 H                     1.52537   1.95098   0.91376 
 H                     1.42033   1.99059  -0.84345 
 S                     3.69477   1.64822  -0.02091 
 C                     4.07087   1.42532  -1.81115 
 H                     5.13843   1.18679  -1.84158 
 H                     3.53523   0.55408  -2.19911 
 C                     3.76725   2.6673   -2.65025 
 H                     4.30393   3.53814  -2.26263 
 H                     2.70027   2.90791  -2.6139 
 S                     4.1286    2.44642  -4.44279 
 C                     5.96623   2.57756  -4.48005 
 H                     6.24735   2.15834  -5.45108 
 H                     6.40533   1.93093  -3.71462 
 C                     6.48017   4.0112   -4.3394 
 H                     6.0386    4.65797  -5.10313 
 H                     6.20259   4.4291   -3.36674 
 S                     8.31521   4.13854  -4.38853 
 C                     8.666     3.92124  -6.18329 
 H                     9.74843   3.75892  -6.22126 
 H                     8.19755   2.99529  -6.53433 
 C                     8.27151   5.10834  -7.06076 
 H                     8.77625   6.02223  -6.73279 
 H                     8.54855   4.91543  -8.10487 
 H                     7.19192   5.29141  -7.03534 
 
 ITRead=  0  0  0  0  0  0  0  0  0  0  0  0  0  0  0  0  0  0  0  0
 ITRead=  0  0  0  0  0  0  0  0  0  0  0  0  0  0  0  0  0  0  0  0
 ITRead=  0  0  0  0  0  0  0  0  0  0
 MicOpt= -1 -1 -1 -1 -1 -1 -1 -1 -1 -1 -1 -1 -1 -1 -1 -1 -1 -1 -1 -1
 MicOpt= -1 -1 -1 -1 -1 -1 -1 -1 -1 -1 -1 -1 -1 -1 -1 -1 -1 -1 -1 -1
 MicOpt= -1 -1 -1 -1 -1 -1 -1 -1 -1 -1
 NAtoms=     50 NQM=       50 NQMF=       0 NMMI=      0 NMMIF=      0
                NMic=       0 NMicF=      0.
                          Input orientation:                          
 ---------------------------------------------------------------------
 Center     Atomic      Atomic             Coordinates (Angstroms)
 Number     Number       Type             X           Y           Z
 ---------------------------------------------------------------------
      1          6           0       -6.708413   -5.036791    2.021421
      2          1           0       -7.106121   -4.332810    1.283281
      3          1           0       -6.836634   -6.051255    1.630557
      4          1           0       -7.292090   -4.940601    2.943584
      5          6           0       -5.239541   -4.753521    2.290504
      6          1           0       -5.116989   -3.737728    2.699397
      7          1           0       -4.839817   -5.456017    3.040961
      8          8           0       -4.530740   -4.901817    1.066935
      9          6           0       -3.126554   -4.753432    1.172421
     10          1           0       -2.687618   -5.280397    0.318856
     11          1           0       -2.740995   -5.221331    2.091231
     12          6           0       -2.693108   -3.286951    1.123365
     13          1           0       -3.084377   -2.828999    0.202776
     14          1           0       -3.106388   -2.724997    1.976584
     15          8           0       -1.274721   -3.272823    1.168571
     16          6           0       -0.689802   -1.983993    1.264573
     17          1           0        0.312153   -2.138490    1.679012
     18          1           0       -1.248993   -1.344641    1.965066
     19          6           0       -0.595376   -1.286238   -0.099980
     20          1           0       -1.596696   -1.123523   -0.512230
     21          1           0       -0.042215   -1.927465   -0.803131
     22          8           0        0.000000    0.000000    0.000000
     23          6           0        1.420358    0.000000    0.000000
     24          1           0        1.799025   -0.524152   -0.892510
     25          1           0        1.831853   -0.513287    0.881151
     26          6           0        1.869789    1.457481    0.000000
     27          1           0        1.525366    1.950984    0.913758
     28          1           0        1.420332    1.990588   -0.843454
     29         16           0        3.694771    1.648224   -0.020913
     30          6           0        4.070865    1.425315   -1.811147
     31          1           0        5.138431    1.186793   -1.841577
     32          1           0        3.535226    0.554079   -2.199108
     33          6           0        3.767252    2.667297   -2.650253
     34          1           0        4.303933    3.538140   -2.262628
     35          1           0        2.700268    2.907911   -2.613896
     36         16           0        4.128597    2.446422   -4.442787
     37          6           0        5.966234    2.577558   -4.480045
     38          1           0        6.247349    2.158342   -5.451077
     39          1           0        6.405334    1.930928   -3.714618
     40          6           0        6.480168    4.011202   -4.339398
     41          1           0        6.038596    4.657968   -5.103131
     42          1           0        6.202592    4.429096   -3.366739
     43         16           0        8.315214    4.138544   -4.388526
     44          6           0        8.666004    3.921235   -6.183288
     45          1           0        9.748433    3.758916   -6.221263
     46          1           0        8.197555    2.995286   -6.534332
     47          6           0        8.271506    5.108342   -7.060757
     48          1           0        8.776249    6.022228   -6.732794
     49          1           0        8.548551    4.915431   -8.104875
     50          1           0        7.191916    5.291412   -7.035336
 ---------------------------------------------------------------------
 Stoichiometry    C14H30O3S3
 Framework group  C1[X(C14H30O3S3)]
 Standard basis: 6-31G(d) (6D, 7F)
   372 basis functions,   752 primitive gaussians,   372 cartesian basis functions
    93 alpha electrons       93 beta electrons
 Requested convergence on RMS density matrix=1.00D-08 within  64 cycles.
 Requested convergence on MAX density matrix=1.00D-06.
 Requested convergence on             energy=1.00D-06.
 SCF Done:  E(RB3LYP) =  -1971.75438392     A.U. after   13 cycles
            NFock= 13  Conv=0.33D-08     -V/T= 2.0058
 Mulliken charges:
     1  C   -0.451950
     2  H    0.158093
     3  H    0.159634
     4  H    0.142952
     5  C   -0.013413
     6  H    0.121195
     7  H    0.122520
     8  O   -0.472617
     9  C   -0.035130
    10  H    0.154499
    11  H    0.131153
    12  C   -0.034941
    13  H    0.135114
    14  H    0.123860
    15  O   -0.480239
    16  C   -0.037878
    17  H    0.147519
    18  H    0.132091
    19  C   -0.042308
    20  H    0.149120
    21  H    0.134043
    22  O   -0.479862
    23  C   -0.008854
    24  H    0.129403
    25  H    0.140872
    26  C   -0.437261
    27  H    0.188770
    28  H    0.180883
    29  S    0.086670
    30  C   -0.415629
    31  H    0.183705
    32  H    0.187900
    33  C   -0.413858
    34  H    0.186699
    35  H    0.183954
    36  S    0.081613
    37  C   -0.413958
    38  H    0.181556
    39  H    0.185461
    40  C   -0.413667
    41  H    0.186969
    42  H    0.181643
    43  S    0.082130
    44  C   -0.410982
    45  H    0.178889
    46  H    0.168996
    47  C   -0.436082
    48  H    0.165780
    49  H    0.150489
    50  H    0.154458
 Sum of Mulliken charges =  -0.00000
 Dipole moment (field-independent basis, Debye):
    X=             -0.5443    Y=              0.0071    Z=             -0.4244  Tot=              0.6902
 Quadrupole moment (field-independent basis, Debye-Ang):
   XX=           -147.5880   YY=           -155.3239   ZZ=           -133.1937
   XY=             -3.1779   XZ=            -21.7927   YZ=             -8.4274
 Traceless Quadrupole moment (field-independent basis, Debye-Ang):
   XX=             -2.2194   YY=             -9.9554   ZZ=             12.1748
   XY=             -3.1779   XZ=            -21.7927   YZ=             -8.4274
 Octapole moment (field-independent basis, Debye-Ang**2):
  XXX=          -1008.4572  YYY=           -183.1732  ZZZ=            603.5318  XYY=           -336.4093
  XXY=            -98.5138  XXZ=            128.2715  XZZ=           -205.2822  YZZ=            -32.4892
  YYZ=            233.8022  XYZ=            -19.3500
 Hexadecapole moment (field-independent basis, Debye-Ang**3):
 XXXX=         -22993.3405 YYYY=         -10211.3693 ZZZZ=          -8775.8470 XXXY=          -7117.7000
 XXXZ=           5403.6802 YYYX=          -7123.6932 YYYZ=           3878.2923 ZZZX=           5542.9120
 ZZZY=           3519.5605 XXYY=          -5742.2641 XXZZ=          -4035.5563 YYZZ=          -3007.9289
 XXYZ=            776.4089 YYXZ=           1987.0879 ZZXY=          -1700.6648
 Merz-Kollman atomic radii used.
 Atom Element Radius
    1     6    1.50
    2     1    1.20
    3     1    1.20
    4     1    1.20
    5     6    1.50
    6     1    1.20
    7     1    1.20
    8     8    1.40
    9     6    1.50
   10     1    1.20
   11     1    1.20
   12     6    1.50
   13     1    1.20
   14     1    1.20
   15     8    1.40
   16     6    1.50
   17     1    1.20
   18     1    1.20
   19     6    1.50
   20     1    1.20
   21     1    1.20
   22     8    1.40
   23     6    1.50
   24     1    1.20
   25     1    1.20
   26     6    1.50
   27     1    1.20
   28     1    1.20
   29    16    1.75
   30     6    1.50
   31     1    1.20
   32     1    1.20
   33     6    1.50
   34     1    1.20
   35     1    1.20
   36    16    1.75
   37     6    1.50
   38     1    1.20
   39     1    1.20
   40     6    1.50
   41     1    1.20
   42     1    1.20
   43    16    1.75
   44     6    1.50
   45     1    1.20
   46     1    1.20
   47     6    1.50
   48     1    1.20
   49     1    1.20
   50     1    1.20
 Generate VDW surfaces: Layer= 4 Dens= 1 Start= 1.400 Inc= 0.200
            Electrostatic Properties Using The SCF Density.


       Atomic Center    1 is at  -6.708413 -5.036791  2.021421
       Atomic Center    2 is at  -7.106121 -4.332810  1.283281
       Atomic Center    3 is at  -6.836634 -6.051255  1.630557
       Atomic Center    4 is at  -7.292090 -4.940601  2.943584
       Atomic Center    5 is at  -5.239541 -4.753521  2.290504
       Atomic Center    6 is at  -5.116989 -3.737728  2.699397
       Atomic Center    7 is at  -4.839817 -5.456017  3.040961
       Atomic Center    8 is at  -4.530740 -4.901817  1.066935
       Atomic Center    9 is at  -3.126554 -4.753432  1.172421
       Atomic Center   10 is at  -2.687618 -5.280397  0.318856
       Atomic Center   11 is at  -2.740995 -5.221331  2.091231
       Atomic Center   12 is at  -2.693108 -3.286951  1.123365
       Atomic Center   13 is at  -3.084377 -2.828999  0.202776
       Atomic Center   14 is at  -3.106388 -2.724997  1.976584
       Atomic Center   15 is at  -1.274721 -3.272823  1.168571
       Atomic Center   16 is at  -0.689802 -1.983993  1.264573
       Atomic Center   17 is at   0.312153 -2.138490  1.679012
       Atomic Center   18 is at  -1.248993 -1.344641  1.965066
       Atomic Center   19 is at  -0.595376 -1.286238 -0.099980
       Atomic Center   20 is at  -1.596696 -1.123523 -0.512230
       Atomic Center   21 is at  -0.042215 -1.927465 -0.803131
       Atomic Center   22 is at   0.000000  0.000000  0.000000
       Atomic Center   23 is at   1.420358  0.000000  0.000000
       Atomic Center   24 is at   1.799025 -0.524152 -0.892510
       Atomic Center   25 is at   1.831853 -0.513287  0.881151
       Atomic Center   26 is at   1.869789  1.457481  0.000000
       Atomic Center   27 is at   1.525366  1.950984  0.913758
       Atomic Center   28 is at   1.420332  1.990588 -0.843454
       Atomic Center   29 is at   3.694771  1.648224 -0.020913
       Atomic Center   30 is at   4.070865  1.425315 -1.811147
       Atomic Center   31 is at   5.138431  1.186793 -1.841577
       Atomic Center   32 is at   3.535226  0.554079 -2.199108
       Atomic Center   33 is at   3.767252  2.667297 -2.650253
       Atomic Center   34 is at   4.303933  3.538140 -2.262628
       Atomic Center   35 is at   2.700268  2.907911 -2.613896
       Atomic Center   36 is at   4.128597  2.446422 -4.442787
       Atomic Center   37 is at   5.966234  2.577558 -4.480045
       Atomic Center   38 is at   6.247349  2.158342 -5.451077
       Atomic Center   39 is at   6.405334  1.930928 -3.714618
       Atomic Center   40 is at   6.480168  4.011202 -4.339398
       Atomic Center   41 is at   6.038596  4.657968 -5.103131
       Atomic Center   42 is at   6.202592  4.429096 -3.366739
       Atomic Center   43 is at   8.315214  4.138544 -4.388526
       Atomic Center   44 is at   8.666004  3.921235 -6.183288
       Atomic Center   45 is at   9.748433  3.758916 -6.221263
       Atomic Center   46 is at   8.197555  2.995286 -6.534332
       Atomic Center   47 is at   8.271506  5.108342 -7.060757
       Atomic Center   48 is at   8.776249  6.022228 -6.732794
       Atomic Center   49 is at   8.548551  4.915431 -8.104875
       Atomic Center   50 is at   7.191916  5.291412 -7.035336
      ESP Fit Center   51 is at  -6.967234 -3.236649  3.071421
      ESP Fit Center   52 is at  -6.455286 -2.952102  2.021421
      ESP Fit Center   53 is at  -8.747391 -4.534228  2.021421
      ESP Fit Center   54 is at  -8.747391 -5.539354  2.021421
      ESP Fit Center   55 is at  -8.453398 -5.549165  0.971421
      ESP Fit Center   56 is at  -6.828670 -2.759309  1.802430
      ESP Fit Center   57 is at  -7.905008 -2.949096  1.802430
      ESP Fit Center   58 is at  -8.607538 -3.786339  1.802430
      ESP Fit Center   59 is at  -5.882154 -3.305780  0.764132
      ESP Fit Center   60 is at  -6.828670 -2.759309  0.764132
      ESP Fit Center   61 is at  -7.905008 -2.949096  0.764132
      ESP Fit Center   62 is at  -8.607538 -3.786339  0.764132
      ESP Fit Center   63 is at  -8.607538 -4.879281  0.764132
      ESP Fit Center   64 is at  -6.118642 -4.332810 -0.075868
      ESP Fit Center   65 is at  -6.800973 -3.393661 -0.075868
      ESP Fit Center   66 is at  -7.905008 -3.752384 -0.075868
      ESP Fit Center   67 is at  -7.905008 -4.913236 -0.075868
      ESP Fit Center   68 is at  -6.800973 -5.271959 -0.075868
      ESP Fit Center   69 is at  -7.106121 -4.332810 -0.396719
      ESP Fit Center   70 is at  -6.531486 -6.990404  2.989706
      ESP Fit Center   71 is at  -8.338051 -6.597726  2.149706
      ESP Fit Center   72 is at  -7.635521 -7.434969  2.149706
      ESP Fit Center   73 is at  -6.559183 -7.624756  2.149706
      ESP Fit Center   74 is at  -5.612667 -7.078285  2.149706
      ESP Fit Center   75 is at  -8.338051 -6.597726  1.111408
      ESP Fit Center   76 is at  -7.635521 -7.434969  1.111408
      ESP Fit Center   77 is at  -6.559183 -7.624756  1.111408
      ESP Fit Center   78 is at  -5.612667 -7.078285  1.111408
      ESP Fit Center   79 is at  -7.635521 -6.631681  0.271408
      ESP Fit Center   80 is at  -6.531486 -6.990404  0.271408
      ESP Fit Center   81 is at  -6.836634 -6.051255 -0.049443
      ESP Fit Center   82 is at  -7.292090 -4.940601  4.623584
      ESP Fit Center   83 is at  -6.304611 -4.940601  4.302733
      ESP Fit Center   84 is at  -6.986942 -4.001452  4.302733
      ESP Fit Center   85 is at  -8.090977 -4.360175  4.302733
      ESP Fit Center   86 is at  -8.090977 -5.521027  4.302733
      ESP Fit Center   87 is at  -6.986942 -5.879750  4.302733
      ESP Fit Center   88 is at  -7.014639 -3.367100  3.462733
      ESP Fit Center   89 is at  -8.090977 -3.556887  3.462733
      ESP Fit Center   90 is at  -8.793507 -4.394130  3.462733
      ESP Fit Center   91 is at  -8.793507 -5.487072  3.462733
      ESP Fit Center   92 is at  -8.090977 -6.324315  3.462733
      ESP Fit Center   93 is at  -8.793507 -4.394130  2.424435
      ESP Fit Center   94 is at  -8.793507 -5.487072  2.424435
      ESP Fit Center   95 is at  -5.498362 -2.953379  1.240504
      ESP Fit Center   96 is at  -5.116989 -3.737728  4.379397
      ESP Fit Center   97 is at  -4.129510 -3.737728  4.058546
      ESP Fit Center   98 is at  -4.811841 -2.798579  4.058546
      ESP Fit Center   99 is at  -5.915876 -3.157302  4.058546
      ESP Fit Center  100 is at  -4.839538 -2.164227  3.218546
      ESP Fit Center  101 is at  -5.915876 -2.354014  3.218546
      ESP Fit Center  102 is at  -6.618406 -3.191257  3.218546
      ESP Fit Center  103 is at  -4.839538 -2.164227  2.180248
      ESP Fit Center  104 is at  -5.915876 -2.354014  2.180248
      ESP Fit Center  105 is at  -4.811841 -2.798579  1.340248
      ESP Fit Center  106 is at  -4.839817 -5.456017  4.720961
      ESP Fit Center  107 is at  -3.852338 -5.456017  4.400110
      ESP Fit Center  108 is at  -4.534669 -4.516868  4.400110
      ESP Fit Center  109 is at  -5.638704 -4.875591  4.400110
      ESP Fit Center  110 is at  -5.638704 -6.036443  4.400110
      ESP Fit Center  111 is at  -4.534669 -6.395166  4.400110
      ESP Fit Center  112 is at  -5.638704 -6.839731  3.560110
      ESP Fit Center  113 is at  -4.562366 -7.029518  3.560110
      ESP Fit Center  114 is at  -3.615850 -6.483047  3.560110
      ESP Fit Center  115 is at  -5.638704 -6.839731  2.521812
      ESP Fit Center  116 is at  -4.562366 -7.029518  2.521812
      ESP Fit Center  117 is at  -4.530740 -6.861817  1.066935
      ESP Fit Center  118 is at  -5.055268 -3.287484  0.086935
      ESP Fit Center  119 is at  -5.903973 -3.904105  0.086935
      ESP Fit Center  120 is at  -5.903973 -5.899529  0.086935
      ESP Fit Center  121 is at  -5.055268 -6.516150  0.086935
      ESP Fit Center  122 is at  -4.006212 -6.516150  0.086935
      ESP Fit Center  123 is at  -4.040740 -4.053112 -0.630475
      ESP Fit Center  124 is at  -5.020740 -4.053112 -0.630475
      ESP Fit Center  125 is at  -5.510740 -4.901817 -0.630475
      ESP Fit Center  126 is at  -5.020740 -5.750522 -0.630475
      ESP Fit Center  127 is at  -4.040740 -5.750522 -0.630475
      ESP Fit Center  128 is at  -4.530740 -4.901817 -0.893065
      ESP Fit Center  129 is at  -2.873427 -6.838121  1.172421
      ESP Fit Center  130 is at  -1.267096 -5.729351  1.172421
      ESP Fit Center  131 is at  -1.089843 -5.280397  0.838005
      ESP Fit Center  132 is at  -2.410167 -6.853898  0.838005
      ESP Fit Center  133 is at  -1.463651 -6.307427  0.838005
      ESP Fit Center  134 is at  -1.089843 -5.280397 -0.200293
      ESP Fit Center  135 is at  -3.486505 -6.664111 -0.200293
      ESP Fit Center  136 is at  -2.410167 -6.853898 -0.200293
      ESP Fit Center  137 is at  -1.463651 -6.307427 -0.200293
      ESP Fit Center  138 is at  -1.700139 -5.280397 -1.040293
      ESP Fit Center  139 is at  -2.382470 -4.341248 -1.040293
      ESP Fit Center  140 is at  -3.486505 -4.699971 -1.040293
      ESP Fit Center  141 is at  -3.486505 -5.860823 -1.040293
      ESP Fit Center  142 is at  -2.382470 -6.219546 -1.040293
      ESP Fit Center  143 is at  -2.687618 -5.280397 -1.361144
      ESP Fit Center  144 is at  -2.740995 -5.221331  3.771231
      ESP Fit Center  145 is at  -1.753516 -5.221331  3.450380
      ESP Fit Center  146 is at  -2.435847 -4.282182  3.450380
      ESP Fit Center  147 is at  -2.435847 -6.160480  3.450380
      ESP Fit Center  148 is at  -1.143220 -5.221331  2.610380
      ESP Fit Center  149 is at  -3.539882 -6.605045  2.610380
      ESP Fit Center  150 is at  -2.463544 -6.794832  2.610380
      ESP Fit Center  151 is at  -1.517028 -6.248361  2.610380
      ESP Fit Center  152 is at  -2.463544 -6.794832  1.572082
      ESP Fit Center  153 is at  -1.517028 -6.248361  1.572082
      ESP Fit Center  154 is at  -4.732086 -2.784388  1.123365
      ESP Fit Center  155 is at  -3.883264 -1.445285  0.721925
      ESP Fit Center  156 is at  -4.585794 -2.282528  0.721925
      ESP Fit Center  157 is at  -3.883264 -1.445285 -0.316373
      ESP Fit Center  158 is at  -4.585794 -2.282528 -0.316373
      ESP Fit Center  159 is at  -4.585794 -3.375470 -0.316373
      ESP Fit Center  160 is at  -2.096898 -2.828999 -1.156373
      ESP Fit Center  161 is at  -3.883264 -2.248573 -1.156373
      ESP Fit Center  162 is at  -3.883264 -3.409425 -1.156373
      ESP Fit Center  163 is at  -2.779229 -3.768148 -1.156373
      ESP Fit Center  164 is at  -3.084377 -2.828999 -1.477224
      ESP Fit Center  165 is at  -3.106388 -2.724997  3.656584
      ESP Fit Center  166 is at  -2.118909 -2.724997  3.335733
      ESP Fit Center  167 is at  -2.801240 -1.785848  3.335733
      ESP Fit Center  168 is at  -3.905275 -2.144571  3.335733
      ESP Fit Center  169 is at  -2.801240 -3.664146  3.335733
      ESP Fit Center  170 is at  -3.905275 -1.341283  2.495733
      ESP Fit Center  171 is at  -3.905275 -1.341283  1.457435
      ESP Fit Center  172 is at  -4.607805 -2.178526  1.457435
      ESP Fit Center  173 is at  -1.274721 -3.272823  3.128571
      ESP Fit Center  174 is at  -0.784721 -4.121528  2.865981
      ESP Fit Center  175 is at  -0.750193 -4.887156  2.148571
      ESP Fit Center  176 is at   0.098512 -4.270535  2.148571
      ESP Fit Center  177 is at  -0.294721 -4.970233  1.168571
      ESP Fit Center  178 is at   0.422689 -4.252823  1.168571
      ESP Fit Center  179 is at  -0.750193 -4.887156  0.188571
      ESP Fit Center  180 is at   0.098512 -4.270535  0.188571
      ESP Fit Center  181 is at  -0.784721 -4.121528 -0.528839
      ESP Fit Center  182 is at  -1.274721 -3.272823 -0.791429
      ESP Fit Center  183 is at   0.065694 -0.329688  2.314573
      ESP Fit Center  184 is at   0.840147 -2.967231  0.214573
      ESP Fit Center  185 is at   0.312153 -2.138490  3.359012
      ESP Fit Center  186 is at   1.299632 -2.138490  3.038161
      ESP Fit Center  187 is at   0.617301 -1.199341  3.038161
      ESP Fit Center  188 is at   0.617301 -3.077639  3.038161
      ESP Fit Center  189 is at   1.909928 -2.138490  2.198161
      ESP Fit Center  190 is at   0.589604 -0.564989  2.198161
      ESP Fit Center  191 is at   0.589604 -3.711991  2.198161
      ESP Fit Center  192 is at   1.536120 -3.165520  2.198161
      ESP Fit Center  193 is at   1.536120 -3.165520  1.159863
      ESP Fit Center  194 is at   1.299632 -2.138490  0.319863
      ESP Fit Center  195 is at  -1.248993 -1.344641  3.645066
      ESP Fit Center  196 is at  -0.261514 -1.344641  3.324215
      ESP Fit Center  197 is at  -0.943845 -0.405492  3.324215
      ESP Fit Center  198 is at  -2.047880 -0.764215  3.324215
      ESP Fit Center  199 is at  -2.047880 -1.925067  3.324215
      ESP Fit Center  200 is at  -0.025026 -0.317611  2.484215
      ESP Fit Center  201 is at  -0.971542  0.228860  2.484215
      ESP Fit Center  202 is at  -2.047880  0.039073  2.484215
      ESP Fit Center  203 is at  -2.750410 -0.798170  2.484215
      ESP Fit Center  204 is at  -2.047880  0.039073  1.445917
      ESP Fit Center  205 is at  -2.750410 -0.798170  1.445917
      ESP Fit Center  206 is at  -1.786341  0.088208  0.950020
      ESP Fit Center  207 is at  -2.395583 -0.543097  0.846919
      ESP Fit Center  208 is at  -2.395583  0.260191  0.006919
      ESP Fit Center  209 is at  -3.098113 -0.577052  0.006919
      ESP Fit Center  210 is at  -2.395583  0.260191 -1.031379
      ESP Fit Center  211 is at  -3.098113 -0.577052 -1.031379
      ESP Fit Center  212 is at  -3.098113 -1.669994 -1.031379
      ESP Fit Center  213 is at  -1.291548 -0.184374 -1.871379
      ESP Fit Center  214 is at  -2.395583 -0.543097 -1.871379
      ESP Fit Center  215 is at  -2.395583 -1.703949 -1.871379
      ESP Fit Center  216 is at  -1.596696 -1.123523 -2.192230
      ESP Fit Center  217 is at   0.235236 -3.500966 -0.283982
      ESP Fit Center  218 is at   1.181752 -2.954495 -0.283982
      ESP Fit Center  219 is at  -0.841102 -3.311179 -1.322280
      ESP Fit Center  220 is at   0.235236 -3.500966 -1.322280
      ESP Fit Center  221 is at   1.181752 -2.954495 -1.322280
      ESP Fit Center  222 is at   0.945264 -1.927465 -2.162280
      ESP Fit Center  223 is at   0.262933 -0.988316 -2.162280
      ESP Fit Center  224 is at  -0.841102 -2.507891 -2.162280
      ESP Fit Center  225 is at   0.262933 -2.866614 -2.162280
      ESP Fit Center  226 is at  -0.042215 -1.927465 -2.483131
      ESP Fit Center  227 is at   0.000000  0.000000  1.960000
      ESP Fit Center  228 is at   0.490000  0.848705  1.697410
      ESP Fit Center  229 is at  -0.490000  0.848705  1.697410
      ESP Fit Center  230 is at  -0.524528  1.614333  0.980000
      ESP Fit Center  231 is at  -1.373233  0.997712  0.980000
      ESP Fit Center  232 is at  -0.980000  1.697410  0.000000
      ESP Fit Center  233 is at  -1.697410  0.980000  0.000000
      ESP Fit Center  234 is at  -0.524528  1.614333 -0.980000
      ESP Fit Center  235 is at  -1.373233  0.997712 -0.980000
      ESP Fit Center  236 is at   0.490000  0.848705 -1.697410
      ESP Fit Center  237 is at  -0.490000  0.848705 -1.697410
      ESP Fit Center  238 is at   0.000000  0.000000 -1.960000
      ESP Fit Center  239 is at   1.673485 -2.084689  0.000000
      ESP Fit Center  240 is at   2.613294 -1.728266  0.000000
      ESP Fit Center  241 is at   3.279816 -0.975919  0.000000
      ESP Fit Center  242 is at   2.076476 -2.097653 -0.373361
      ESP Fit Center  243 is at   3.022992 -1.551182 -0.373361
      ESP Fit Center  244 is at   2.076476 -2.097653 -1.411659
      ESP Fit Center  245 is at   3.022992 -1.551182 -1.411659
      ESP Fit Center  246 is at   1.000138  0.056274 -2.251659
      ESP Fit Center  247 is at   1.000138 -1.104578 -2.251659
      ESP Fit Center  248 is at   2.104173 -1.463301 -2.251659
      ESP Fit Center  249 is at   1.799025 -0.524152 -2.572510
      ESP Fit Center  250 is at   1.831853 -0.513287  2.561151
      ESP Fit Center  251 is at   2.819332 -0.513287  2.240300
      ESP Fit Center  252 is at   2.137001  0.425862  2.240300
      ESP Fit Center  253 is at   1.032966  0.067139  2.240300
      ESP Fit Center  254 is at   2.137001 -1.452436  2.240300
      ESP Fit Center  255 is at   3.429628 -0.513287  1.400300
      ESP Fit Center  256 is at   2.109304 -2.086788  1.400300
      ESP Fit Center  257 is at   3.055820 -1.540317  1.400300
      ESP Fit Center  258 is at   2.109304 -2.086788  0.362002
      ESP Fit Center  259 is at   3.055820 -1.540317  0.362002
      ESP Fit Center  260 is at   2.122916  3.542170  0.000000
      ESP Fit Center  261 is at   1.125119  3.421015  0.000000
      ESP Fit Center  262 is at  -0.169189  1.960044  0.000000
      ESP Fit Center  263 is at   1.525366  1.950984  2.593758
      ESP Fit Center  264 is at   2.512845  1.950984  2.272907
      ESP Fit Center  265 is at   1.830514  2.890133  2.272907
      ESP Fit Center  266 is at   0.726479  2.531410  2.272907
      ESP Fit Center  267 is at   0.726479  1.370558  2.272907
      ESP Fit Center  268 is at   1.830514  1.011835  2.272907
      ESP Fit Center  269 is at   1.802817  3.524485  1.432907
      ESP Fit Center  270 is at   0.726479  3.334698  1.432907
      ESP Fit Center  271 is at   0.023949  2.497455  1.432907
      ESP Fit Center  272 is at   0.023949  1.404513  1.432907
      ESP Fit Center  273 is at   1.802817  3.524485  0.394609
      ESP Fit Center  274 is at   0.726479  3.334698  0.394609
      ESP Fit Center  275 is at   0.023949  2.497455  0.394609
      ESP Fit Center  276 is at   1.697783  3.564089 -0.324305
      ESP Fit Center  277 is at   0.621445  3.374302 -0.324305
      ESP Fit Center  278 is at  -0.081085  2.537059 -0.324305
      ESP Fit Center  279 is at   1.697783  3.564089 -1.362603
      ESP Fit Center  280 is at   0.621445  3.374302 -1.362603
      ESP Fit Center  281 is at  -0.081085  2.537059 -1.362603
      ESP Fit Center  282 is at  -0.081085  1.444117 -1.362603
      ESP Fit Center  283 is at   0.621445  2.571014 -2.202603
      ESP Fit Center  284 is at   0.621445  1.410162 -2.202603
      ESP Fit Center  285 is at   1.725480  1.051439 -2.202603
      ESP Fit Center  286 is at   3.694771  1.648224  2.429087
      ESP Fit Center  287 is at   4.757786  1.648224  2.186461
      ESP Fit Center  288 is at   4.226279  2.568822  2.186461
      ESP Fit Center  289 is at   3.163263  2.568822  2.186461
      ESP Fit Center  290 is at   2.631756  1.648224  2.186461
      ESP Fit Center  291 is at   3.163263  0.727626  2.186461
      ESP Fit Center  292 is at   4.226279  0.727626  2.186461
      ESP Fit Center  293 is at   5.610258  1.648224  1.506637
      ESP Fit Center  294 is at   5.306181  2.683815  1.506637
      ESP Fit Center  295 is at   4.490493  3.390612  1.506637
      ESP Fit Center  296 is at   3.422169  3.544214  1.506637
      ESP Fit Center  297 is at   3.422169 -0.247766  1.506637
      ESP Fit Center  298 is at   4.490493 -0.094164  1.506637
      ESP Fit Center  299 is at   5.306181  0.612633  1.506637
      ESP Fit Center  300 is at   6.083344  1.648224  0.524263
      ESP Fit Center  301 is at   5.846801  2.684587  0.524263
      ESP Fit Center  302 is at   5.184022  3.515686  0.524263
      ESP Fit Center  303 is at   4.226279  3.976911  0.524263
      ESP Fit Center  304 is at   3.163263  3.976911  0.524263
      ESP Fit Center  305 is at   2.205520  3.515686  0.524263
      ESP Fit Center  306 is at   4.226279 -0.680463  0.524263
      ESP Fit Center  307 is at   5.184022 -0.219238  0.524263
      ESP Fit Center  308 is at   5.846801  0.611861  0.524263
      ESP Fit Center  309 is at   5.846801  2.684587 -0.566089
      ESP Fit Center  310 is at   5.184022  3.515686 -0.566089
      ESP Fit Center  311 is at   4.226279  3.976911 -0.566089
      ESP Fit Center  312 is at   3.163263  3.976911 -0.566089
      ESP Fit Center  313 is at   2.205520  3.515686 -0.566089
      ESP Fit Center  314 is at   4.226279 -0.680463 -0.566089
      ESP Fit Center  315 is at   5.184022 -0.219238 -0.566089
      ESP Fit Center  316 is at   6.125910  1.186793 -0.482428
      ESP Fit Center  317 is at   6.736206  1.186793 -1.322428
      ESP Fit Center  318 is at   6.362398  2.213823 -1.322428
      ESP Fit Center  319 is at   5.415882 -0.386708 -1.322428
      ESP Fit Center  320 is at   6.362398  0.159763 -1.322428
      ESP Fit Center  321 is at   5.415882 -0.386708 -2.360726
      ESP Fit Center  322 is at   6.362398  0.159763 -2.360726
      ESP Fit Center  323 is at   5.443579  0.247644 -3.200726
      ESP Fit Center  324 is at   3.812677 -1.019422 -1.679959
      ESP Fit Center  325 is at   2.033809  1.100550 -2.718257
      ESP Fit Center  326 is at   2.033809  0.007608 -2.718257
      ESP Fit Center  327 is at   2.736339 -0.829635 -2.718257
      ESP Fit Center  328 is at   3.812677 -1.019422 -2.718257
      ESP Fit Center  329 is at   4.759193 -0.472951 -2.718257
      ESP Fit Center  330 is at   2.736339 -0.026347 -3.558257
      ESP Fit Center  331 is at   3.840374 -0.385070 -3.558257
      ESP Fit Center  332 is at   3.022582  4.630831 -2.650253
      ESP Fit Center  333 is at   5.291412  3.538140 -0.903479
      ESP Fit Center  334 is at   4.609081  4.477289 -0.903479
      ESP Fit Center  335 is at   3.505046  4.118566 -0.903479
      ESP Fit Center  336 is at   5.901708  3.538140 -1.743479
      ESP Fit Center  337 is at   5.527900  4.565170 -1.743479
      ESP Fit Center  338 is at   4.581384  5.111641 -1.743479
      ESP Fit Center  339 is at   3.505046  4.921854 -1.743479
      ESP Fit Center  340 is at   4.581384  5.111641 -2.781777
      ESP Fit Center  341 is at   3.505046  4.921854 -2.781777
      ESP Fit Center  342 is at   1.901381  4.291625 -2.094747
      ESP Fit Center  343 is at   1.198851  3.454382 -2.094747
      ESP Fit Center  344 is at   1.901381  4.291625 -3.133045
      ESP Fit Center  345 is at   1.198851  3.454382 -3.133045
      ESP Fit Center  346 is at   1.198851  2.361440 -3.133045
      ESP Fit Center  347 is at   1.901381  1.524197 -3.133045
      ESP Fit Center  348 is at   1.901381  3.488337 -3.973045
      ESP Fit Center  349 is at   3.597089  4.775109 -3.897611
      ESP Fit Center  350 is at   2.639346  4.313884 -3.897611
      ESP Fit Center  351 is at   1.976567  1.410059 -3.897611
      ESP Fit Center  352 is at   2.639346  0.578960 -3.897611
      ESP Fit Center  353 is at   3.597089  0.117735 -3.897611
      ESP Fit Center  354 is at   4.660105  0.117735 -3.897611
      ESP Fit Center  355 is at   3.597089  4.775109 -4.987963
      ESP Fit Center  356 is at   2.639346  4.313884 -4.987963
      ESP Fit Center  357 is at   1.976567  3.482785 -4.987963
      ESP Fit Center  358 is at   1.740024  2.446422 -4.987963
      ESP Fit Center  359 is at   1.976567  1.410059 -4.987963
      ESP Fit Center  360 is at   2.639346  0.578960 -4.987963
      ESP Fit Center  361 is at   3.597089  0.117735 -4.987963
      ESP Fit Center  362 is at   4.660105  0.117735 -4.987963
      ESP Fit Center  363 is at   3.855995  4.342412 -5.970337
      ESP Fit Center  364 is at   2.874220  3.894051 -5.970337
      ESP Fit Center  365 is at   2.290701  2.986077 -5.970337
      ESP Fit Center  366 is at   2.290701  1.906767 -5.970337
      ESP Fit Center  367 is at   2.874220  0.998793 -5.970337
      ESP Fit Center  368 is at   3.855995  0.550432 -5.970337
      ESP Fit Center  369 is at   4.924319  0.704034 -5.970337
      ESP Fit Center  370 is at   4.660105  3.367020 -6.650161
      ESP Fit Center  371 is at   3.597089  3.367020 -6.650161
      ESP Fit Center  372 is at   3.065582  2.446422 -6.650161
      ESP Fit Center  373 is at   3.597089  1.525824 -6.650161
      ESP Fit Center  374 is at   4.660105  1.525824 -6.650161
      ESP Fit Center  375 is at   4.128597  2.446422 -6.892787
      ESP Fit Center  376 is at   5.441234  3.486885 -6.298698
      ESP Fit Center  377 is at   6.524800  0.584841 -4.931928
      ESP Fit Center  378 is at   7.471316  1.131312 -4.931928
      ESP Fit Center  379 is at   5.448462  0.774628 -5.970226
      ESP Fit Center  380 is at   6.524800  0.584841 -5.970226
      ESP Fit Center  381 is at   7.471316  1.131312 -5.970226
      ESP Fit Center  382 is at   5.448462  2.738768 -6.810226
      ESP Fit Center  383 is at   5.448462  1.577916 -6.810226
      ESP Fit Center  384 is at   6.552497  1.219193 -6.810226
      ESP Fit Center  385 is at   6.247349  2.158342 -7.131077
      ESP Fit Center  386 is at   7.392813  1.930928 -2.355469
      ESP Fit Center  387 is at   6.710482  2.870077 -2.355469
      ESP Fit Center  388 is at   8.003109  1.930928 -3.195469
      ESP Fit Center  389 is at   6.682785  0.357427 -3.195469
      ESP Fit Center  390 is at   7.629301  0.903898 -3.195469
      ESP Fit Center  391 is at   6.682785  0.357427 -4.233767
      ESP Fit Center  392 is at   7.629301  0.903898 -4.233767
      ESP Fit Center  393 is at   7.005168  3.101875 -2.520745
      ESP Fit Center  394 is at   6.733295  6.095891 -4.339398
      ESP Fit Center  395 is at   6.316047  6.231469 -4.583982
      ESP Fit Center  396 is at   5.239709  6.041682 -4.583982
      ESP Fit Center  397 is at   4.537179  5.204439 -4.583982
      ESP Fit Center  398 is at   6.316047  6.231469 -5.622280
      ESP Fit Center  399 is at   5.239709  6.041682 -5.622280
      ESP Fit Center  400 is at   4.537179  5.204439 -5.622280
      ESP Fit Center  401 is at   5.239709  5.238394 -6.462280
      ESP Fit Center  402 is at   5.239709  4.077542 -6.462280
      ESP Fit Center  403 is at   6.343744  3.718819 -6.462280
      ESP Fit Center  404 is at   6.202592  4.429096 -1.686739
      ESP Fit Center  405 is at   7.190071  4.429096 -2.007590
      ESP Fit Center  406 is at   6.507740  5.368245 -2.007590
      ESP Fit Center  407 is at   5.403705  5.009522 -2.007590
      ESP Fit Center  408 is at   6.507740  3.489947 -2.007590
      ESP Fit Center  409 is at   6.480043  6.002597 -2.847590
      ESP Fit Center  410 is at   5.403705  5.812810 -2.847590
      ESP Fit Center  411 is at   5.403705  5.812810 -3.885888
      ESP Fit Center  412 is at   8.315214  4.138544 -1.938526
      ESP Fit Center  413 is at   9.378229  4.138544 -2.181152
      ESP Fit Center  414 is at   8.846722  5.059142 -2.181152
      ESP Fit Center  415 is at   7.783706  5.059142 -2.181152
      ESP Fit Center  416 is at   7.783706  3.217946 -2.181152
      ESP Fit Center  417 is at   8.846722  3.217946 -2.181152
      ESP Fit Center  418 is at  10.230701  4.138544 -2.860976
      ESP Fit Center  419 is at   9.926624  5.174135 -2.860976
      ESP Fit Center  420 is at   9.110936  5.880932 -2.860976
      ESP Fit Center  421 is at   8.042612  6.034534 -2.860976
      ESP Fit Center  422 is at   8.042612  2.242554 -2.860976
      ESP Fit Center  423 is at   9.110936  2.396156 -2.860976
      ESP Fit Center  424 is at   9.926624  3.102953 -2.860976
      ESP Fit Center  425 is at  10.703787  4.138544 -3.843350
      ESP Fit Center  426 is at  10.467244  5.174907 -3.843350
      ESP Fit Center  427 is at   9.804465  6.006006 -3.843350
      ESP Fit Center  428 is at   8.846722  6.467231 -3.843350
      ESP Fit Center  429 is at   7.783706  6.467231 -3.843350
      ESP Fit Center  430 is at   8.846722  1.809857 -3.843350
      ESP Fit Center  431 is at   9.804465  2.271082 -3.843350
      ESP Fit Center  432 is at  10.467244  3.102181 -3.843350
      ESP Fit Center  433 is at  10.467244  5.174907 -4.933702
      ESP Fit Center  434 is at   9.804465  6.006006 -4.933702
      ESP Fit Center  435 is at   8.846722  6.467231 -4.933702
      ESP Fit Center  436 is at   7.783706  6.467231 -4.933702
      ESP Fit Center  437 is at   8.846722  1.809857 -4.933702
      ESP Fit Center  438 is at   9.804465  2.271082 -4.933702
      ESP Fit Center  439 is at   9.191004  3.011908 -8.001941
      ESP Fit Center  440 is at  10.735912  3.758916 -4.862114
      ESP Fit Center  441 is at  11.346208  3.758916 -5.702114
      ESP Fit Center  442 is at  10.972400  4.785946 -5.702114
      ESP Fit Center  443 is at  10.025884  2.185415 -5.702114
      ESP Fit Center  444 is at  10.972400  2.731886 -5.702114
      ESP Fit Center  445 is at  11.346208  3.758916 -6.740412
      ESP Fit Center  446 is at  10.972400  4.785946 -6.740412
      ESP Fit Center  447 is at  10.025884  2.185415 -6.740412
      ESP Fit Center  448 is at  10.972400  2.731886 -6.740412
      ESP Fit Center  449 is at  10.735912  3.758916 -7.580412
      ESP Fit Center  450 is at  10.053581  2.819767 -7.580412
      ESP Fit Center  451 is at   8.475006  1.421785 -6.015183
      ESP Fit Center  452 is at   9.421522  1.968256 -6.015183
      ESP Fit Center  453 is at   6.696138  3.541757 -7.053481
      ESP Fit Center  454 is at   6.696138  2.448815 -7.053481
      ESP Fit Center  455 is at   7.398668  1.611572 -7.053481
      ESP Fit Center  456 is at   8.475006  1.421785 -7.053481
      ESP Fit Center  457 is at   9.421522  1.968256 -7.053481
      ESP Fit Center  458 is at   7.398668  2.414860 -7.893481
      ESP Fit Center  459 is at   8.502703  2.056137 -7.893481
      ESP Fit Center  460 is at   8.197555  2.995286 -8.214332
      ESP Fit Center  461 is at  10.371506  5.108342 -7.060757
      ESP Fit Center  462 is at   9.801455  6.091580 -8.110757
      ESP Fit Center  463 is at   8.012685  6.908484 -8.110757
      ESP Fit Center  464 is at   7.080541  3.733896 -8.110757
      ESP Fit Center  465 is at   9.763728  6.022228 -5.373645
      ESP Fit Center  466 is at   9.081397  6.961377 -5.373645
      ESP Fit Center  467 is at   7.977362  6.602654 -5.373645
      ESP Fit Center  468 is at  10.374024  6.022228 -6.213645
      ESP Fit Center  469 is at  10.000216  7.049258 -6.213645
      ESP Fit Center  470 is at   9.053700  7.595729 -6.213645
      ESP Fit Center  471 is at   7.977362  7.405942 -6.213645
      ESP Fit Center  472 is at  10.374024  6.022228 -7.251943
      ESP Fit Center  473 is at  10.000216  7.049258 -7.251943
      ESP Fit Center  474 is at   9.053700  7.595729 -7.251943
      ESP Fit Center  475 is at   7.977362  7.405942 -7.251943
      ESP Fit Center  476 is at   9.081397  6.961377 -8.091943
      ESP Fit Center  477 is at  10.146326  4.915431 -8.624024
      ESP Fit Center  478 is at   9.772518  5.942461 -8.624024
      ESP Fit Center  479 is at   8.826002  6.488932 -8.624024
      ESP Fit Center  480 is at   7.047134  4.368960 -8.624024
      ESP Fit Center  481 is at   7.749664  3.531717 -8.624024
      ESP Fit Center  482 is at   8.826002  3.341930 -8.624024
      ESP Fit Center  483 is at   9.772518  3.888401 -8.624024
      ESP Fit Center  484 is at   9.536030  4.915431 -9.464024
      ESP Fit Center  485 is at   8.853699  5.854580 -9.464024
      ESP Fit Center  486 is at   7.749664  5.495857 -9.464024
      ESP Fit Center  487 is at   7.749664  4.335005 -9.464024
      ESP Fit Center  488 is at   8.853699  3.976282 -9.464024
      ESP Fit Center  489 is at   8.548551  4.915431 -9.784875
      ESP Fit Center  490 is at   6.393029  6.675126 -6.516187
      ESP Fit Center  491 is at   5.690499  5.837883 -6.516187
      ESP Fit Center  492 is at   6.393029  6.675126 -7.554485
      ESP Fit Center  493 is at   5.690499  5.837883 -7.554485
      ESP Fit Center  494 is at   5.690499  4.744941 -7.554485
      ESP Fit Center  495 is at   6.393029  3.907698 -7.554485
      ESP Fit Center  496 is at   6.393029  5.871838 -8.394485
      ESP Fit Center  497 is at   6.393029  4.710986 -8.394485
      ESP Fit Center  498 is at  -6.975452 -6.894088  3.517797
      ESP Fit Center  499 is at  -7.229073 -2.755628  2.555471
      ESP Fit Center  500 is at  -8.167271 -3.207441  2.555471
      ESP Fit Center  501 is at  -8.816524 -6.052004  2.555471
      ESP Fit Center  502 is at  -9.048240 -5.036791  1.487371
      ESP Fit Center  503 is at  -8.816524 -6.052004  1.487371
      ESP Fit Center  504 is at  -8.508801 -5.565433  0.525045
      ESP Fit Center  505 is at  -7.619945 -2.751423  2.243281
      ESP Fit Center  506 is at  -8.451329 -3.355459  2.243281
      ESP Fit Center  507 is at  -6.146121 -2.670041  1.283281
      ESP Fit Center  508 is at  -7.106121 -2.412810  1.283281
      ESP Fit Center  509 is at  -8.066121 -2.670041  1.283281
      ESP Fit Center  510 is at  -8.768890 -3.372810  1.283281
      ESP Fit Center  511 is at  -9.026121 -4.332810  1.283281
      ESP Fit Center  512 is at  -6.592297 -2.751423  0.323281
      ESP Fit Center  513 is at  -7.619945 -2.751423  0.323281
      ESP Fit Center  514 is at  -8.451329 -3.355459  0.323281
      ESP Fit Center  515 is at  -8.768890 -4.332810  0.323281
      ESP Fit Center  516 is at  -8.451329 -5.310161  0.323281
      ESP Fit Center  517 is at  -6.146121 -4.332810 -0.379488
      ESP Fit Center  518 is at  -6.626121 -3.501426 -0.379488
      ESP Fit Center  519 is at  -7.586121 -3.501426 -0.379488
      ESP Fit Center  520 is at  -8.066121 -4.332810 -0.379488
      ESP Fit Center  521 is at  -7.586121 -5.164194 -0.379488
      ESP Fit Center  522 is at  -6.626121 -5.164194 -0.379488
      ESP Fit Center  523 is at  -7.106121 -4.332810 -0.636719
      ESP Fit Center  524 is at  -8.181842 -7.028606  2.590557
      ESP Fit Center  525 is at  -7.350458 -7.632642  2.590557
      ESP Fit Center  526 is at  -6.322810 -7.632642  2.590557
      ESP Fit Center  527 is at  -8.499403 -7.011255  1.630557
      ESP Fit Center  528 is at  -7.796634 -7.714024  1.630557
      ESP Fit Center  529 is at  -6.836634 -7.971255  1.630557
      ESP Fit Center  530 is at  -5.876634 -7.714024  1.630557
      ESP Fit Center  531 is at  -8.499403 -6.051255  0.670557
      ESP Fit Center  532 is at  -8.181842 -7.028606  0.670557
      ESP Fit Center  533 is at  -7.350458 -7.632642  0.670557
      ESP Fit Center  534 is at  -6.322810 -7.632642  0.670557
      ESP Fit Center  535 is at  -5.491426 -7.028606  0.670557
      ESP Fit Center  536 is at  -7.796634 -6.051255 -0.032212
      ESP Fit Center  537 is at  -7.316634 -6.882639 -0.032212
      ESP Fit Center  538 is at  -6.356634 -6.882639 -0.032212
      ESP Fit Center  539 is at  -6.836634 -6.051255 -0.289443
      ESP Fit Center  540 is at  -7.292090 -4.940601  4.863584
      ESP Fit Center  541 is at  -6.332090 -4.940601  4.606353
      ESP Fit Center  542 is at  -6.812090 -4.109217  4.606353
      ESP Fit Center  543 is at  -7.772090 -4.109217  4.606353
      ESP Fit Center  544 is at  -8.252090 -4.940601  4.606353
      ESP Fit Center  545 is at  -7.772090 -5.771985  4.606353
      ESP Fit Center  546 is at  -6.812090 -5.771985  4.606353
      ESP Fit Center  547 is at  -6.778266 -3.359214  3.903584
      ESP Fit Center  548 is at  -7.805914 -3.359214  3.903584
      ESP Fit Center  549 is at  -8.637298 -3.963250  3.903584
      ESP Fit Center  550 is at  -8.954859 -4.940601  3.903584
      ESP Fit Center  551 is at  -8.637298 -5.917952  3.903584
      ESP Fit Center  552 is at  -7.805914 -6.521988  3.903584
      ESP Fit Center  553 is at  -8.252090 -3.277832  2.943584
      ESP Fit Center  554 is at  -8.954859 -3.980601  2.943584
      ESP Fit Center  555 is at  -9.212090 -4.940601  2.943584
      ESP Fit Center  556 is at  -8.954859 -5.900601  2.943584
      ESP Fit Center  557 is at  -4.718881 -7.034684  1.756454
      ESP Fit Center  558 is at  -5.506580 -2.896224  0.794128
      ESP Fit Center  559 is at  -5.116989 -3.737728  4.619397
      ESP Fit Center  560 is at  -4.156989 -3.737728  4.362166
      ESP Fit Center  561 is at  -4.636989 -2.906344  4.362166
      ESP Fit Center  562 is at  -5.596989 -2.906344  4.362166
      ESP Fit Center  563 is at  -6.076989 -3.737728  4.362166
      ESP Fit Center  564 is at  -3.454220 -3.737728  3.659397
      ESP Fit Center  565 is at  -4.603165 -2.156341  3.659397
      ESP Fit Center  566 is at  -5.630813 -2.156341  3.659397
      ESP Fit Center  567 is at  -6.462197 -2.760377  3.659397
      ESP Fit Center  568 is at  -5.116989 -1.817728  2.699397
      ESP Fit Center  569 is at  -6.076989 -2.074959  2.699397
      ESP Fit Center  570 is at  -5.630813 -2.156341  1.739397
      ESP Fit Center  571 is at  -4.839817 -5.456017  4.960961
      ESP Fit Center  572 is at  -3.879817 -5.456017  4.703730
      ESP Fit Center  573 is at  -4.359817 -4.624633  4.703730
      ESP Fit Center  574 is at  -5.319817 -4.624633  4.703730
      ESP Fit Center  575 is at  -5.799817 -5.456017  4.703730
      ESP Fit Center  576 is at  -5.319817 -6.287401  4.703730
      ESP Fit Center  577 is at  -4.359817 -6.287401  4.703730
      ESP Fit Center  578 is at  -3.177048 -5.456017  4.000961
      ESP Fit Center  579 is at  -3.494609 -4.478666  4.000961
      ESP Fit Center  580 is at  -6.185025 -6.433368  4.000961
      ESP Fit Center  581 is at  -5.353641 -7.037404  4.000961
      ESP Fit Center  582 is at  -4.325993 -7.037404  4.000961
      ESP Fit Center  583 is at  -3.494609 -6.433368  4.000961
      ESP Fit Center  584 is at  -5.799817 -7.118786  3.040961
      ESP Fit Center  585 is at  -4.839817 -7.376017  3.040961
      ESP Fit Center  586 is at  -3.879817 -7.118786  3.040961
      ESP Fit Center  587 is at  -4.325993 -7.037404  2.080961
      ESP Fit Center  588 is at  -4.267507 -7.069733  1.565382
      ESP Fit Center  589 is at  -5.305140 -2.859893  0.568488
      ESP Fit Center  590 is at  -5.305140 -6.943741  0.568488
      ESP Fit Center  591 is at  -4.267507 -7.069733  0.568488
      ESP Fit Center  592 is at  -5.071922 -3.236229 -0.329682
      ESP Fit Center  593 is at  -5.947574 -3.872427 -0.329682
      ESP Fit Center  594 is at  -5.947574 -5.931207 -0.329682
      ESP Fit Center  595 is at  -5.071922 -6.567405 -0.329682
      ESP Fit Center  596 is at  -3.989558 -6.567405 -0.329682
      ESP Fit Center  597 is at  -4.044790 -4.060127 -0.951235
      ESP Fit Center  598 is at  -5.016690 -4.060127 -0.951235
      ESP Fit Center  599 is at  -5.502640 -4.901817 -0.951235
      ESP Fit Center  600 is at  -5.016690 -5.743507 -0.951235
      ESP Fit Center  601 is at  -4.530740 -4.901817 -1.173065
      ESP Fit Center  602 is at  -3.647214 -7.034595  1.706471
      ESP Fit Center  603 is at  -3.647214 -7.034595  0.638371
      ESP Fit Center  604 is at  -3.647618 -6.943166  0.318856
      ESP Fit Center  605 is at  -2.687618 -7.200397  0.318856
      ESP Fit Center  606 is at  -1.727618 -6.943166  0.318856
      ESP Fit Center  607 is at  -1.024849 -6.240397  0.318856
      ESP Fit Center  608 is at  -1.024849 -5.280397 -0.641144
      ESP Fit Center  609 is at  -3.201442 -6.861784 -0.641144
      ESP Fit Center  610 is at  -2.173794 -6.861784 -0.641144
      ESP Fit Center  611 is at  -1.342410 -6.257748 -0.641144
      ESP Fit Center  612 is at  -1.727618 -5.280397 -1.343913
      ESP Fit Center  613 is at  -2.207618 -4.449013 -1.343913
      ESP Fit Center  614 is at  -3.167618 -4.449013 -1.343913
      ESP Fit Center  615 is at  -3.647618 -5.280397 -1.343913
      ESP Fit Center  616 is at  -3.167618 -6.111781 -1.343913
      ESP Fit Center  617 is at  -2.207618 -6.111781 -1.343913
      ESP Fit Center  618 is at  -2.687618 -5.280397 -1.601144
      ESP Fit Center  619 is at  -2.740995 -5.221331  4.011231
      ESP Fit Center  620 is at  -1.780995 -5.221331  3.754000
      ESP Fit Center  621 is at  -2.260995 -4.389947  3.754000
      ESP Fit Center  622 is at  -3.220995 -4.389947  3.754000
      ESP Fit Center  623 is at  -2.260995 -6.052715  3.754000
      ESP Fit Center  624 is at  -1.078226 -5.221331  3.051231
      ESP Fit Center  625 is at  -3.254819 -6.802718  3.051231
      ESP Fit Center  626 is at  -2.227171 -6.802718  3.051231
      ESP Fit Center  627 is at  -1.395787 -6.198682  3.051231
      ESP Fit Center  628 is at  -2.740995 -7.141331  2.091231
      ESP Fit Center  629 is at  -1.780995 -6.884100  2.091231
      ESP Fit Center  630 is at  -1.078226 -6.181331  2.091231
      ESP Fit Center  631 is at  -4.044377 -1.166230  0.202776
      ESP Fit Center  632 is at  -4.747146 -1.868999  0.202776
      ESP Fit Center  633 is at  -5.004377 -2.828999  0.202776
      ESP Fit Center  634 is at  -3.598201 -1.247612 -0.757224
      ESP Fit Center  635 is at  -4.429585 -1.851648 -0.757224
      ESP Fit Center  636 is at  -4.747146 -2.828999 -0.757224
      ESP Fit Center  637 is at  -2.124377 -2.828999 -1.459993
      ESP Fit Center  638 is at  -3.564377 -1.997615 -1.459993
      ESP Fit Center  639 is at  -4.044377 -2.828999 -1.459993
      ESP Fit Center  640 is at  -3.564377 -3.660383 -1.459993
      ESP Fit Center  641 is at  -2.604377 -3.660383 -1.459993
      ESP Fit Center  642 is at  -3.084377 -2.828999 -1.717224
      ESP Fit Center  643 is at  -3.106388 -2.724997  3.896584
      ESP Fit Center  644 is at  -2.146388 -2.724997  3.639353
      ESP Fit Center  645 is at  -2.626388 -1.893613  3.639353
      ESP Fit Center  646 is at  -3.586388 -1.893613  3.639353
      ESP Fit Center  647 is at  -2.626388 -3.556381  3.639353
      ESP Fit Center  648 is at  -3.620212 -1.143610  2.936584
      ESP Fit Center  649 is at  -4.451596 -1.747646  2.936584
      ESP Fit Center  650 is at  -3.106388 -0.804997  1.976584
      ESP Fit Center  651 is at  -4.066388 -1.062228  1.976584
      ESP Fit Center  652 is at  -4.769157 -1.764997  1.976584
      ESP Fit Center  653 is at  -1.274721 -3.272823  3.408571
      ESP Fit Center  654 is at  -0.788771 -4.114513  3.186741
      ESP Fit Center  655 is at  -0.733539 -4.938411  2.565188
      ESP Fit Center  656 is at   0.142113 -4.302213  2.565188
      ESP Fit Center  657 is at  -0.034159 -5.070087  1.667018
      ESP Fit Center  658 is at   0.658972 -4.287703  1.667018
      ESP Fit Center  659 is at  -0.034159 -5.070087  0.670124
      ESP Fit Center  660 is at   0.658972 -4.287703  0.670124
      ESP Fit Center  661 is at  -0.733539 -4.938411 -0.228046
      ESP Fit Center  662 is at   0.142113 -4.302213 -0.228046
      ESP Fit Center  663 is at  -0.788771 -4.114513 -0.849599
      ESP Fit Center  664 is at  -1.210462 -2.885803  3.426898
      ESP Fit Center  665 is at  -0.169142 -2.885803  3.426898
      ESP Fit Center  666 is at   0.312153 -2.138490  3.599012
      ESP Fit Center  667 is at   1.272153 -2.138490  3.341781
      ESP Fit Center  668 is at   0.792153 -1.307106  3.341781
      ESP Fit Center  669 is at   0.792153 -2.969874  3.341781
      ESP Fit Center  670 is at   1.974922 -2.138490  2.639012
      ESP Fit Center  671 is at   0.825977 -0.557103  2.639012
      ESP Fit Center  672 is at   0.825977 -3.719877  2.639012
      ESP Fit Center  673 is at   1.657361 -3.115841  2.639012
      ESP Fit Center  674 is at   1.272153 -3.801259  1.679012
      ESP Fit Center  675 is at   1.974922 -3.098490  1.679012
      ESP Fit Center  676 is at   1.657361 -3.115841  0.719012
      ESP Fit Center  677 is at  -1.248993 -1.344641  3.885066
      ESP Fit Center  678 is at  -0.288993 -1.344641  3.627835
      ESP Fit Center  679 is at  -0.768993 -0.513257  3.627835
      ESP Fit Center  680 is at  -1.728993 -0.513257  3.627835
      ESP Fit Center  681 is at  -2.208993 -1.344641  3.627835
      ESP Fit Center  682 is at  -1.728993 -2.176025  3.627835
      ESP Fit Center  683 is at   0.096215 -0.367290  2.925066
      ESP Fit Center  684 is at  -0.735169  0.236746  2.925066
      ESP Fit Center  685 is at  -1.762817  0.236746  2.925066
      ESP Fit Center  686 is at  -2.594201 -0.367290  2.925066
      ESP Fit Center  687 is at  -1.248993  0.575359  1.965066
      ESP Fit Center  688 is at  -2.208993  0.318128  1.965066
      ESP Fit Center  689 is at  -2.911762 -0.384641  1.965066
      ESP Fit Center  690 is at  -2.594201 -0.367290  1.005066
      ESP Fit Center  691 is at  -1.824154 -2.704323 -1.596356
      ESP Fit Center  692 is at  -0.074716 -0.384428 -2.262305
      ESP Fit Center  693 is at  -1.116036 -0.384428 -2.262305
      ESP Fit Center  694 is at  -2.941904 -0.146172  0.447770
      ESP Fit Center  695 is at  -2.556696  0.539246 -0.512230
      ESP Fit Center  696 is at  -3.259465 -0.163523 -0.512230
      ESP Fit Center  697 is at  -2.110520  0.457864 -1.472230
      ESP Fit Center  698 is at  -2.941904 -0.146172 -1.472230
      ESP Fit Center  699 is at  -3.259465 -1.123523 -1.472230
      ESP Fit Center  700 is at  -2.110520 -2.704910 -1.472230
      ESP Fit Center  701 is at  -2.076696 -0.292139 -2.174999
      ESP Fit Center  702 is at  -2.556696 -1.123523 -2.174999
      ESP Fit Center  703 is at  -2.076696 -1.954907 -2.174999
      ESP Fit Center  704 is at  -1.596696 -1.123523 -2.432230
      ESP Fit Center  705 is at   1.302993 -2.904816  0.156869
      ESP Fit Center  706 is at  -0.042215 -3.847465 -0.803131
      ESP Fit Center  707 is at   0.917785 -3.590234 -0.803131
      ESP Fit Center  708 is at   1.620554 -2.887465 -0.803131
      ESP Fit Center  709 is at  -1.387423 -2.904816 -1.763131
      ESP Fit Center  710 is at  -0.556039 -3.508852 -1.763131
      ESP Fit Center  711 is at   0.471609 -3.508852 -1.763131
      ESP Fit Center  712 is at   1.302993 -2.904816 -1.763131
      ESP Fit Center  713 is at   0.917785 -1.927465 -2.465900
      ESP Fit Center  714 is at   0.437785 -1.096081 -2.465900
      ESP Fit Center  715 is at  -1.002215 -1.927465 -2.465900
      ESP Fit Center  716 is at  -0.522215 -2.758849 -2.465900
      ESP Fit Center  717 is at   0.437785 -2.758849 -2.465900
      ESP Fit Center  718 is at  -0.042215 -1.927465 -2.723131
      ESP Fit Center  719 is at  -0.485950  0.841690  2.018170
      ESP Fit Center  720 is at  -0.541182  1.665588  1.396617
      ESP Fit Center  721 is at  -1.416834  1.029390  1.396617
      ESP Fit Center  722 is at  -0.774400  2.041924  0.498447
      ESP Fit Center  723 is at  -1.634627  1.448153  0.498447
      ESP Fit Center  724 is at  -2.120380  0.522627  0.498447
      ESP Fit Center  725 is at  -0.774400  2.041924 -0.498447
      ESP Fit Center  726 is at  -1.634627  1.448153 -0.498447
      ESP Fit Center  727 is at  -0.541182  1.665588 -1.396617
      ESP Fit Center  728 is at  -1.416834  1.029390 -1.396617
      ESP Fit Center  729 is at  -0.485950  0.841690 -2.018170
      ESP Fit Center  730 is at   0.000000  0.000000 -2.240000
      ESP Fit Center  731 is at   2.759025 -2.186921 -0.892510
      ESP Fit Center  732 is at   3.461794 -1.484152 -0.892510
      ESP Fit Center  733 is at   2.312849 -2.105539 -1.852510
      ESP Fit Center  734 is at   3.144233 -1.501503 -1.852510
      ESP Fit Center  735 is at   1.319025  0.307232 -2.555279
      ESP Fit Center  736 is at   0.839025 -0.524152 -2.555279
      ESP Fit Center  737 is at   1.319025 -1.355536 -2.555279
      ESP Fit Center  738 is at   2.279025 -1.355536 -2.555279
      ESP Fit Center  739 is at   1.799025 -0.524152 -2.812510
      ESP Fit Center  740 is at   1.831853 -0.513287  2.801151
      ESP Fit Center  741 is at   2.791853 -0.513287  2.543920
      ESP Fit Center  742 is at   2.311853  0.318097  2.543920
      ESP Fit Center  743 is at   1.351853  0.318097  2.543920
      ESP Fit Center  744 is at   0.871853 -0.513287  2.543920
      ESP Fit Center  745 is at   2.311853 -1.344671  2.543920
      ESP Fit Center  746 is at   3.494622 -0.513287  1.841151
      ESP Fit Center  747 is at   2.345677 -2.094674  1.841151
      ESP Fit Center  748 is at   3.177061 -1.490638  1.841151
      ESP Fit Center  749 is at   2.791853 -2.176056  0.881151
      ESP Fit Center  750 is at   3.494622 -1.473287  0.881151
      ESP Fit Center  751 is at   1.525366  1.950984  2.833758
      ESP Fit Center  752 is at   2.485366  1.950984  2.576527
      ESP Fit Center  753 is at   2.005366  2.782368  2.576527
      ESP Fit Center  754 is at   1.045366  2.782368  2.576527
      ESP Fit Center  755 is at   0.565366  1.950984  2.576527
      ESP Fit Center  756 is at   1.045366  1.119600  2.576527
      ESP Fit Center  757 is at   2.005366  1.119600  2.576527
      ESP Fit Center  758 is at   2.039190  3.532371  1.873758
      ESP Fit Center  759 is at   1.011542  3.532371  1.873758
      ESP Fit Center  760 is at   0.180158  2.928335  1.873758
      ESP Fit Center  761 is at  -0.137403  1.950984  1.873758
      ESP Fit Center  762 is at   1.525366  3.870984  0.913758
      ESP Fit Center  763 is at   0.565366  3.613753  0.913758
      ESP Fit Center  764 is at  -0.137403  2.910984  0.913758
      ESP Fit Center  765 is at   1.420332  3.910588 -0.843454
      ESP Fit Center  766 is at   0.460332  3.653357 -0.843454
      ESP Fit Center  767 is at  -0.242437  2.950588 -0.843454
      ESP Fit Center  768 is at   0.906508  3.571975 -1.803454
      ESP Fit Center  769 is at   0.075124  2.967939 -1.803454
      ESP Fit Center  770 is at  -0.242437  1.990588 -1.803454
      ESP Fit Center  771 is at   0.460332  1.990588 -2.506223
      ESP Fit Center  772 is at   0.940332  1.159204 -2.506223
      ESP Fit Center  773 is at   3.694771  1.648224  2.779087
      ESP Fit Center  774 is at   4.766285  1.648224  2.565950
      ESP Fit Center  775 is at   4.230528  2.576182  2.565950
      ESP Fit Center  776 is at   3.159014  2.576182  2.565950
      ESP Fit Center  777 is at   2.623257  1.648224  2.565950
      ESP Fit Center  778 is at   3.159014  0.720266  2.565950
      ESP Fit Center  779 is at   4.230528  0.720266  2.565950
      ESP Fit Center  780 is at   5.674670  1.648224  1.958986
      ESP Fit Center  781 is at   5.409414  2.638173  1.958986
      ESP Fit Center  782 is at   4.684720  3.362867  1.958986
      ESP Fit Center  783 is at   3.694771  3.628123  1.958986
      ESP Fit Center  784 is at   2.704822  3.362867  1.958986
      ESP Fit Center  785 is at   3.694771 -0.331675  1.958986
      ESP Fit Center  786 is at   4.684720 -0.066419  1.958986
      ESP Fit Center  787 is at   5.409414  0.658275  1.958986
      ESP Fit Center  788 is at   6.281634  1.648224  1.050601
      ESP Fit Center  789 is at   6.057988  2.700396  1.050601
      ESP Fit Center  790 is at   5.425720  3.570638  1.050601
      ESP Fit Center  791 is at   4.494156  4.108477  1.050601
      ESP Fit Center  792 is at   3.424370  4.220916  1.050601
      ESP Fit Center  793 is at   2.401340  3.888513  1.050601
      ESP Fit Center  794 is at   4.494156 -0.812029  1.050601
      ESP Fit Center  795 is at   5.425720 -0.274190  1.050601
      ESP Fit Center  796 is at   6.057988  0.596052  1.050601
      ESP Fit Center  797 is at   6.494771  1.648224 -0.020913
      ESP Fit Center  798 is at   6.305693  2.659701 -0.020913
      ESP Fit Center  799 is at   5.763996  3.534572 -0.020913
      ESP Fit Center  800 is at   4.942838  4.154681 -0.020913
      ESP Fit Center  801 is at   3.953122  4.436280 -0.020913
      ESP Fit Center  802 is at   2.928515  4.341336 -0.020913
      ESP Fit Center  803 is at   2.007394  3.882672 -0.020913
      ESP Fit Center  804 is at   3.953122 -1.139832 -0.020913
      ESP Fit Center  805 is at   4.942838 -0.858233 -0.020913
      ESP Fit Center  806 is at   5.763996 -0.238124 -0.020913
      ESP Fit Center  807 is at   6.305693  0.636747 -0.020913
      ESP Fit Center  808 is at   6.057988  2.700396 -1.092427
      ESP Fit Center  809 is at   4.591525 -0.855848 -1.277097
      ESP Fit Center  810 is at   6.801200  1.186793 -0.881577
      ESP Fit Center  811 is at   6.483639  2.164144 -0.881577
      ESP Fit Center  812 is at   5.652255 -0.394594 -0.881577
      ESP Fit Center  813 is at   6.483639  0.209442 -0.881577
      ESP Fit Center  814 is at   7.058431  1.186793 -1.841577
      ESP Fit Center  815 is at   6.801200  2.146793 -1.841577
      ESP Fit Center  816 is at   6.098431  2.849562 -1.841577
      ESP Fit Center  817 is at   5.138431 -0.733207 -1.841577
      ESP Fit Center  818 is at   6.098431 -0.475976 -1.841577
      ESP Fit Center  819 is at   6.801200  0.226793 -1.841577
      ESP Fit Center  820 is at   5.652255 -0.394594 -2.801577
      ESP Fit Center  821 is at   6.483639  0.209442 -2.801577
      ESP Fit Center  822 is at   4.049050 -1.027308 -1.239108
      ESP Fit Center  823 is at   3.535226 -1.365921 -2.199108
      ESP Fit Center  824 is at   4.495226 -1.108690 -2.199108
      ESP Fit Center  825 is at   1.872457  0.554079 -3.159108
      ESP Fit Center  826 is at   2.190018 -0.423272 -3.159108
      ESP Fit Center  827 is at   3.021402 -1.027308 -3.159108
      ESP Fit Center  828 is at   4.049050 -1.027308 -3.159108
      ESP Fit Center  829 is at   4.880434 -0.423272 -3.159108
      ESP Fit Center  830 is at   3.055226 -0.277305 -3.861877
      ESP Fit Center  831 is at   3.246592  4.948460 -3.184303
      ESP Fit Center  832 is at   4.783933  4.369524 -0.599859
      ESP Fit Center  833 is at   5.966702  3.538140 -1.302628
      ESP Fit Center  834 is at   5.649141  4.515491 -1.302628
      ESP Fit Center  835 is at   4.817757  5.119527 -1.302628
      ESP Fit Center  836 is at   3.790109  5.119527 -1.302628
      ESP Fit Center  837 is at   2.958725  4.515491 -1.302628
      ESP Fit Center  838 is at   4.303933  5.458140 -2.262628
      ESP Fit Center  839 is at   3.343933  5.200909 -2.262628
      ESP Fit Center  840 is at   3.790109  5.119527 -3.222628
      ESP Fit Center  841 is at   2.186444  4.489298 -1.653896
      ESP Fit Center  842 is at   1.355060  3.885262 -1.653896
      ESP Fit Center  843 is at   2.700268  4.827911 -2.613896
      ESP Fit Center  844 is at   1.740268  4.570680 -2.613896
      ESP Fit Center  845 is at   1.037499  3.867911 -2.613896
      ESP Fit Center  846 is at   0.780268  2.907911 -2.613896
      ESP Fit Center  847 is at   1.740268  1.245142 -2.613896
      ESP Fit Center  848 is at   2.186444  4.489298 -3.573896
      ESP Fit Center  849 is at   1.355060  3.885262 -3.573896
      ESP Fit Center  850 is at   1.037499  2.907911 -3.573896
      ESP Fit Center  851 is at   1.355060  1.930560 -3.573896
      ESP Fit Center  852 is at   2.035781  0.925902 -3.371273
      ESP Fit Center  853 is at   3.362341  5.139534 -4.442787
      ESP Fit Center  854 is at   2.441220  4.680870 -4.442787
      ESP Fit Center  855 is at   1.747989  3.920432 -4.442787
      ESP Fit Center  856 is at   1.376272  2.960921 -4.442787
      ESP Fit Center  857 is at   1.376272  1.931923 -4.442787
      ESP Fit Center  858 is at   1.747989  0.972412 -4.442787
      ESP Fit Center  859 is at   2.441220  0.211974 -4.442787
      ESP Fit Center  860 is at   3.362341 -0.246690 -4.442787
      ESP Fit Center  861 is at   4.386948 -0.341634 -4.442787
      ESP Fit Center  862 is at   5.376664 -0.060035 -4.442787
      ESP Fit Center  863 is at   3.858196  5.019114 -5.514301
      ESP Fit Center  864 is at   2.835166  4.686711 -5.514301
      ESP Fit Center  865 is at   2.035781  3.966942 -5.514301
      ESP Fit Center  866 is at   1.598263  2.984261 -5.514301
      ESP Fit Center  867 is at   1.598263  1.908583 -5.514301
      ESP Fit Center  868 is at   2.035781  0.925902 -5.514301
      ESP Fit Center  869 is at   2.835166  0.206133 -5.514301
      ESP Fit Center  870 is at   3.858196 -0.126270 -5.514301
      ESP Fit Center  871 is at   4.927982 -0.013831 -5.514301
      ESP Fit Center  872 is at   4.128597  4.426321 -6.422686
      ESP Fit Center  873 is at   3.138648  4.161065 -6.422686
      ESP Fit Center  874 is at   2.413954  3.436371 -6.422686
      ESP Fit Center  875 is at   2.148698  2.446422 -6.422686
      ESP Fit Center  876 is at   2.413954  1.456473 -6.422686
      ESP Fit Center  877 is at   3.138648  0.731779 -6.422686
      ESP Fit Center  878 is at   4.128597  0.466523 -6.422686
      ESP Fit Center  879 is at   5.118546  0.731779 -6.422686
      ESP Fit Center  880 is at   4.664354  3.374380 -7.029650
      ESP Fit Center  881 is at   3.592840  3.374380 -7.029650
      ESP Fit Center  882 is at   3.057083  2.446422 -7.029650
      ESP Fit Center  883 is at   3.592840  1.518464 -7.029650
      ESP Fit Center  884 is at   4.664354  1.518464 -7.029650
      ESP Fit Center  885 is at   4.128597  2.446422 -7.242787
      ESP Fit Center  886 is at   6.486894  0.296395 -5.014095
      ESP Fit Center  887 is at   6.247349  0.238342 -5.451077
      ESP Fit Center  888 is at   7.207349  0.495573 -5.451077
      ESP Fit Center  889 is at   7.910118  1.198342 -5.451077
      ESP Fit Center  890 is at   5.733525  0.576955 -6.411077
      ESP Fit Center  891 is at   6.761173  0.576955 -6.411077
      ESP Fit Center  892 is at   5.767349  2.989726 -7.113846
      ESP Fit Center  893 is at   5.287349  2.158342 -7.113846
      ESP Fit Center  894 is at   5.767349  1.326958 -7.113846
      ESP Fit Center  895 is at   6.727349  1.326958 -7.113846
      ESP Fit Center  896 is at   6.247349  2.158342 -7.371077
      ESP Fit Center  897 is at   7.365334  1.930928 -2.051849
      ESP Fit Center  898 is at   6.885334  2.762312 -2.051849
      ESP Fit Center  899 is at   6.919158  0.349541 -2.754618
      ESP Fit Center  900 is at   7.750542  0.953577 -2.754618
      ESP Fit Center  901 is at   6.405334  0.010928 -3.714618
      ESP Fit Center  902 is at   7.365334  0.268159 -3.714618
      ESP Fit Center  903 is at   8.068103  0.970928 -3.714618
      ESP Fit Center  904 is at   6.919158  0.349541 -4.674618
      ESP Fit Center  905 is at   7.750542  0.953577 -4.674618
      ESP Fit Center  906 is at   5.959508  6.292365 -3.805348
      ESP Fit Center  907 is at   5.524772  6.239355 -4.143131
      ESP Fit Center  908 is at   4.693388  5.635319 -4.143131
      ESP Fit Center  909 is at   6.038596  6.577968 -5.103131
      ESP Fit Center  910 is at   5.078596  6.320737 -5.103131
      ESP Fit Center  911 is at   4.375827  5.617968 -5.103131
      ESP Fit Center  912 is at   5.524772  6.239355 -6.063131
      ESP Fit Center  913 is at   4.693388  5.635319 -6.063131
      ESP Fit Center  914 is at   5.078596  4.657968 -6.765900
      ESP Fit Center  915 is at   5.558596  3.826584 -6.765900
      ESP Fit Center  916 is at   6.202592  4.429096 -1.446739
      ESP Fit Center  917 is at   7.162592  4.429096 -1.703970
      ESP Fit Center  918 is at   6.682592  5.260480 -1.703970
      ESP Fit Center  919 is at   5.722592  5.260480 -1.703970
      ESP Fit Center  920 is at   6.682592  3.597712 -1.703970
      ESP Fit Center  921 is at   6.716416  6.010483 -2.406739
      ESP Fit Center  922 is at   5.688768  6.010483 -2.406739
      ESP Fit Center  923 is at   4.857384  5.406447 -2.406739
      ESP Fit Center  924 is at   6.202592  6.349096 -3.366739
      ESP Fit Center  925 is at   5.242592  6.091865 -3.366739
      ESP Fit Center  926 is at   4.539823  5.389096 -3.366739
      ESP Fit Center  927 is at   8.315214  4.138544 -1.588526
      ESP Fit Center  928 is at   9.386728  4.138544 -1.801663
      ESP Fit Center  929 is at   8.850971  5.066502 -1.801663
      ESP Fit Center  930 is at   7.779457  5.066502 -1.801663
      ESP Fit Center  931 is at   7.779457  3.210586 -1.801663
      ESP Fit Center  932 is at   8.850971  3.210586 -1.801663
      ESP Fit Center  933 is at  10.295113  4.138544 -2.408627
      ESP Fit Center  934 is at  10.029857  5.128493 -2.408627
      ESP Fit Center  935 is at   9.305163  5.853187 -2.408627
      ESP Fit Center  936 is at   8.315214  6.118443 -2.408627
      ESP Fit Center  937 is at   7.325265  5.853187 -2.408627
      ESP Fit Center  938 is at   8.315214  2.158645 -2.408627
      ESP Fit Center  939 is at   9.305163  2.423901 -2.408627
      ESP Fit Center  940 is at  10.029857  3.148595 -2.408627
      ESP Fit Center  941 is at  10.902077  4.138544 -3.317012
      ESP Fit Center  942 is at  10.678431  5.190716 -3.317012
      ESP Fit Center  943 is at  10.046163  6.060958 -3.317012
      ESP Fit Center  944 is at   9.114599  6.598797 -3.317012
      ESP Fit Center  945 is at   8.044813  6.711236 -3.317012
      ESP Fit Center  946 is at   7.021783  6.378833 -3.317012
      ESP Fit Center  947 is at   9.114599  1.678291 -3.317012
      ESP Fit Center  948 is at  10.046163  2.216130 -3.317012
      ESP Fit Center  949 is at  10.678431  3.086372 -3.317012
      ESP Fit Center  950 is at  11.115214  4.138544 -4.388526
      ESP Fit Center  951 is at  10.926136  5.150021 -4.388526
      ESP Fit Center  952 is at  10.384439  6.024892 -4.388526
      ESP Fit Center  953 is at   9.563281  6.645001 -4.388526
      ESP Fit Center  954 is at   8.573565  6.926600 -4.388526
      ESP Fit Center  955 is at   7.548958  6.831656 -4.388526
      ESP Fit Center  956 is at   8.573565  1.350488 -4.388526
      ESP Fit Center  957 is at   9.563281  1.632087 -4.388526
      ESP Fit Center  958 is at  10.384439  2.252196 -4.388526
      ESP Fit Center  959 is at  10.926136  3.127067 -4.388526
      ESP Fit Center  960 is at   9.186664  3.019425 -8.345613
      ESP Fit Center  961 is at  11.411202  3.758916 -5.261263
      ESP Fit Center  962 is at  11.093641  4.736267 -5.261263
      ESP Fit Center  963 is at  10.262257  2.177529 -5.261263
      ESP Fit Center  964 is at  11.093641  2.781565 -5.261263
      ESP Fit Center  965 is at  11.668433  3.758916 -6.221263
      ESP Fit Center  966 is at  11.411202  4.718916 -6.221263
      ESP Fit Center  967 is at  10.708433  5.421685 -6.221263
      ESP Fit Center  968 is at  10.708433  2.096147 -6.221263
      ESP Fit Center  969 is at  11.411202  2.798916 -6.221263
      ESP Fit Center  970 is at  11.411202  3.758916 -7.181263
      ESP Fit Center  971 is at  11.093641  4.736267 -7.181263
      ESP Fit Center  972 is at  10.262257  2.177529 -7.181263
      ESP Fit Center  973 is at  11.093641  2.781565 -7.181263
      ESP Fit Center  974 is at  10.708433  3.758916 -7.884032
      ESP Fit Center  975 is at  10.228433  2.927532 -7.884032
      ESP Fit Center  976 is at   8.711379  1.413899 -5.574332
      ESP Fit Center  977 is at   8.197555  1.075286 -6.534332
      ESP Fit Center  978 is at   9.157555  1.332517 -6.534332
      ESP Fit Center  979 is at   6.534786  2.995286 -7.494332
      ESP Fit Center  980 is at   6.852347  2.017935 -7.494332
      ESP Fit Center  981 is at   7.683731  1.413899 -7.494332
      ESP Fit Center  982 is at   8.711379  1.413899 -7.494332
      ESP Fit Center  983 is at   9.542763  2.017935 -7.494332
      ESP Fit Center  984 is at   7.237555  2.995286 -8.197101
      ESP Fit Center  985 is at   7.717555  2.163902 -8.197101
      ESP Fit Center  986 is at   8.677555  2.163902 -8.197101
      ESP Fit Center  987 is at   8.197555  2.995286 -8.454332
      ESP Fit Center  988 is at   7.042728  6.526427 -5.564381
      ESP Fit Center  989 is at  10.611333  5.108342 -7.594807
      ESP Fit Center  990 is at   9.050989  6.815171 -8.557133
      ESP Fit Center  991 is at   8.004467  6.965639 -8.557133
      ESP Fit Center  992 is at   7.042728  6.526427 -8.557133
      ESP Fit Center  993 is at   7.042728  3.690257 -8.557133
      ESP Fit Center  994 is at   9.256249  6.853612 -5.070025
      ESP Fit Center  995 is at  10.439018  6.022228 -5.772794
      ESP Fit Center  996 is at  10.121457  6.999579 -5.772794
      ESP Fit Center  997 is at   9.290073  7.603615 -5.772794
      ESP Fit Center  998 is at   8.262425  7.603615 -5.772794
      ESP Fit Center  999 is at   7.431041  6.999579 -5.772794
      ESP Fit Center 1000 is at  10.696249  6.022228 -6.732794
      ESP Fit Center 1001 is at  10.439018  6.982228 -6.732794
      ESP Fit Center 1002 is at   9.736249  7.684997 -6.732794
      ESP Fit Center 1003 is at   8.776249  7.942228 -6.732794
      ESP Fit Center 1004 is at   7.816249  7.684997 -6.732794
      ESP Fit Center 1005 is at  10.439018  6.022228 -7.692794
      ESP Fit Center 1006 is at  10.121457  6.999579 -7.692794
      ESP Fit Center 1007 is at   9.290073  7.603615 -7.692794
      ESP Fit Center 1008 is at   8.262425  7.603615 -7.692794
      ESP Fit Center 1009 is at   9.256249  6.853612 -8.395563
      ESP Fit Center 1010 is at  10.468551  4.915431 -8.104875
      ESP Fit Center 1011 is at  10.211320  3.955431 -8.104875
      ESP Fit Center 1012 is at  10.211320  4.915431 -9.064875
      ESP Fit Center 1013 is at   9.893759  5.892782 -9.064875
      ESP Fit Center 1014 is at   9.062375  6.496818 -9.064875
      ESP Fit Center 1015 is at   8.034727  6.496818 -9.064875
      ESP Fit Center 1016 is at   7.203343  5.892782 -9.064875
      ESP Fit Center 1017 is at   6.885782  4.915431 -9.064875
      ESP Fit Center 1018 is at   7.203343  3.938080 -9.064875
      ESP Fit Center 1019 is at   8.034727  3.334044 -9.064875
      ESP Fit Center 1020 is at   9.062375  3.334044 -9.064875
      ESP Fit Center 1021 is at   9.893759  3.938080 -9.064875
      ESP Fit Center 1022 is at   9.508551  4.915431 -9.767644
      ESP Fit Center 1023 is at   9.028551  5.746815 -9.767644
      ESP Fit Center 1024 is at   8.068551  5.746815 -9.767644
      ESP Fit Center 1025 is at   7.588551  4.915431 -9.767644
      ESP Fit Center 1026 is at   8.068551  4.084047 -9.767644
      ESP Fit Center 1027 is at   9.028551  4.084047 -9.767644
      ESP Fit Center 1028 is at   8.548551  4.915431-10.024875
      ESP Fit Center 1029 is at   6.678092  6.872799 -6.075336
      ESP Fit Center 1030 is at   6.231916  6.954181 -7.035336
      ESP Fit Center 1031 is at   5.529147  6.251412 -7.035336
      ESP Fit Center 1032 is at   5.271916  5.291412 -7.035336
      ESP Fit Center 1033 is at   5.529147  4.331412 -7.035336
      ESP Fit Center 1034 is at   6.231916  3.628643 -7.035336
      ESP Fit Center 1035 is at   6.678092  6.872799 -7.995336
      ESP Fit Center 1036 is at   5.846708  6.268763 -7.995336
      ESP Fit Center 1037 is at   5.529147  5.291412 -7.995336
      ESP Fit Center 1038 is at   5.846708  4.314061 -7.995336
      ESP Fit Center 1039 is at   6.711916  6.122796 -8.698105
      ESP Fit Center 1040 is at   6.231916  5.291412 -8.698105
      ESP Fit Center 1041 is at  -6.980119 -6.926547  3.930609
      ESP Fit Center 1042 is at  -7.263486 -2.604858  3.054666
      ESP Fit Center 1043 is at  -8.263693 -6.987050  3.054666
      ESP Fit Center 1044 is at  -6.708413 -2.336791  2.021421
      ESP Fit Center 1045 is at  -9.202888 -4.003546  2.021421
      ESP Fit Center 1046 is at  -9.408413 -5.036791  2.021421
      ESP Fit Center 1047 is at  -9.202888 -6.070036  2.021421
[...]
 1382 Fit       0.003308
 1383 Fit       0.006361
 1384 Fit       0.007479
 1385 Fit      -0.002973
 1386 Fit      -0.003715
 1387 Fit       0.000356
 1388 Fit       0.003918
 1389 Fit       0.001452
 1390 Fit      -0.003120
 1391 Fit       0.002143
 1392 Fit      -0.007797
 1393 Fit      -0.010047
 1394 Fit      -0.007942
 1395 Fit      -0.004714
 1396 Fit      -0.003280
 1397 Fit      -0.004442
 1398 Fit      -0.007090
 1399 Fit      -0.009652
 1400 Fit      -0.010470
 1401 Fit      -0.007802
 1402 Fit      -0.001133
 1403 Fit      -0.004365
 1404 Fit      -0.011474
 1405 Fit      -0.012222
 1406 Fit      -0.010368
 1407 Fit      -0.009016
 1408 Fit      -0.009562
 1409 Fit      -0.011252
 1410 Fit      -0.012017
 1411 Fit      -0.009653
 1412 Fit      -0.002909
 1413 Fit      -0.004056
 1414 Fit      -0.010510
 1415 Fit      -0.011536
 1416 Fit      -0.010835
 1417 Fit      -0.010692
 1418 Fit      -0.010135
 1419 Fit      -0.006417
 1420 Fit       0.002311
 1421 Fit       0.008100
 1422 Fit       0.002075
 1423 Fit      -0.006418
 1424 Fit      -0.008357
 1425 Fit      -0.006175
 1426 Fit       0.001425
 1427 Fit      -0.001900
 1428 Fit       0.001941
 1429 Fit       0.005519
 1430 Fit       0.007337
 1431 Fit       0.006509
 1432 Fit       0.010562
 1433 Fit       0.012504
 1434 Fit       0.009313
 1435 Fit       0.014163
 1436 Fit       0.014326
 1437 Fit       0.005964
 1438 Fit       0.010524
 1439 Fit       0.009529
 1440 Fit       0.002705
 1441 Fit       0.006789
 1442 Fit       0.004955
 1443 Fit      -0.002824
 1444 Fit      -0.002107
 1445 Fit       0.001423
 1446 Fit       0.003963
 1447 Fit       0.001166
 1448 Fit       0.005331
 1449 Fit      -0.002160
 1450 Fit       0.006407
 1451 Fit       0.008612
 1452 Fit       0.004644
 1453 Fit       0.008884
 1454 Fit       0.009416
 1455 Fit      -0.000292
 1456 Fit       0.005026
 1457 Fit       0.008760
 1458 Fit      -0.000844
 1459 Fit       0.004147
 1460 Fit       0.005070
 1461 Fit      -0.005835
 1462 Fit      -0.011803
 1463 Fit      -0.010010
 1464 Fit      -0.002806
 1465 Fit       0.004043
 1466 Fit      -0.001083
 1467 Fit      -0.009625
 1468 Fit      -0.013897
 1469 Fit      -0.014105
 1470 Fit      -0.013886
 1471 Fit      -0.010375
 1472 Fit      -0.001719
 1473 Fit      -0.005813
 1474 Fit      -0.012945
 1475 Fit      -0.014310
 1476 Fit      -0.011893
 1477 Fit      -0.012890
 1478 Fit      -0.015078
 1479 Fit      -0.016141
 1480 Fit      -0.013769
 1481 Fit      -0.006806
 1482 Fit      -0.004927
 1483 Fit      -0.013066
 1484 Fit      -0.014379
 1485 Fit      -0.012899
 1486 Fit      -0.006237
 1487 Fit      -0.008050
 1488 Fit      -0.011614
 1489 Fit      -0.014809
 1490 Fit      -0.015562
 1491 Fit      -0.012393
 1492 Fit      -0.005067
 1493 Fit      -0.008227
 1494 Fit      -0.011396
 1495 Fit      -0.009991
 1496 Fit      -0.007255
 1497 Fit      -0.000773
 1498 Fit      -0.005198
 1499 Fit      -0.008463
 1500 Fit      -0.009247
 1501 Fit      -0.002979
 1502 Fit      -0.002721
 1503 Fit      -0.004695
 1504 Fit      -0.001957
 1505 Fit       0.005041
 1506 Fit       0.010249
 1507 Fit       0.003932
 1508 Fit       0.002680
 1509 Fit       0.002729
 1510 Fit       0.007683
 1511 Fit       0.006952
 1512 Fit       0.005729
 1513 Fit       0.006096
 1514 Fit       0.007315
 1515 Fit       0.009332
 1516 Fit       0.008724
 1517 Fit       0.008563
 1518 Fit       0.009096
 1519 Fit       0.010257
 1520 Fit       0.010256
 1521 Fit       0.009397
 1522 Fit       0.006843
 1523 Fit       0.015492
 1524 Fit       0.014799
 1525 Fit       0.012047
 1526 Fit       0.009859
 1527 Fit       0.011971
 1528 Fit       0.012063
 1529 Fit       0.010916
 1530 Fit       0.002038
 1531 Fit       0.007600
 1532 Fit       0.004965
 1533 Fit       0.002684
 1534 Fit       0.004068
 1535 Fit       0.003439
 1536 Fit       0.003971
 1537 Fit       0.006583
 1538 Fit       0.000900
 1539 Fit      -0.000249
 1540 Fit      -0.000530
 1541 Fit      -0.001486
 1542 Fit      -0.002589
 1543 Fit       0.005129
 1544 Fit       0.003749
 1545 Fit       0.003374
 1546 Fit       0.002742
 1547 Fit       0.001793
 1548 Fit       0.004353
 1549 Fit       0.003902
 1550 Fit       0.003133
 1551 Fit       0.007933
 1552 Fit       0.006062
 1553 Fit       0.004724
 1554 Fit       0.006890
 1555 Fit       0.009051
 1556 Fit       0.010439
 1557 Fit       0.010359
 1558 Fit       0.009566
 1559 Fit       0.008275
 1560 Fit       0.006726
 1561 Fit       0.006102
 1562 Fit       0.006922
 1563 Fit       0.008609
 1564 Fit       0.009269
 1565 Fit       0.007992
 1566 Fit       0.005894
 1567 Fit       0.003612
 1568 Fit       0.006079
 1569 Fit       0.007582
 1570 Fit       0.005176
 1571 Fit       0.006406
 1572 Fit       0.007149
 1573 Fit       0.009181
 1574 Fit       0.005879
 1575 Fit       0.004092
 1576 Fit       0.006398
 1577 Fit       0.002256
 1578 Fit       0.002462
 1579 Fit       0.004173
 1580 Fit       0.003101
 1581 Fit       0.002467
 1582 Fit       0.001450
 1583 Fit       0.001082
 1584 Fit       0.000678
 1585 Fit       0.000016
 1586 Fit       0.000047
 1587 Fit      -0.001011
 1588 Fit      -0.002626
 1589 Fit      -0.008277
 1590 Fit      -0.012498
 1591 Fit       0.003504
 1592 Fit       0.002793
 1593 Fit       0.001980
 1594 Fit       0.001744
 1595 Fit       0.002492
 1596 Fit       0.002386
 1597 Fit       0.001680
 1598 Fit       0.000509
 1599 Fit      -0.003322
 1600 Fit       0.000392
 1601 Fit       0.001139
 1602 Fit       0.000459
 1603 Fit      -0.001133
 1604 Fit      -0.006829
 1605 Fit      -0.001874
 1606 Fit      -0.002286
 1607 Fit      -0.005965
 1608 Fit      -0.006975
 1609 Fit       0.002020
 1610 Fit       0.002223
 1611 Fit       0.000867
 1612 Fit       0.001369
 1613 Fit       0.001363
 1614 Fit       0.000517
 1615 Fit      -0.001297
 1616 Fit       0.000083
 1617 Fit       0.000588
 1618 Fit       0.000222
 1619 Fit      -0.001621
 1620 Fit      -0.006194
 1621 Fit      -0.001581
 1622 Fit      -0.001178
 1623 Fit      -0.002327
 1624 Fit      -0.006636
 1625 Fit      -0.004855
 1626 Fit      -0.010506
 1627 Fit       0.006878
 1628 Fit       0.007743
 1629 Fit       0.006719
 1630 Fit       0.006108
 1631 Fit       0.005719
 1632 Fit       0.006473
 1633 Fit       0.006475
 1634 Fit       0.005658
 1635 Fit       0.005246
 1636 Fit       0.004778
 1637 Fit       0.004252
 1638 Fit       0.004109
 1639 Fit       0.004186
 1640 Fit       0.003822
 1641 Fit       0.003446
 1642 Fit       0.002937
 1643 Fit       0.002439
 1644 Fit       0.007605
 1645 Fit       0.007955
 1646 Fit       0.008145
 1647 Fit       0.007728
 1648 Fit      -0.004870
 1649 Fit       0.000734
 1650 Fit       0.007935
 1651 Fit       0.007730
 1652 Fit       0.009128
 1653 Fit       0.007918
 1654 Fit       0.007278
 1655 Fit       0.007465
 1656 Fit       0.006369
 1657 Fit       0.006398
 1658 Fit       0.005090
 1659 Fit       0.003906
 1660 Fit       0.006525
 1661 Fit       0.006034
 1662 Fit       0.006989
 1663 Fit       0.007287
 1664 Fit       0.005978
 1665 Fit       0.005657
 1666 Fit       0.005818
 1667 Fit       0.006853
 1668 Fit       0.005187
 1669 Fit       0.004616
 1670 Fit       0.004601
 1671 Fit       0.005083
 1672 Fit       0.002926
 1673 Fit       0.002701
 1674 Fit       0.003331
 1675 Fit      -0.000867
 1676 Fit      -0.009196
 1677 Fit      -0.005506
 1678 Fit      -0.013729
 1679 Fit      -0.010407
 1680 Fit      -0.016459
 1681 Fit      -0.016754
 1682 Fit      -0.014530
 1683 Fit      -0.012801
 1684 Fit      -0.016392
 1685 Fit      -0.016276
 1686 Fit      -0.012777
 1687 Fit      -0.005458
 1688 Fit      -0.002241
 1689 Fit      -0.001474
 1690 Fit      -0.004021
 1691 Fit      -0.002682
 1692 Fit      -0.005659
 1693 Fit      -0.002244
 1694 Fit      -0.001967
 1695 Fit      -0.004713
 1696 Fit      -0.004538
 1697 Fit      -0.010068
 1698 Fit      -0.003862
 1699 Fit      -0.001402
 1700 Fit      -0.001798
 1701 Fit      -0.001120
 1702 Fit      -0.000298
 1703 Fit      -0.002181
 1704 Fit      -0.007015
 1705 Fit      -0.004272
 1706 Fit      -0.001296
 1707 Fit      -0.001786
 1708 Fit       0.005401
 1709 Fit       0.001674
 1710 Fit       0.003522
 1711 Fit       0.003539
 1712 Fit      -0.004101
 1713 Fit       0.003557
 1714 Fit       0.001941
 1715 Fit      -0.000317
 1716 Fit       0.000468
 1717 Fit       0.000363
 1718 Fit      -0.000924
 1719 Fit      -0.004608
 1720 Fit       0.000452
 1721 Fit       0.002633
 1722 Fit       0.004636
 1723 Fit       0.000750
 1724 Fit       0.004130
 1725 Fit      -0.000764
 1726 Fit      -0.008857
 1727 Fit       0.004574
 1728 Fit      -0.000111
 1729 Fit      -0.001824
 1730 Fit       0.000993
 1731 Fit       0.002829
 1732 Fit       0.007719
 1733 Fit       0.004547
 1734 Fit       0.007496
 1735 Fit       0.008828
 1736 Fit       0.005636
 1737 Fit       0.008503
 1738 Fit       0.009116
 1739 Fit       0.007791
 1740 Fit       0.007864
 1741 Fit       0.007299
 1742 Fit       0.006538
 1743 Fit      -0.001351
 1744 Fit      -0.006335
 1745 Fit      -0.009846
 1746 Fit      -0.008218
 1747 Fit      -0.012116
 1748 Fit      -0.012430
 1749 Fit      -0.012096
 1750 Fit      -0.006432
 1751 Fit      -0.011708
 1752 Fit      -0.006874
 1753 Fit      -0.009044
 1754 Fit      -0.004759
 1755 Fit       0.003135
 1756 Fit       0.003235
 1757 Fit       0.000573
 1758 Fit      -0.000190
 1759 Fit      -0.005703
 1760 Fit       0.001286
 1761 Fit       0.003905
 1762 Fit       0.004861
 1763 Fit       0.000748
 1764 Fit       0.005026
 1765 Fit       0.006374
 1766 Fit      -0.002579
 1767 Fit       0.002376
 1768 Fit      -0.001217
 1769 Fit       0.003409
 1770 Fit      -0.001489
 1771 Fit       0.004144
 1772 Fit       0.005062
 1773 Fit       0.004854
 1774 Fit       0.004557
 1775 Fit       0.005622
 1776 Fit       0.007011
 1777 Fit       0.004741
 1778 Fit       0.003102
 1779 Fit       0.003540
 1780 Fit       0.005740
 1781 Fit       0.008590
 1782 Fit      -0.000339
 1783 Fit       0.003907
 1784 Fit       0.007686
 1785 Fit       0.001469
 1786 Fit       0.007239
 1787 Fit       0.003410
 1788 Fit       0.001344
 1789 Fit       0.000162
 1790 Fit       0.002823
 1791 Fit       0.002767
 1792 Fit      -0.000109
 1793 Fit       0.005240
 1794 Fit       0.000026
 1795 Fit       0.004338
 1796 Fit      -0.004889
 1797 Fit       0.001081
 1798 Fit       0.004231
 1799 Fit       0.005399
 1800 Fit       0.001089
 1801 Fit       0.003612
 1802 Fit       0.003858
 1803 Fit       0.000158
 1804 Fit       0.006393
 1805 Fit      -0.002034
 1806 Fit       0.002592
 1807 Fit       0.006732
 1808 Fit       0.001837
 1809 Fit       0.001227
 1810 Fit       0.003100
 1811 Fit       0.006045
 1812 Fit       0.006368
 1813 Fit       0.004961
 1814 Fit       0.003221
 1815 Fit       0.004383
 1816 Fit       0.003987
 1817 Fit      -0.002357
 1818 Fit      -0.006542
 1819 Fit      -0.009258
 1820 Fit      -0.008188
 1821 Fit      -0.010598
 1822 Fit      -0.008115
 1823 Fit      -0.009077
 1824 Fit      -0.008649
 1825 Fit      -0.006784
 1826 Fit      -0.006575
 1827 Fit      -0.003905
 1828 Fit       0.000181
 1829 Fit       0.002543
 1830 Fit       0.004137
 1831 Fit       0.006843
 1832 Fit       0.006060
 1833 Fit       0.007596
 1834 Fit       0.008071
 1835 Fit       0.005058
 1836 Fit       0.006886
 1837 Fit       0.008079
 1838 Fit       0.005512
 1839 Fit       0.001882
 1840 Fit       0.003634
 1841 Fit       0.005528
 1842 Fit       0.005561
 1843 Fit       0.005765
 1844 Fit       0.000756
 1845 Fit       0.002545
 1846 Fit       0.002938
 1847 Fit       0.001800
 1848 Fit      -0.003437
 1849 Fit       0.004522
 1850 Fit       0.002872
 1851 Fit       0.004218
 1852 Fit       0.003817
 1853 Fit       0.004852
 1854 Fit       0.004695
 1855 Fit       0.002937
 1856 Fit       0.003317
 1857 Fit       0.001168
 1858 Fit      -0.002247
 1859 Fit       0.002141
 1860 Fit       0.002190
 1861 Fit      -0.001178
 1862 Fit       0.002127
 1863 Fit      -0.003494
 1864 Fit       0.006714
 1865 Fit       0.004427
 1866 Fit      -0.000249
 1867 Fit       0.007530
 1868 Fit       0.002550
 1869 Fit       0.006908
 1870 Fit       0.007694
 1871 Fit      -0.004072
 1872 Fit      -0.008063
 1873 Fit      -0.006735
 1874 Fit      -0.002233
 1875 Fit       0.001421
 1876 Fit      -0.001277
 1877 Fit      -0.006436
 1878 Fit      -0.009906
 1879 Fit      -0.009760
 1880 Fit      -0.009127
 1881 Fit      -0.006586
 1882 Fit      -0.001349
 1883 Fit      -0.003890
 1884 Fit      -0.008616
 1885 Fit      -0.009983
 1886 Fit      -0.009245
 1887 Fit      -0.009492
 1888 Fit      -0.010205
 1889 Fit      -0.010261
 1890 Fit      -0.008396
 1891 Fit      -0.003839
 1892 Fit      -0.008753
 1893 Fit      -0.010298
 1894 Fit      -0.009814
 1895 Fit      -0.006130
 1896 Fit      -0.006681
 1897 Fit      -0.007922
 1898 Fit      -0.009174
 1899 Fit      -0.009572
 1900 Fit      -0.008097
 1901 Fit      -0.004201
 1902 Fit      -0.006460
 1903 Fit      -0.008659
 1904 Fit      -0.008096
 1905 Fit      -0.006739
 1906 Fit      -0.000656
 1907 Fit      -0.001529
 1908 Fit      -0.002503
 1909 Fit      -0.003549
 1910 Fit      -0.004890
 1911 Fit      -0.005758
 1912 Fit      -0.004683
 1913 Fit      -0.001217
 1914 Fit      -0.001110
 1915 Fit      -0.004492
 1916 Fit      -0.004550
 1917 Fit      -0.002685
 1918 Fit      -0.000912
 1919 Fit       0.006724
 1920 Fit       0.001602
 1921 Fit       0.001160
 1922 Fit       0.002004
 1923 Fit       0.004774
 1924 Fit       0.005452
 1925 Fit       0.005992
 1926 Fit       0.002524
 1927 Fit       0.004116
 1928 Fit       0.005319
 1929 Fit       0.005154
 1930 Fit       0.006635
 1931 Fit       0.005532
 1932 Fit       0.005410
 1933 Fit       0.007998
 1934 Fit       0.005301
 1935 Fit       0.003856
 1936 Fit       0.002559
 1937 Fit       0.000647
 1938 Fit       0.001953
 1939 Fit       0.001218
 1940 Fit       0.003684
 1941 Fit       0.002410
 1942 Fit       0.000345
 1943 Fit       0.006607
 1944 Fit       0.004079
 1945 Fit       0.004092
 1946 Fit       0.004333
 1947 Fit       0.006098
 1948 Fit       0.008517
 1949 Fit       0.002216
 1950 Fit       0.004294
 1951 Fit       0.006227
 1952 Fit       0.007340
 1953 Fit       0.007778
 1954 Fit       0.002043
 1955 Fit       0.000171
 1956 Fit       0.006603
 1957 Fit      -0.003881
 1958 Fit      -0.004837
 1959 Fit      -0.003248
 1960 Fit      -0.000752
 1961 Fit       0.000746
 1962 Fit       0.000490
 1963 Fit      -0.000739
 1964 Fit      -0.002003
 1965 Fit      -0.003201
 1966 Fit      -0.004226
 1967 Fit      -0.003961
 1968 Fit      -0.001205
 1969 Fit      -0.003541
 1970 Fit      -0.007583
 1971 Fit      -0.007820
 1972 Fit      -0.006312
 1973 Fit      -0.004935
 1974 Fit      -0.004778
 1975 Fit      -0.005772
 1976 Fit      -0.007175
 1977 Fit      -0.008064
 1978 Fit      -0.007376
 1979 Fit      -0.004217
 1980 Fit       0.001490
 1981 Fit      -0.001539
 1982 Fit      -0.007634
 1983 Fit      -0.009093
 1984 Fit      -0.008462
 1985 Fit      -0.007773
 1986 Fit      -0.007959
 1987 Fit      -0.008611
 1988 Fit      -0.008472
 1989 Fit      -0.006144
 1990 Fit      -0.000720
 1991 Fit      -0.001537
 1992 Fit      -0.006858
 1993 Fit      -0.008330
 1994 Fit      -0.008218
 1995 Fit      -0.007966
 1996 Fit      -0.007061
 1997 Fit      -0.003883
 1998 Fit       0.002688
 1999 Fit       0.006608
 2000 Fit       0.002501
 2001 Fit      -0.003987
 2002 Fit      -0.005868
 2003 Fit      -0.004158
 2004 Fit       0.001604
 2005 Fit      -0.000884
 2006 Fit       0.002541
 2007 Fit       0.005111
 2008 Fit       0.003022
 2009 Fit       0.006039
 2010 Fit       0.007841
 2011 Fit       0.006154
 2012 Fit       0.009825
 2013 Fit       0.010906
 2014 Fit       0.008174
 2015 Fit       0.012399
 2016 Fit       0.012345
 2017 Fit       0.005582
 2018 Fit       0.002681
 2019 Fit       0.006774
 2020 Fit       0.003757
 2021 Fit       0.004772
 2022 Fit       0.003258
 2023 Fit       0.001544
 2024 Fit       0.002749
 2025 Fit       0.002033
 2026 Fit       0.001744
 2027 Fit       0.003890
 2028 Fit       0.002589
 2029 Fit       0.005149
 2030 Fit       0.005665
 2031 Fit       0.003068
 2032 Fit       0.006279
 2033 Fit       0.006815
 2034 Fit       0.003936
 2035 Fit       0.007301
 2036 Fit       0.002830
 2037 Fit       0.005102
 2038 Fit      -0.005069
 2039 Fit      -0.009366
 2040 Fit      -0.008041
 2041 Fit      -0.002890
 2042 Fit       0.001861
 2043 Fit      -0.001208
 2044 Fit      -0.007396
 2045 Fit      -0.011216
 2046 Fit      -0.011264
 2047 Fit      -0.010686
 2048 Fit      -0.007803
 2049 Fit      -0.001548
 2050 Fit      -0.003626
 2051 Fit      -0.009409
 2052 Fit      -0.011104
 2053 Fit      -0.010467
 2054 Fit      -0.011025
 2055 Fit      -0.012086
 2056 Fit      -0.012227
 2057 Fit      -0.009987
 2058 Fit      -0.004542
 2059 Fit      -0.002233
 2060 Fit      -0.009278
 2061 Fit      -0.011196
 2062 Fit      -0.010865
 2063 Fit      -0.007245
 2064 Fit      -0.008227
 2065 Fit      -0.010192
 2066 Fit      -0.011976
 2067 Fit      -0.012310
 2068 Fit      -0.010231
 2069 Fit      -0.005381
 2070 Fit      -0.006824
 2071 Fit      -0.009412
 2072 Fit      -0.009022
 2073 Fit      -0.007734
 2074 Fit      -0.001868
 2075 Fit      -0.003378
 2076 Fit      -0.005850
 2077 Fit      -0.008223
 2078 Fit      -0.009691
 2079 Fit      -0.009706
 2080 Fit      -0.007529
 2081 Fit      -0.002865
 2082 Fit      -0.001631
 2083 Fit      -0.005122
 2084 Fit      -0.005466
 2085 Fit      -0.003861
 2086 Fit      -0.002127
 2087 Fit      -0.000542
 2088 Fit       0.001412
 2089 Fit       0.000332
 2090 Fit       0.001484
 2091 Fit       0.006035
 2092 Fit       0.009353
 2093 Fit       0.009336
 2094 Fit       0.004803
 2095 Fit       0.004127
 2096 Fit       0.003294
 2097 Fit       0.004467
 2098 Fit       0.007029
 2099 Fit       0.006574
 2100 Fit       0.006354
 2101 Fit       0.006893
 2102 Fit       0.008211
 2103 Fit       0.007837
 2104 Fit       0.008128
 2105 Fit       0.008142
 2106 Fit       0.009363
 2107 Fit       0.005749
 2108 Fit       0.010974
 2109 Fit       0.008338
 2110 Fit       0.007138
 2111 Fit       0.012110
 2112 Fit       0.011845
 2113 Fit       0.010334
 2114 Fit       0.009023
 2115 Fit       0.010502
 2116 Fit       0.009941
 2117 Fit      -0.001397
 2118 Fit       0.007328
 2119 Fit       0.004820
 2120 Fit       0.002185
 2121 Fit       0.004899
 2122 Fit       0.003890
 2123 Fit       0.003260
 2124 Fit       0.002748
 2125 Fit       0.003068
 2126 Fit       0.008216
 2127 Fit       0.003609
 2128 Fit       0.003902
 2129 Fit       0.004841
 2130 Fit       0.005951
 2131 Fit      -0.003295
 2132 Fit      -0.003341
 2133 Fit      -0.004003
 2134 Fit       0.003418
 2135 Fit       0.001836
 2136 Fit       0.001414
 2137 Fit       0.001000
 2138 Fit       0.000401
 2139 Fit       0.000194
 2140 Fit       0.003654
 2141 Fit       0.003174
 2142 Fit       0.002726
 2143 Fit       0.002167
 2144 Fit       0.003942
 2145 Fit       0.003386
 2146 Fit       0.002865
 2147 Fit       0.007224
 2148 Fit       0.009091
 2149 Fit       0.007098
 2150 Fit       0.005731
 2151 Fit       0.004703
 2152 Fit       0.004194
 2153 Fit       0.006323
 2154 Fit       0.007906
 2155 Fit       0.008940
 2156 Fit       0.008934
 2157 Fit       0.008300
 2158 Fit       0.007195
 2159 Fit       0.006045
 2160 Fit       0.005608
 2161 Fit       0.006263
 2162 Fit       0.007510
 2163 Fit       0.007965
 2164 Fit       0.006933
 2165 Fit       0.004233
 2166 Fit       0.004259
 2167 Fit       0.005204
 2168 Fit       0.005272
 2169 Fit       0.006210
 2170 Fit       0.010784
 2171 Fit       0.004341
 2172 Fit       0.005120
 2173 Fit       0.005785
 2174 Fit       0.007584
 2175 Fit       0.005258
 Job cpu time:       0 days  0 hours 10 minutes 57.0 seconds.
 Normal termination of Gaussian 16 at Sun Jul  9 09:46:52 2023.
