 Copyright (c) 1988-2019, Gaussian, Inc.  All Rights Reserved.
  
 This is part of the Gaussian(R) 16 program.  It is based on
 the Gaussian(R) 09 system (copyright 2009, Gaussian, Inc.),
 the Gaussian(R) 03 system (copyright 2003, Gaussian, Inc.),
 the Gaussian(R) 98 system (copyright 1998, Gaussian, Inc.),
 the Gaussian(R) 94 system (copyright 1995, Gaussian, Inc.),
 the Gaussian 92(TM) system (copyright 1992, Gaussian, Inc.),
 the Gaussian 90(TM) system (copyright 1990, Gaussian, Inc.),
 the Gaussian 88(TM) system (copyright 1988, Gaussian, Inc.),
 the Gaussian 86(TM) system (copyright 1986, Carnegie Mellon
 University), and the Gaussian 82(TM) system (copyright 1983,
 Carnegie Mellon University). Gaussian is a federally registered
 trademark of Gaussian, Inc.
 Cite this work as:
 Gaussian 16, Revision C.01,
 M. J. Frisch, G. W. Trucks, H. B. Schlegel, G. E. Scuseria, 
 M. A. Robb, J. R. Cheeseman, G. Scalmani, V. Barone, 
 G. A. Petersson, H. Nakatsuji, X. Li, M. Caricato, A. V. Marenich, 
 J. Bloino, B. G. Janesko, R. Gomperts, B. Mennucci, H. P. Hratchian, 
 J. V. Ortiz, A. F. Izmaylov, J. L. Sonnenberg, D. Williams-Young, 
 F. Ding, F. Lipparini, F. Egidi, J. Goings, B. Peng, A. Petrone, 
 T. Henderson, D. Ranasinghe, V. G. Zakrzewski, J. Gao, N. Rega, 
 G. Zheng, W. Liang, M. Hada, M. Ehara, K. Toyota, R. Fukuda, 
 J. Hasegawa, M. Ishida, T. Nakajima, Y. Honda, O. Kitao, H. Nakai, 
 T. Vreven, K. Throssell, J. A. Montgomery, Jr., J. E. Peralta, 
 F. Ogliaro, M. J. Bearpark, J. J. Heyd, E. N. Brothers, K. N. Kudin, 
 V. N. Staroverov, T. A. Keith, R. Kobayashi, J. Normand, 
 K. Raghavachari, A. P. Rendell, J. C. Burant, S. S. Iyengar, 
 J. Tomasi, M. Cossi, J. M. Millam, M. Klene, C. Adamo, R. Cammi, 
 J. W. Ochterski, R. L. Martin, K. Morokuma, O. Farkas, 
 J. B. Foresman, and D. J. Fox, Gaussian, Inc., Wallingford CT, 2019.
 
 ******************************************
 Gaussian 16:  EM64L-G16RevC.01  3-Jul-2019
                 9-Jul-2023 
 ******************************************
 ----------------------------------------------------------------------
 #P B3LYP/6-31G(d) Integral=Ultrafine SCF(Conver=8,XQC,MaxConventionalC
 ycles=64,MaxCycle=128) NoSymm Test Pop=mk IOp(6/33=2) GFInput GFPrint
 ----------------------------------------------------------------------
 1/38=1,172=1/1;
 2/12=2,15=1,17=6,18=5,40=1/2;
 3/5=1,6=6,7=1,11=2,24=110,25=1,30=1,74=-5,75=-5/1,2,3;
 4//1;
 5/5=2,6=8,7=128,8=3,13=1,38=5,85=64/2,8;
 6/7=2,8=2,9=2,10=2,15=8,20=1,28=1,33=2/1,2;
 99/5=1,9=1/99;
 -------------------------------------------------
 MEP step - Input generated by PyRED DVE-DMDS-OPLS
 -------------------------------------------------
 Symbolic Z-matrix:
 Charge =  0 Multiplicity = 1
 C                     3.07255  -1.51657  -5.09739 
 H                     4.07128  -1.08518  -5.23064 
 H                     2.73674  -1.8845   -6.07445 
 H                     2.39423  -0.71913  -4.77602 
 C                     3.07804  -2.655    -4.07828 
 H                     2.07799  -3.09632  -4.00829 
 H                     3.76622  -3.45262  -4.40251 
 O                     3.39516  -2.24616  -2.75399 
 C                     4.76565  -1.97724  -2.49647 
 H                     5.40071  -2.31584  -3.32843 
 H                     5.05352  -2.5427   -1.60076 
 C                     5.02496  -0.49939  -2.23873 
 H                     6.11306  -0.3268   -2.15081 
 H                     4.65733   0.10416  -3.08363 
 O                     4.36148  -0.13717  -1.04552 
 C                     4.31864   1.25529  -0.796 
 H                     3.97385   1.79868  -1.69076 
 H                     5.32176   1.63791  -0.53466 
 C                     3.35571   1.52127   0.3525 
 H                     3.45387   2.56746   0.66315 
 H                     3.62006   0.88367   1.2094 
 O                     1.99355   1.34438   0. 
 C                     1.52321   0.        0. 
 H                     1.89949  -0.52959   0.88766 
 H                     1.88922  -0.5366   -0.88518 
 C                     0.        0.        0. 
 H                    -0.34352  -1.02678  -0.16596 
 H                    -0.38114   0.60864  -0.82743 
 S                    -0.80079   0.55619   1.5658 
 C                    -1.32304   2.2732    1.17249 
 H                    -1.81378   2.26338   0.19032 
 H                    -2.09169   2.49893   1.91821 
 C                    -0.22358   3.3383    1.18154 
 H                    -0.6321    4.29398   0.82827 
 H                     0.57783   3.03812   0.50408 
 S                     0.56983   3.63546   2.81923 
 C                    -0.22826   5.21017   3.34216 
 H                    -0.14724   5.93775   2.52728 
 H                     0.38997   5.5796    4.16597 
 C                    -1.67584   5.05881   3.81153 
 H                    -2.31647   4.66482   3.01634 
 H                    -1.72763   4.35166   4.64455 
 S                    -2.40668   6.62226   4.45537 
 C                    -2.7879    7.5345    2.90192 
 H                    -2.97848   8.56015   3.2353 
 H                    -1.89014   7.56976   2.27504 
 C                    -3.98655   6.99572   2.12175 
 H                    -4.89071   7.00503   2.73813 
 H                    -4.16818   7.61111   1.23132 
 H                    -3.82165   5.96691   1.78339 
 
 ITRead=  0  0  0  0  0  0  0  0  0  0  0  0  0  0  0  0  0  0  0  0
 ITRead=  0  0  0  0  0  0  0  0  0  0  0  0  0  0  0  0  0  0  0  0
 ITRead=  0  0  0  0  0  0  0  0  0  0
 MicOpt= -1 -1 -1 -1 -1 -1 -1 -1 -1 -1 -1 -1 -1 -1 -1 -1 -1 -1 -1 -1
 MicOpt= -1 -1 -1 -1 -1 -1 -1 -1 -1 -1 -1 -1 -1 -1 -1 -1 -1 -1 -1 -1
 MicOpt= -1 -1 -1 -1 -1 -1 -1 -1 -1 -1
 NAtoms=     50 NQM=       50 NQMF=       0 NMMI=      0 NMMIF=      0
                NMic=       0 NMicF=      0.
                          Input orientation:                          
 ---------------------------------------------------------------------
 Center     Atomic      Atomic             Coordinates (Angstroms)
 Number     Number       Type             X           Y           Z
 ---------------------------------------------------------------------
      1          6           0        3.072553   -1.516566   -5.097391
      2          1           0        4.071281   -1.085183   -5.230640
      3          1           0        2.736736   -1.884503   -6.074450
      4          1           0        2.394228   -0.719126   -4.776018
      5          6           0        3.078042   -2.654995   -4.078281
      6          1           0        2.077991   -3.096317   -4.008287
      7          1           0        3.766219   -3.452623   -4.402506
      8          8           0        3.395158   -2.246156   -2.753987
      9          6           0        4.765649   -1.977241   -2.496472
     10          1           0        5.400705   -2.315845   -3.328428
     11          1           0        5.053524   -2.542702   -1.600757
     12          6           0        5.024960   -0.499393   -2.238731
     13          1           0        6.113059   -0.326796   -2.150806
     14          1           0        4.657326    0.104161   -3.083626
     15          8           0        4.361477   -0.137167   -1.045519
     16          6           0        4.318638    1.255286   -0.796001
     17          1           0        3.973846    1.798684   -1.690759
     18          1           0        5.321763    1.637912   -0.534664
     19          6           0        3.355707    1.521266    0.352502
     20          1           0        3.453868    2.567463    0.663146
     21          1           0        3.620057    0.883674    1.209397
     22          8           0        1.993546    1.344375    0.000000
     23          6           0        1.523211    0.000000    0.000000
     24          1           0        1.899488   -0.529591    0.887657
     25          1           0        1.889215   -0.536601   -0.885178
     26          6           0        0.000000    0.000000    0.000000
     27          1           0       -0.343523   -1.026781   -0.165958
     28          1           0       -0.381136    0.608636   -0.827429
     29         16           0       -0.800792    0.556186    1.565796
     30          6           0       -1.323036    2.273203    1.172486
     31          1           0       -1.813781    2.263383    0.190321
     32          1           0       -2.091692    2.498929    1.918205
     33          6           0       -0.223577    3.338302    1.181535
     34          1           0       -0.632099    4.293976    0.828274
     35          1           0        0.577828    3.038117    0.504079
     36         16           0        0.569830    3.635457    2.819231
     37          6           0       -0.228264    5.210173    3.342157
     38          1           0       -0.147240    5.937748    2.527283
     39          1           0        0.389969    5.579602    4.165974
     40          6           0       -1.675835    5.058806    3.811527
     41          1           0       -2.316466    4.664816    3.016344
     42          1           0       -1.727626    4.351663    4.644546
     43         16           0       -2.406680    6.622263    4.455368
     44          6           0       -2.787896    7.534503    2.901917
     45          1           0       -2.978476    8.560145    3.235296
     46          1           0       -1.890140    7.569764    2.275040
     47          6           0       -3.986547    6.995716    2.121748
     48          1           0       -4.890714    7.005026    2.738130
     49          1           0       -4.168183    7.611112    1.231317
     50          1           0       -3.821652    5.966911    1.783391
 ---------------------------------------------------------------------
 Stoichiometry    C14H30O3S3
 Framework group  C1[X(C14H30O3S3)]
 Standard basis: 6-31G(d) (6D, 7F)
   372 basis functions,   752 primitive gaussians,   372 cartesian basis functions
    93 alpha electrons       93 beta electrons
 Requested convergence on RMS density matrix=1.00D-08 within  64 cycles.
 Requested convergence on MAX density matrix=1.00D-06.
 Requested convergence on             energy=1.00D-06.
 SCF Done:  E(RB3LYP) =  -1971.75294666     A.U. after   13 cycles
            NFock= 13  Conv=0.45D-08     -V/T= 2.0058
 Mulliken charges:
     1  C   -0.458028
     2  H    0.145356
     3  H    0.144815
     4  H    0.158999
     5  C   -0.023591
     6  H    0.147542
     7  H    0.123901
     8  O   -0.460166
     9  C   -0.040139
    10  H    0.123635
    11  H    0.153294
    12  C   -0.011897
    13  H    0.114682
    14  H    0.126560
    15  O   -0.466977
    16  C   -0.018360
    17  H    0.128169
    18  H    0.117044
    19  C   -0.041704
    20  H    0.152944
    21  H    0.143528
    22  O   -0.475103
    23  C   -0.009716
    24  H    0.136463
    25  H    0.167369
    26  C   -0.441462
    27  H    0.176289
    28  H    0.169914
    29  S    0.097402
    30  C   -0.405667
    31  H    0.163418
    32  H    0.178475
    33  C   -0.426261
    34  H    0.152912
    35  H    0.221421
    36  S    0.097594
    37  C   -0.413223
    38  H    0.167753
    39  H    0.188518
    40  C   -0.413305
    41  H    0.173391
    42  H    0.192271
    43  S    0.078927
    44  C   -0.410105
    45  H    0.177335
    46  H    0.166795
    47  C   -0.434206
    48  H    0.165976
    49  H    0.147809
    50  H    0.149404
 Sum of Mulliken charges =  -0.00000
 Dipole moment (field-independent basis, Debye):
    X=              1.9618    Y=              0.2768    Z=             -5.8132  Tot=              6.1416
 Quadrupole moment (field-independent basis, Debye-Ang):
   XX=           -131.4814   YY=           -139.0374   ZZ=           -154.1515
   XY=             -5.1195   XZ=             -5.5160   YZ=             -8.5633
 Traceless Quadrupole moment (field-independent basis, Debye-Ang):
   XX=             10.0754   YY=              2.5193   ZZ=            -12.5947
   XY=             -5.1195   XZ=             -5.5160   YZ=             -8.5633
 Octapole moment (field-independent basis, Debye-Ang**2):
  XXX=           -238.3307  YYY=           -886.1304  ZZZ=           -395.9997  XYY=           -132.5067
  XXY=           -310.9325  XXZ=           -154.6398  XZZ=            -43.0435  YZZ=           -426.3482
  YYZ=           -174.1770  XYZ=             35.2266
 Hexadecapole moment (field-independent basis, Debye-Ang**3):
 XXXX=          -6541.9972 YYYY=         -12155.6530 ZZZZ=          -6956.0259 XXXY=           2161.5218
 XXXZ=           2024.8282 YYYX=           1936.5517 YYYZ=          -4160.0422 ZZZX=           2279.7278
 ZZZY=          -4138.7652 XXYY=          -3161.9921 XXZZ=          -2240.9737 YYZZ=          -3790.4179
 XXYZ=          -1252.7694 YYXZ=            836.4785 ZZXY=            872.0268
 Merz-Kollman atomic radii used.
 Atom Element Radius
    1     6    1.50
    2     1    1.20
    3     1    1.20
    4     1    1.20
    5     6    1.50
    6     1    1.20
    7     1    1.20
    8     8    1.40
    9     6    1.50
   10     1    1.20
   11     1    1.20
   12     6    1.50
   13     1    1.20
   14     1    1.20
   15     8    1.40
   16     6    1.50
   17     1    1.20
   18     1    1.20
   19     6    1.50
   20     1    1.20
   21     1    1.20
   22     8    1.40
   23     6    1.50
   24     1    1.20
   25     1    1.20
   26     6    1.50
   27     1    1.20
   28     1    1.20
   29    16    1.75
   30     6    1.50
   31     1    1.20
   32     1    1.20
   33     6    1.50
   34     1    1.20
   35     1    1.20
   36    16    1.75
   37     6    1.50
   38     1    1.20
   39     1    1.20
   40     6    1.50
   41     1    1.20
   42     1    1.20
   43    16    1.75
   44     6    1.50
   45     1    1.20
   46     1    1.20
   47     6    1.50
   48     1    1.20
   49     1    1.20
   50     1    1.20
 Generate VDW surfaces: Layer= 4 Dens= 1 Start= 1.400 Inc= 0.200
            Electrostatic Properties Using The SCF Density.


       Atomic Center    1 is at   3.072553 -1.516566 -5.097391
       Atomic Center    2 is at   4.071281 -1.085183 -5.230640
       Atomic Center    3 is at   2.736736 -1.884503 -6.074450
       Atomic Center    4 is at   2.394228 -0.719126 -4.776018
       Atomic Center    5 is at   3.078042 -2.654995 -4.078281
       Atomic Center    6 is at   2.077991 -3.096317 -4.008287
       Atomic Center    7 is at   3.766219 -3.452623 -4.402506
       Atomic Center    8 is at   3.395158 -2.246156 -2.753987
       Atomic Center    9 is at   4.765649 -1.977241 -2.496472
       Atomic Center   10 is at   5.400705 -2.315845 -3.328428
       Atomic Center   11 is at   5.053524 -2.542702 -1.600757
       Atomic Center   12 is at   5.024960 -0.499393 -2.238731
       Atomic Center   13 is at   6.113059 -0.326796 -2.150806
       Atomic Center   14 is at   4.657326  0.104161 -3.083626
       Atomic Center   15 is at   4.361477 -0.137167 -1.045519
       Atomic Center   16 is at   4.318638  1.255286 -0.796001
       Atomic Center   17 is at   3.973846  1.798684 -1.690759
       Atomic Center   18 is at   5.321763  1.637912 -0.534664
       Atomic Center   19 is at   3.355707  1.521266  0.352502
       Atomic Center   20 is at   3.453868  2.567463  0.663146
       Atomic Center   21 is at   3.620057  0.883674  1.209397
       Atomic Center   22 is at   1.993546  1.344375  0.000000
       Atomic Center   23 is at   1.523211  0.000000  0.000000
       Atomic Center   24 is at   1.899488 -0.529591  0.887657
       Atomic Center   25 is at   1.889215 -0.536601 -0.885178
       Atomic Center   26 is at   0.000000  0.000000  0.000000
       Atomic Center   27 is at  -0.343523 -1.026781 -0.165958
       Atomic Center   28 is at  -0.381136  0.608636 -0.827429
       Atomic Center   29 is at  -0.800792  0.556186  1.565796
       Atomic Center   30 is at  -1.323036  2.273203  1.172486
       Atomic Center   31 is at  -1.813781  2.263383  0.190321
       Atomic Center   32 is at  -2.091692  2.498929  1.918205
       Atomic Center   33 is at  -0.223577  3.338302  1.181535
       Atomic Center   34 is at  -0.632099  4.293976  0.828274
       Atomic Center   35 is at   0.577828  3.038117  0.504079
       Atomic Center   36 is at   0.569830  3.635457  2.819231
       Atomic Center   37 is at  -0.228264  5.210173  3.342157
       Atomic Center   38 is at  -0.147240  5.937748  2.527283
       Atomic Center   39 is at   0.389969  5.579602  4.165974
       Atomic Center   40 is at  -1.675835  5.058806  3.811527
       Atomic Center   41 is at  -2.316466  4.664816  3.016344
       Atomic Center   42 is at  -1.727626  4.351663  4.644546
       Atomic Center   43 is at  -2.406680  6.622263  4.455368
       Atomic Center   44 is at  -2.787896  7.534503  2.901917
       Atomic Center   45 is at  -2.978476  8.560145  3.235296
       Atomic Center   46 is at  -1.890140  7.569764  2.275040
       Atomic Center   47 is at  -3.986547  6.995716  2.121748
       Atomic Center   48 is at  -4.890714  7.005026  2.738130
       Atomic Center   49 is at  -4.168183  7.611112  1.231317
       Atomic Center   50 is at  -3.821652  5.966911  1.783391
      ESP Fit Center   51 is at   1.033575 -2.019129 -5.097391
      ESP Fit Center   52 is at   2.813732  0.283576 -6.147391
      ESP Fit Center   53 is at   3.828049 -3.170871 -6.147391
      ESP Fit Center   54 is at   4.602502 -2.499804 -6.147391
      ESP Fit Center   55 is at   3.597553 -0.607239 -6.916044
      ESP Fit Center   56 is at   5.669056 -1.085183 -4.711491
      ESP Fit Center   57 is at   5.295248 -0.058153 -4.711491
      ESP Fit Center   58 is at   4.348732  0.488318 -4.711491
      ESP Fit Center   59 is at   5.669056 -1.085183 -5.749789
      ESP Fit Center   60 is at   5.295248 -0.058153 -5.749789
      ESP Fit Center   61 is at   4.348732  0.488318 -5.749789
      ESP Fit Center   62 is at   5.295248 -2.112213 -5.749789
      ESP Fit Center   63 is at   5.058760 -1.085183 -6.589789
      ESP Fit Center   64 is at   4.376429 -0.146034 -6.589789
      ESP Fit Center   65 is at   4.071281 -1.085183 -6.910640
      ESP Fit Center   66 is at   1.235319 -2.430974 -5.555301
      ESP Fit Center   67 is at   1.937849 -0.500789 -6.593599
      ESP Fit Center   68 is at   1.235319 -1.338032 -6.593599
      ESP Fit Center   69 is at   1.235319 -2.430974 -6.593599
      ESP Fit Center   70 is at   1.937849 -3.268217 -6.593599
      ESP Fit Center   71 is at   3.014187 -3.458004 -6.593599
      ESP Fit Center   72 is at   3.960703 -2.911533 -6.593599
      ESP Fit Center   73 is at   3.724215 -1.884503 -7.433599
      ESP Fit Center   74 is at   3.041884 -0.945354 -7.433599
      ESP Fit Center   75 is at   1.937849 -1.304077 -7.433599
      ESP Fit Center   76 is at   1.937849 -2.464929 -7.433599
      ESP Fit Center   77 is at   3.041884 -2.823652 -7.433599
      ESP Fit Center   78 is at   2.736736 -1.884503 -7.754450
      ESP Fit Center   79 is at   2.699376  0.220023 -3.416869
      ESP Fit Center   80 is at   1.595341 -0.138700 -3.416869
      ESP Fit Center   81 is at   1.595341 -1.299552 -3.416869
      ESP Fit Center   82 is at   2.671679  0.854375 -4.256869
      ESP Fit Center   83 is at   1.595341  0.664588 -4.256869
      ESP Fit Center   84 is at   0.892811 -0.172655 -4.256869
      ESP Fit Center   85 is at   0.892811 -1.265597 -4.256869
      ESP Fit Center   86 is at   2.671679  0.854375 -5.295167
      ESP Fit Center   87 is at   1.595341  0.664588 -5.295167
      ESP Fit Center   88 is at   0.892811 -0.172655 -5.295167
      ESP Fit Center   89 is at   0.892811 -1.265597 -5.295167
      ESP Fit Center   90 is at   1.595341 -0.138700 -6.135167
      ESP Fit Center   91 is at   2.819221 -4.455137 -3.028281
      ESP Fit Center   92 is at   2.553042 -3.564322 -5.896934
      ESP Fit Center   93 is at   1.279104 -2.515891 -2.649138
      ESP Fit Center   94 is at   1.279104 -3.676743 -2.649138
      ESP Fit Center   95 is at   2.383139 -4.035466 -2.649138
      ESP Fit Center   96 is at   1.279104 -1.712603 -3.489138
      ESP Fit Center   97 is at   0.576574 -2.549846 -3.489138
      ESP Fit Center   98 is at   0.576574 -3.642788 -3.489138
      ESP Fit Center   99 is at   1.279104 -4.480031 -3.489138
      ESP Fit Center  100 is at   2.355442 -4.669818 -3.489138
      ESP Fit Center  101 is at   0.576574 -2.549846 -4.527436
      ESP Fit Center  102 is at   0.576574 -3.642788 -4.527436
      ESP Fit Center  103 is at   1.279104 -4.480031 -4.527436
      ESP Fit Center  104 is at   2.355442 -4.669818 -4.527436
      ESP Fit Center  105 is at   1.279104 -3.676743 -5.367436
      ESP Fit Center  106 is at   4.071367 -4.391772 -3.043357
      ESP Fit Center  107 is at   2.967332 -4.836337 -3.883357
      ESP Fit Center  108 is at   4.043670 -5.026124 -3.883357
      ESP Fit Center  109 is at   4.990186 -4.479653 -3.883357
      ESP Fit Center  110 is at   5.363994 -3.452623 -4.921655
      ESP Fit Center  111 is at   2.967332 -4.836337 -4.921655
      ESP Fit Center  112 is at   4.043670 -5.026124 -4.921655
      ESP Fit Center  113 is at   4.990186 -4.479653 -4.921655
      ESP Fit Center  114 is at   4.753698 -3.452623 -5.761655
      ESP Fit Center  115 is at   2.967332 -4.033049 -5.761655
      ESP Fit Center  116 is at   4.071367 -4.391772 -5.761655
      ESP Fit Center  117 is at   3.766219 -3.452623 -6.082506
      ESP Fit Center  118 is at   3.395158 -2.246156 -0.793987
      ESP Fit Center  119 is at   2.415158 -2.246156 -1.056577
      ESP Fit Center  120 is at   2.905158 -3.094861 -1.056577
      ESP Fit Center  121 is at   1.697748 -2.246156 -1.773987
      ESP Fit Center  122 is at   2.021925 -3.243868 -1.773987
      ESP Fit Center  123 is at   2.870630 -3.860489 -1.773987
      ESP Fit Center  124 is at   3.919686 -3.860489 -1.773987
      ESP Fit Center  125 is at   2.415158 -0.548746 -2.753987
      ESP Fit Center  126 is at   1.697748 -1.266156 -2.753987
      ESP Fit Center  127 is at   3.715649 -1.977241 -0.677819
      ESP Fit Center  128 is at   6.865649 -1.977241 -2.496472
      ESP Fit Center  129 is at   5.018776 -4.061930 -2.496472
      ESP Fit Center  130 is at   5.958585 -3.705507 -2.496472
      ESP Fit Center  131 is at   6.998480 -2.315845 -2.809279
      ESP Fit Center  132 is at   5.678156 -3.889346 -2.809279
      ESP Fit Center  133 is at   6.624672 -3.342875 -2.809279
      ESP Fit Center  134 is at   6.998480 -2.315845 -3.847577
      ESP Fit Center  135 is at   6.624672 -1.288815 -3.847577
      ESP Fit Center  136 is at   5.678156 -3.889346 -3.847577
      ESP Fit Center  137 is at   6.624672 -3.342875 -3.847577
      ESP Fit Center  138 is at   6.388184 -2.315845 -4.687577
      ESP Fit Center  139 is at   5.705853 -1.376696 -4.687577
      ESP Fit Center  140 is at   5.705853 -3.254994 -4.687577
      ESP Fit Center  141 is at   5.400705 -2.315845 -5.008428
      ESP Fit Center  142 is at   5.053524 -2.542702  0.079243
      ESP Fit Center  143 is at   6.041003 -2.542702 -0.241608
      ESP Fit Center  144 is at   4.254637 -1.962276 -0.241608
      ESP Fit Center  145 is at   4.254637 -3.123128 -0.241608
      ESP Fit Center  146 is at   5.358672 -3.481851 -0.241608
      ESP Fit Center  147 is at   6.651299 -2.542702 -1.081608
      ESP Fit Center  148 is at   4.254637 -3.926416 -1.081608
      ESP Fit Center  149 is at   5.330975 -4.116203 -1.081608
      ESP Fit Center  150 is at   6.277491 -3.569732 -1.081608
      ESP Fit Center  151 is at   5.330975 -4.116203 -2.119906
      ESP Fit Center  152 is at   6.277491 -3.569732 -2.119906
      ESP Fit Center  153 is at   6.074960 -0.499393 -4.057384
      ESP Fit Center  154 is at   7.100538 -0.326796 -0.791657
      ESP Fit Center  155 is at   6.418207 -1.265945 -0.791657
      ESP Fit Center  156 is at   7.710834 -0.326796 -1.631657
      ESP Fit Center  157 is at   7.337026  0.700234 -1.631657
      ESP Fit Center  158 is at   7.337026 -1.353826 -1.631657
      ESP Fit Center  159 is at   7.710834 -0.326796 -2.669955
      ESP Fit Center  160 is at   7.337026  0.700234 -2.669955
      ESP Fit Center  161 is at   6.390510  1.246705 -2.669955
      ESP Fit Center  162 is at   7.337026 -1.353826 -2.669955
      ESP Fit Center  163 is at   7.100538 -0.326796 -3.509955
      ESP Fit Center  164 is at   6.418207  0.612353 -3.509955
      ESP Fit Center  165 is at   5.881293  1.131191 -3.602775
      ESP Fit Center  166 is at   4.934777  1.677662 -3.602775
      ESP Fit Center  167 is at   3.858439  1.487875 -3.602775
      ESP Fit Center  168 is at   3.155909  0.650632 -3.602775
      ESP Fit Center  169 is at   5.644805  0.104161 -4.442775
      ESP Fit Center  170 is at   4.962474  1.043310 -4.442775
      ESP Fit Center  171 is at   3.858439  0.684587 -4.442775
      ESP Fit Center  172 is at   5.341477 -0.137167  0.651891
      ESP Fit Center  173 is at   3.871477 -0.985872  0.651891
      ESP Fit Center  174 is at   4.851477 -0.985872  0.651891
      ESP Fit Center  175 is at   6.058887 -0.137167 -0.065519
      ESP Fit Center  176 is at   3.836949 -1.751500 -0.065519
      ESP Fit Center  177 is at   4.886005 -1.751500 -0.065519
      ESP Fit Center  178 is at   5.734710 -1.134879 -0.065519
      ESP Fit Center  179 is at   4.571765  3.339975 -0.796001
      ESP Fit Center  180 is at   2.573653  0.742912 -1.846001
      ESP Fit Center  181 is at   4.251297  3.372185 -1.171610
      ESP Fit Center  182 is at   3.174959  3.182398 -1.171610
      ESP Fit Center  183 is at   5.197813  2.825714 -2.209908
      ESP Fit Center  184 is at   4.251297  3.372185 -2.209908
      ESP Fit Center  185 is at   3.174959  3.182398 -2.209908
      ESP Fit Center  186 is at   2.472429  2.345155 -2.209908
      ESP Fit Center  187 is at   2.472429  1.252213 -2.209908
      ESP Fit Center  188 is at   4.961325  1.798684 -3.049908
      ESP Fit Center  189 is at   4.278994  2.737833 -3.049908
      ESP Fit Center  190 is at   3.174959  2.379110 -3.049908
      ESP Fit Center  191 is at   3.174959  1.218258 -3.049908
      ESP Fit Center  192 is at   3.973846  1.798684 -3.370759
      ESP Fit Center  193 is at   5.321763  1.637912  1.145336
      ESP Fit Center  194 is at   6.309242  1.637912  0.824485
      ESP Fit Center  195 is at   5.626911  2.577061  0.824485
      ESP Fit Center  196 is at   5.626911  0.698763  0.824485
      ESP Fit Center  197 is at   6.919538  1.637912 -0.015515
      ESP Fit Center  198 is at   6.545730  2.664942 -0.015515
      ESP Fit Center  199 is at   5.599214  3.211413 -0.015515
      ESP Fit Center  200 is at   6.545730  0.610882 -0.015515
      ESP Fit Center  201 is at   6.919538  1.637912 -1.053813
      ESP Fit Center  202 is at   6.545730  2.664942 -1.053813
      ESP Fit Center  203 is at   5.599214  3.211413 -1.053813
      ESP Fit Center  204 is at   6.309242  1.637912 -1.893813
      ESP Fit Center  205 is at   5.626911  2.577061 -1.893813
      ESP Fit Center  206 is at   2.305707  1.521266  2.171155
      ESP Fit Center  207 is at   5.174360  1.521266  1.402502
      ESP Fit Center  208 is at   3.453868  2.567463  2.343146
      ESP Fit Center  209 is at   4.441347  2.567463  2.022295
      ESP Fit Center  210 is at   3.759016  3.506612  2.022295
      ESP Fit Center  211 is at   5.051643  2.567463  1.182295
      ESP Fit Center  212 is at   4.677835  3.594493  1.182295
      ESP Fit Center  213 is at   3.731319  4.140964  1.182295
      ESP Fit Center  214 is at   2.654981  3.951177  1.182295
      ESP Fit Center  215 is at   4.677835  3.594493  0.143997
      ESP Fit Center  216 is at   3.731319  4.140964  0.143997
      ESP Fit Center  217 is at   2.654981  3.951177  0.143997
      ESP Fit Center  218 is at   3.759016  3.506612 -0.696003
      ESP Fit Center  219 is at   3.620057  0.883674  2.889397
      ESP Fit Center  220 is at   4.607536  0.883674  2.568546
      ESP Fit Center  221 is at   3.925205  1.822823  2.568546
      ESP Fit Center  222 is at   2.821170  1.464100  2.568546
      ESP Fit Center  223 is at   2.821170  0.303248  2.568546
      ESP Fit Center  224 is at   3.925205 -0.055475  2.568546
      ESP Fit Center  225 is at   5.217832  0.883674  1.728546
      ESP Fit Center  226 is at   3.897508 -0.689827  1.728546
      ESP Fit Center  227 is at   4.844024 -0.143356  1.728546
      ESP Fit Center  228 is at   1.993546  1.344375  1.960000
      ESP Fit Center  229 is at   2.518074  2.958708 -0.980000
      ESP Fit Center  230 is at   1.469018  2.958708 -0.980000
      ESP Fit Center  231 is at   1.503546  2.193080 -1.697410
      ESP Fit Center  232 is at   1.013546  1.344375 -1.697410
      ESP Fit Center  233 is at   1.993546  1.344375 -1.960000
      ESP Fit Center  234 is at   1.776338 -2.084689  0.000000
      ESP Fit Center  235 is at   2.716147 -1.728266  0.000000
      ESP Fit Center  236 is at   0.998211  0.909327 -1.818653
      ESP Fit Center  237 is at   1.899488 -0.529591  2.567657
      ESP Fit Center  238 is at   2.886967 -0.529591  2.246806
      ESP Fit Center  239 is at   2.204636  0.409558  2.246806
      ESP Fit Center  240 is at   1.100601 -1.110017  2.246806
      ESP Fit Center  241 is at   2.204636 -1.468740  2.246806
      ESP Fit Center  242 is at   1.100601 -1.913305  1.406806
      ESP Fit Center  243 is at   2.176939 -2.103092  1.406806
      ESP Fit Center  244 is at   3.123455 -1.556621  1.406806
      ESP Fit Center  245 is at   2.176939 -2.103092  0.368508
      ESP Fit Center  246 is at   3.123455 -1.556621  0.368508
      ESP Fit Center  247 is at   2.166666 -2.110102 -0.366029
      ESP Fit Center  248 is at   3.113182 -1.563631 -0.366029
      ESP Fit Center  249 is at   1.090328 -1.920315 -1.404327
      ESP Fit Center  250 is at   2.194363  0.402548 -2.244327
      ESP Fit Center  251 is at   1.090328  0.043825 -2.244327
      ESP Fit Center  252 is at   1.090328 -1.117027 -2.244327
      ESP Fit Center  253 is at   1.889215 -0.536601 -2.565178
      ESP Fit Center  254 is at  -1.744985 -0.512374 -1.050000
      ESP Fit Center  255 is at   0.525000 -0.909327 -1.818653
      ESP Fit Center  256 is at  -0.038375 -1.965930  1.193191
      ESP Fit Center  257 is at  -1.844940 -1.573252  0.353191
      ESP Fit Center  258 is at  -1.142410 -2.410495  0.353191
      ESP Fit Center  259 is at  -0.066072 -2.600282  0.353191
      ESP Fit Center  260 is at   0.880444 -2.053811  0.353191
      ESP Fit Center  261 is at  -1.844940 -1.573252 -0.685107
      ESP Fit Center  262 is at  -1.142410 -2.410495 -0.685107
      ESP Fit Center  263 is at  -0.066072 -2.600282 -0.685107
      ESP Fit Center  264 is at   0.880444 -2.053811 -0.685107
      ESP Fit Center  265 is at  -1.142410 -1.607207 -1.525107
      ESP Fit Center  266 is at  -0.038375 -1.965930 -1.525107
      ESP Fit Center  267 is at  -0.343523 -1.026781 -1.845958
      ESP Fit Center  268 is at  -0.103685  2.182137 -1.346578
      ESP Fit Center  269 is at  -1.180023  1.992350 -1.346578
      ESP Fit Center  270 is at  -1.882553  1.155107 -1.346578
      ESP Fit Center  271 is at  -1.882553  0.062165 -1.346578
      ESP Fit Center  272 is at   0.606343  0.608636 -2.186578
      ESP Fit Center  273 is at  -0.075988  1.547785 -2.186578
      ESP Fit Center  274 is at  -1.180023  1.189062 -2.186578
      ESP Fit Center  275 is at  -1.180023  0.028210 -2.186578
      ESP Fit Center  276 is at  -0.075988 -0.330513 -2.186578
      ESP Fit Center  277 is at  -0.381136  0.608636 -2.507429
      ESP Fit Center  278 is at  -0.800792  0.556186  4.015796
      ESP Fit Center  279 is at   0.262223  0.556186  3.773170
      ESP Fit Center  280 is at  -0.269284  1.476784  3.773170
      ESP Fit Center  281 is at  -1.332300  1.476784  3.773170
      ESP Fit Center  282 is at  -1.863807  0.556186  3.773170
      ESP Fit Center  283 is at  -1.332300 -0.364412  3.773170
      ESP Fit Center  284 is at  -0.269284 -0.364412  3.773170
      ESP Fit Center  285 is at   1.114695  0.556186  3.093346
      ESP Fit Center  286 is at  -2.638688  1.095841  3.093346
      ESP Fit Center  287 is at  -2.638688  0.016531  3.093346
      ESP Fit Center  288 is at  -2.055169 -0.891443  3.093346
      ESP Fit Center  289 is at  -1.073394 -1.339804  3.093346
      ESP Fit Center  290 is at  -0.005070 -1.186202  3.093346
      ESP Fit Center  291 is at   0.810618 -0.479405  3.093346
      ESP Fit Center  292 is at  -3.189365  0.556186  2.110972
      ESP Fit Center  293 is at  -2.952822 -0.480177  2.110972
      ESP Fit Center  294 is at  -2.290043 -1.311276  2.110972
      ESP Fit Center  295 is at  -1.332300 -1.772501  2.110972
      ESP Fit Center  296 is at  -0.269284 -1.772501  2.110972
      ESP Fit Center  297 is at   0.688459 -1.311276  2.110972
      ESP Fit Center  298 is at  -3.189365  0.556186  1.020620
      ESP Fit Center  299 is at  -2.952822 -0.480177  1.020620
      ESP Fit Center  300 is at  -2.290043 -1.311276  1.020620
      ESP Fit Center  301 is at  -1.332300 -1.772501  1.020620
      ESP Fit Center  302 is at  -2.638688  0.016531  0.038246
      ESP Fit Center  303 is at  -2.055169 -0.891443  0.038246
      ESP Fit Center  304 is at  -3.315198  2.809854  0.709470
      ESP Fit Center  305 is at  -3.315198  1.716912  0.709470
      ESP Fit Center  306 is at  -2.612668  3.647097 -0.328828
      ESP Fit Center  307 is at  -3.315198  2.809854 -0.328828
      ESP Fit Center  308 is at  -3.315198  1.716912 -0.328828
      ESP Fit Center  309 is at  -2.612668  0.879669 -0.328828
      ESP Fit Center  310 is at  -0.826302  2.263383 -1.168828
      ESP Fit Center  311 is at  -1.508633  3.202532 -1.168828
      ESP Fit Center  312 is at  -2.612668  2.843809 -1.168828
      ESP Fit Center  313 is at  -2.612668  1.682957 -1.168828
      ESP Fit Center  314 is at  -1.813781  2.263383 -1.489679
      ESP Fit Center  315 is at  -2.091692  2.498929  3.598205
      ESP Fit Center  316 is at  -2.890579  3.079355  3.277354
      ESP Fit Center  317 is at  -2.890579  1.918503  3.277354
      ESP Fit Center  318 is at  -3.593109  3.045400  2.437354
      ESP Fit Center  319 is at  -3.593109  1.952458  2.437354
      ESP Fit Center  320 is at  -2.890579  3.882643  1.399056
      ESP Fit Center  321 is at  -3.593109  3.045400  1.399056
      ESP Fit Center  322 is at  -3.593109  1.952458  1.399056
      ESP Fit Center  323 is at   0.301423  4.247629 -0.637118
      ESP Fit Center  324 is at  -1.430986  5.677690  1.347423
      ESP Fit Center  325 is at  -2.133516  4.840447  1.347423
      ESP Fit Center  326 is at   0.591868  5.321006  0.309125
      ESP Fit Center  327 is at  -0.354648  5.867477  0.309125
      ESP Fit Center  328 is at  -1.430986  5.677690  0.309125
      ESP Fit Center  329 is at  -2.133516  4.840447  0.309125
      ESP Fit Center  330 is at  -0.326951  5.233125 -0.530875
      ESP Fit Center  331 is at  -1.430986  4.874402 -0.530875
      ESP Fit Center  332 is at  -0.632099  4.293976 -0.851726
      ESP Fit Center  333 is at   1.801795  4.065147 -0.015070
      ESP Fit Center  334 is at   0.882976  3.977266 -0.855070
      ESP Fit Center  335 is at  -0.221059  2.457691 -0.855070
      ESP Fit Center  336 is at   0.577828  3.038117 -1.175921
      ESP Fit Center  337 is at   0.569830  3.635457  5.269231
      ESP Fit Center  338 is at   1.632845  3.635457  5.026605
      ESP Fit Center  339 is at   0.038322  2.714859  5.026605
      ESP Fit Center  340 is at   1.101338  2.714859  5.026605
      ESP Fit Center  341 is at   2.485317  3.635457  4.346781
      ESP Fit Center  342 is at   2.181240  4.671048  4.346781
      ESP Fit Center  343 is at  -0.684547  2.187828  4.346781
      ESP Fit Center  344 is at   0.297228  1.739467  4.346781
      ESP Fit Center  345 is at   1.365552  1.893069  4.346781
      ESP Fit Center  346 is at   2.181240  2.599866  4.346781
      ESP Fit Center  347 is at   2.958403  3.635457  3.364407
      ESP Fit Center  348 is at   2.721860  4.671820  3.364407
      ESP Fit Center  349 is at   2.059081  5.502919  3.364407
      ESP Fit Center  350 is at   1.101338  1.306770  3.364407
      ESP Fit Center  351 is at   2.059081  1.767995  3.364407
      ESP Fit Center  352 is at   2.721860  2.599094  3.364407
      ESP Fit Center  353 is at   2.958403  3.635457  2.274055
      ESP Fit Center  354 is at   2.721860  4.671820  2.274055
      ESP Fit Center  355 is at   2.059081  5.502919  2.274055
      ESP Fit Center  356 is at   2.059081  1.767995  2.274055
      ESP Fit Center  357 is at   2.721860  2.599094  2.274055
      ESP Fit Center  358 is at   2.181240  4.671048  1.291681
      ESP Fit Center  359 is at   1.365552  5.377845  1.291681
      ESP Fit Center  360 is at   0.964672  6.938439  3.342157
      ESP Fit Center  361 is at   1.076727  6.964778  3.046432
      ESP Fit Center  362 is at   0.130211  7.511249  3.046432
      ESP Fit Center  363 is at   1.450535  5.937748  2.008134
      ESP Fit Center  364 is at   1.076727  6.964778  2.008134
      ESP Fit Center  365 is at   0.130211  7.511249  2.008134
      ESP Fit Center  366 is at   0.840239  5.937748  1.168134
      ESP Fit Center  367 is at   0.157908  6.876897  1.168134
      ESP Fit Center  368 is at  -0.946127  6.518174  1.168134
      ESP Fit Center  369 is at  -0.147240  5.937748  0.847283
      ESP Fit Center  370 is at   0.389969  5.579602  5.845974
      ESP Fit Center  371 is at   1.377448  5.579602  5.525123
      ESP Fit Center  372 is at   0.695117  6.518751  5.525123
      ESP Fit Center  373 is at  -0.408918  4.999176  5.525123
      ESP Fit Center  374 is at   0.695117  4.640453  5.525123
      ESP Fit Center  375 is at   1.987744  5.579602  4.685123
      ESP Fit Center  376 is at   1.613936  6.606632  4.685123
      ESP Fit Center  377 is at   0.667420  7.153103  4.685123
      ESP Fit Center  378 is at   1.987744  5.579602  3.646825
      ESP Fit Center  379 is at   1.613936  6.606632  3.646825
      ESP Fit Center  380 is at   0.667420  7.153103  3.646825
      ESP Fit Center  381 is at  -3.817883  4.118345  3.535493
      ESP Fit Center  382 is at  -3.115353  3.281102  3.535493
      ESP Fit Center  383 is at  -3.817883  4.118345  2.497195
      ESP Fit Center  384 is at  -2.011318  5.603965  1.657195
      ESP Fit Center  385 is at  -3.115353  4.084390  1.657195
      ESP Fit Center  386 is at  -2.316466  4.664816  1.336344
      ESP Fit Center  387 is at  -1.727626  4.351663  6.324546
      ESP Fit Center  388 is at  -0.740147  4.351663  6.003695
      ESP Fit Center  389 is at  -2.526513  3.771237  6.003695
      ESP Fit Center  390 is at  -1.422478  3.412514  6.003695
      ESP Fit Center  391 is at  -3.229043  3.805192  5.163695
      ESP Fit Center  392 is at  -2.526513  2.967949  5.163695
      ESP Fit Center  393 is at  -1.450175  2.778162  5.163695
      ESP Fit Center  394 is at  -0.503659  3.324633  5.163695
      ESP Fit Center  395 is at  -2.526513  2.967949  4.125397
      ESP Fit Center  396 is at  -1.450175  2.778162  4.125397
      ESP Fit Center  397 is at  -2.406680  6.622263  6.905368
      ESP Fit Center  398 is at  -1.343665  6.622263  6.662742
      ESP Fit Center  399 is at  -1.875172  7.542861  6.662742
      ESP Fit Center  400 is at  -2.938188  7.542861  6.662742
      ESP Fit Center  401 is at  -3.469695  6.622263  6.662742
      ESP Fit Center  402 is at  -2.938188  5.701665  6.662742
      ESP Fit Center  403 is at  -1.875172  5.701665  6.662742
      ESP Fit Center  404 is at  -0.491193  6.622263  5.982918
      ESP Fit Center  405 is at  -0.795270  7.657854  5.982918
      ESP Fit Center  406 is at  -1.610958  8.364651  5.982918
      ESP Fit Center  407 is at  -2.679282  8.518253  5.982918
      ESP Fit Center  408 is at  -3.661057  8.069892  5.982918
      ESP Fit Center  409 is at  -4.244576  7.161918  5.982918
      ESP Fit Center  410 is at  -4.244576  6.082608  5.982918
      ESP Fit Center  411 is at  -3.661057  5.174634  5.982918
      ESP Fit Center  412 is at  -2.679282  4.726273  5.982918
      ESP Fit Center  413 is at  -0.795270  5.586672  5.982918
      ESP Fit Center  414 is at  -0.254650  7.658626  5.000544
      ESP Fit Center  415 is at  -0.917429  8.489725  5.000544
      ESP Fit Center  416 is at  -1.875172  8.950950  5.000544
      ESP Fit Center  417 is at  -2.938188  8.950950  5.000544
      ESP Fit Center  418 is at  -3.895931  8.489725  5.000544
      ESP Fit Center  419 is at  -4.558710  7.658626  5.000544
      ESP Fit Center  420 is at  -4.795253  6.622263  5.000544
      ESP Fit Center  421 is at  -4.558710  5.585900  5.000544
      ESP Fit Center  422 is at  -3.895931  4.754801  5.000544
      ESP Fit Center  423 is at  -0.254650  7.658626  3.910192
      ESP Fit Center  424 is at  -0.917429  8.489725  3.910192
      ESP Fit Center  425 is at  -4.558710  5.585900  3.910192
      ESP Fit Center  426 is at  -3.895931  4.754801  3.910192
      ESP Fit Center  427 is at  -2.032400  5.880198  1.851917
      ESP Fit Center  428 is at  -2.673328  9.499294  4.594445
      ESP Fit Center  429 is at  -3.777363  9.140571  4.594445
      ESP Fit Center  430 is at  -1.754509  9.587175  3.754445
      ESP Fit Center  431 is at  -2.701025 10.133646  3.754445
      ESP Fit Center  432 is at  -3.777363  9.943859  3.754445
      ESP Fit Center  433 is at  -4.479893  9.106616  3.754445
      ESP Fit Center  434 is at  -1.754509  9.587175  2.716147
      ESP Fit Center  435 is at  -2.701025 10.133646  2.716147
      ESP Fit Center  436 is at  -3.777363  9.943859  2.716147
      ESP Fit Center  437 is at  -4.479893  9.106616  2.716147
      ESP Fit Center  438 is at  -2.673328  9.499294  1.876147
      ESP Fit Center  439 is at  -3.777363  9.140571  1.876147
      ESP Fit Center  440 is at  -0.666173  8.596794  2.794189
      ESP Fit Center  441 is at  -0.292365  7.569764  1.755891
      ESP Fit Center  442 is at  -0.666173  8.596794  1.755891
      ESP Fit Center  443 is at  -1.612689  9.143265  1.755891
      ESP Fit Center  444 is at  -0.902661  7.569764  0.915891
      ESP Fit Center  445 is at  -1.584992  8.508913  0.915891
      ESP Fit Center  446 is at  -1.584992  6.630615  0.915891
      ESP Fit Center  447 is at  -1.890140  7.569764  0.595040
      ESP Fit Center  448 is at  -4.731217  8.959250  2.121748
      ESP Fit Center  449 is at  -5.731532  6.483342  1.071748
      ESP Fit Center  450 is at  -4.890714  7.005026  4.418130
      ESP Fit Center  451 is at  -4.585566  7.944175  4.097279
      ESP Fit Center  452 is at  -5.689601  7.585452  4.097279
      ESP Fit Center  453 is at  -5.689601  6.424600  4.097279
      ESP Fit Center  454 is at  -5.689601  8.388740  3.257279
      ESP Fit Center  455 is at  -6.392131  7.551497  3.257279
      ESP Fit Center  456 is at  -6.392131  6.458555  3.257279
      ESP Fit Center  457 is at  -5.689601  5.621312  3.257279
      ESP Fit Center  458 is at  -5.689601  8.388740  2.218981
      ESP Fit Center  459 is at  -6.392131  7.551497  2.218981
      ESP Fit Center  460 is at  -6.392131  6.458555  2.218981
      ESP Fit Center  461 is at  -5.689601  5.621312  2.218981
      ESP Fit Center  462 is at  -3.890732  9.184613  1.750466
      ESP Fit Center  463 is at  -4.967070  8.994826  1.750466
      ESP Fit Center  464 is at  -2.944216  8.638142  0.712168
      ESP Fit Center  465 is at  -3.890732  9.184613  0.712168
      ESP Fit Center  466 is at  -4.967070  8.994826  0.712168
      ESP Fit Center  467 is at  -5.669600  8.157583  0.712168
      ESP Fit Center  468 is at  -5.669600  7.064641  0.712168
      ESP Fit Center  469 is at  -3.180704  7.611112 -0.127832
      ESP Fit Center  470 is at  -3.863035  8.550261 -0.127832
      ESP Fit Center  471 is at  -4.967070  8.191538 -0.127832
      ESP Fit Center  472 is at  -4.967070  7.030686 -0.127832
      ESP Fit Center  473 is at  -3.863035  6.671963 -0.127832
      ESP Fit Center  474 is at  -4.168183  7.611112 -0.448683
      ESP Fit Center  475 is at  -4.620539  4.583197  2.302540
      ESP Fit Center  476 is at  -2.223877  5.966911  1.264242
      ESP Fit Center  477 is at  -5.323069  5.420440  1.264242
      ESP Fit Center  478 is at  -4.620539  4.583197  1.264242
      ESP Fit Center  479 is at  -3.544201  4.393410  1.264242
      ESP Fit Center  480 is at  -2.597685  4.939881  1.264242
      ESP Fit Center  481 is at  -2.834173  5.966911  0.424242
      ESP Fit Center  482 is at  -4.620539  5.386485  0.424242
      ESP Fit Center  483 is at  -3.516504  5.027762  0.424242
      ESP Fit Center  484 is at  -3.821652  5.966911  0.103391
      ESP Fit Center  485 is at   3.593213  0.764597 -5.631441
      ESP Fit Center  486 is at   0.732726 -1.516566 -5.631441
      ESP Fit Center  487 is at   0.964442 -2.531779 -5.631441
      ESP Fit Center  488 is at   2.805514  0.340731 -6.593767
      ESP Fit Center  489 is at   1.843775 -0.098481 -6.593767
      ESP Fit Center  490 is at   4.651077 -2.531022 -6.593767
      ESP Fit Center  491 is at   3.593213 -0.614756 -7.259716
      ESP Fit Center  492 is at   5.991281 -1.085183 -5.230640
      ESP Fit Center  493 is at   5.734050 -0.125183 -5.230640
      ESP Fit Center  494 is at   5.031281  0.577586 -5.230640
      ESP Fit Center  495 is at   4.071281  0.834817 -5.230640
      ESP Fit Center  496 is at   5.734050 -2.045183 -5.230640
      ESP Fit Center  497 is at   5.734050 -1.085183 -6.190640
      ESP Fit Center  498 is at   5.416489 -0.107832 -6.190640
      ESP Fit Center  499 is at   4.585105  0.496204 -6.190640
      ESP Fit Center  500 is at   5.416489 -2.062534 -6.190640
      ESP Fit Center  501 is at   5.031281 -1.085183 -6.893409
      ESP Fit Center  502 is at   4.551281 -0.253799 -6.893409
      ESP Fit Center  503 is at   0.816736 -1.884503 -6.074450
      ESP Fit Center  504 is at   1.073967 -2.844503 -6.074450
      ESP Fit Center  505 is at   1.776736 -3.547272 -6.074450
      ESP Fit Center  506 is at   2.222912 -0.303116 -7.034450
      ESP Fit Center  507 is at   1.391528 -0.907152 -7.034450
      ESP Fit Center  508 is at   1.073967 -1.884503 -7.034450
      ESP Fit Center  509 is at   1.391528 -2.861854 -7.034450
      ESP Fit Center  510 is at   2.222912 -3.465890 -7.034450
      ESP Fit Center  511 is at   3.250560 -3.465890 -7.034450
      ESP Fit Center  512 is at   4.081944 -2.861854 -7.034450
      ESP Fit Center  513 is at   3.696736 -1.884503 -7.737219
      ESP Fit Center  514 is at   3.216736 -1.053119 -7.737219
      ESP Fit Center  515 is at   2.256736 -1.053119 -7.737219
      ESP Fit Center  516 is at   1.776736 -1.884503 -7.737219
      ESP Fit Center  517 is at   2.256736 -2.715887 -7.737219
      ESP Fit Center  518 is at   3.216736 -2.715887 -7.737219
      ESP Fit Center  519 is at   2.736736 -1.884503 -7.994450
      ESP Fit Center  520 is at   1.914228  0.112258 -3.113249
      ESP Fit Center  521 is at   1.434228 -0.719126 -3.113249
      ESP Fit Center  522 is at   2.908052  0.862261 -3.816018
      ESP Fit Center  523 is at   1.880404  0.862261 -3.816018
      ESP Fit Center  524 is at   1.049020  0.258225 -3.816018
      ESP Fit Center  525 is at   0.731459 -0.719126 -3.816018
      ESP Fit Center  526 is at   3.354228  0.943643 -4.776018
      ESP Fit Center  527 is at   2.394228  1.200874 -4.776018
      ESP Fit Center  528 is at   1.434228  0.943643 -4.776018
      ESP Fit Center  529 is at   0.731459  0.240874 -4.776018
      ESP Fit Center  530 is at   0.474228 -0.719126 -4.776018
      ESP Fit Center  531 is at   2.908052  0.862261 -5.736018
      ESP Fit Center  532 is at   1.880404  0.862261 -5.736018
      ESP Fit Center  533 is at   1.049020  0.258225 -5.736018
      ESP Fit Center  534 is at   0.731459 -0.719126 -5.736018
      ESP Fit Center  535 is at   1.914228  0.112258 -6.438787
      ESP Fit Center  536 is at   2.811003 -4.512292 -2.581905
      ESP Fit Center  537 is at   2.557382 -4.936158 -3.544231
      ESP Fit Center  538 is at   2.557382 -4.936158 -4.612331
      ESP Fit Center  539 is at   1.117991 -3.096317 -2.345518
      ESP Fit Center  540 is at   1.597991 -3.927701 -2.345518
      ESP Fit Center  541 is at   0.732783 -2.118966 -3.048287
      ESP Fit Center  542 is at   0.415222 -3.096317 -3.048287
      ESP Fit Center  543 is at   0.732783 -4.073668 -3.048287
      ESP Fit Center  544 is at   1.564167 -4.677704 -3.048287
      ESP Fit Center  545 is at   0.415222 -2.136317 -4.008287
      ESP Fit Center  546 is at   0.157991 -3.096317 -4.008287
      ESP Fit Center  547 is at   0.415222 -4.056317 -4.008287
      ESP Fit Center  548 is at   1.117991 -4.759086 -4.008287
      ESP Fit Center  549 is at   2.077991 -5.016317 -4.008287
      ESP Fit Center  550 is at   0.732783 -2.118966 -4.968287
      ESP Fit Center  551 is at   0.415222 -3.096317 -4.968287
      ESP Fit Center  552 is at   0.732783 -4.073668 -4.968287
      ESP Fit Center  553 is at   1.564167 -4.677704 -4.968287
      ESP Fit Center  554 is at   1.117991 -3.096317 -5.671056
      ESP Fit Center  555 is at   1.597991 -3.927701 -5.671056
      ESP Fit Center  556 is at   3.252395 -5.034010 -3.442506
      ESP Fit Center  557 is at   4.280043 -5.034010 -3.442506
      ESP Fit Center  558 is at   5.111427 -4.429974 -3.442506
      ESP Fit Center  559 is at   2.806219 -5.115392 -4.402506
      ESP Fit Center  560 is at   3.766219 -5.372623 -4.402506
      ESP Fit Center  561 is at   4.726219 -5.115392 -4.402506
      ESP Fit Center  562 is at   5.428988 -4.412623 -4.402506
      ESP Fit Center  563 is at   5.428988 -3.452623 -5.362506
      ESP Fit Center  564 is at   3.252395 -5.034010 -5.362506
      ESP Fit Center  565 is at   4.280043 -5.034010 -5.362506
      ESP Fit Center  566 is at   5.111427 -4.429974 -5.362506
      ESP Fit Center  567 is at   4.726219 -3.452623 -6.065275
      ESP Fit Center  568 is at   3.286219 -4.284007 -6.065275
      ESP Fit Center  569 is at   4.246219 -4.284007 -6.065275
      ESP Fit Center  570 is at   3.395158 -2.246156 -0.513987
      ESP Fit Center  571 is at   2.909208 -3.087846 -0.735817
      ESP Fit Center  572 is at   1.978324 -3.275546 -1.357370
      ESP Fit Center  573 is at   2.853976 -3.911744 -1.357370
      ESP Fit Center  574 is at   1.274778 -2.768783 -2.255540
      ESP Fit Center  575 is at   2.620758 -4.288080 -2.255540
      ESP Fit Center  576 is at   3.658391 -4.414072 -2.255540
      ESP Fit Center  577 is at   7.105476 -1.977241 -1.962422
      ESP Fit Center  578 is at   4.244989 -4.258404 -1.962422
      ESP Fit Center  579 is at   5.286309 -4.258404 -3.030522
      ESP Fit Center  580 is at   7.320705 -2.315845 -3.328428
      ESP Fit Center  581 is at   5.400705 -4.235845 -3.328428
      ESP Fit Center  582 is at   6.360705 -3.978614 -3.328428
      ESP Fit Center  583 is at   7.063474 -3.275845 -3.328428
      ESP Fit Center  584 is at   7.063474 -2.315845 -4.288428
      ESP Fit Center  585 is at   6.745913 -1.338494 -4.288428
      ESP Fit Center  586 is at   5.914529 -3.897232 -4.288428
      ESP Fit Center  587 is at   6.745913 -3.293196 -4.288428
      ESP Fit Center  588 is at   6.360705 -2.315845 -4.991197
      ESP Fit Center  589 is at   5.880705 -3.147229 -4.991197
      ESP Fit Center  590 is at   5.053524 -2.542702  0.319243
      ESP Fit Center  591 is at   6.013524 -2.542702  0.062012
      ESP Fit Center  592 is at   5.533524 -1.711318  0.062012
      ESP Fit Center  593 is at   4.093524 -2.542702  0.062012
      ESP Fit Center  594 is at   4.573524 -3.374086  0.062012
      ESP Fit Center  595 is at   5.533524 -3.374086  0.062012
      ESP Fit Center  596 is at   6.716293 -2.542702 -0.640757
      ESP Fit Center  597 is at   3.708316 -3.520053 -0.640757
      ESP Fit Center  598 is at   4.539700 -4.124089 -0.640757
      ESP Fit Center  599 is at   5.567348 -4.124089 -0.640757
      ESP Fit Center  600 is at   6.398732 -3.520053 -0.640757
      ESP Fit Center  601 is at   6.973524 -2.542702 -1.600757
      ESP Fit Center  602 is at   4.093524 -4.205471 -1.600757
      ESP Fit Center  603 is at   5.053524 -4.462702 -1.600757
      ESP Fit Center  604 is at   6.013524 -4.205471 -1.600757
      ESP Fit Center  605 is at   6.716293 -3.502702 -1.600757
      ESP Fit Center  606 is at   6.066281 -0.499393 -4.401056
      ESP Fit Center  607 is at   7.073059 -0.326796 -0.488037
      ESP Fit Center  608 is at   6.593059 -1.158180 -0.488037
      ESP Fit Center  609 is at   7.775828 -0.326796 -1.190806
      ESP Fit Center  610 is at   7.458267  0.650555 -1.190806
      ESP Fit Center  611 is at   7.458267 -1.304147 -1.190806
      ESP Fit Center  612 is at   8.033059 -0.326796 -2.150806
      ESP Fit Center  613 is at   7.775828  0.633204 -2.150806
      ESP Fit Center  614 is at   7.073059  1.335973 -2.150806
      ESP Fit Center  615 is at   7.775828 -1.286796 -2.150806
      ESP Fit Center  616 is at   7.775828 -0.326796 -3.110806
      ESP Fit Center  617 is at   7.458267  0.650555 -3.110806
      ESP Fit Center  618 is at   6.626883  1.254591 -3.110806
      ESP Fit Center  619 is at   7.458267 -1.304147 -3.110806
      ESP Fit Center  620 is at   7.073059 -0.326796 -3.813575
      ESP Fit Center  621 is at   6.593059  0.504588 -3.813575
      ESP Fit Center  622 is at   5.617326  1.766930 -3.083626
      ESP Fit Center  623 is at   6.002534  1.081512 -4.043626
      ESP Fit Center  624 is at   5.171150  1.685548 -4.043626
      ESP Fit Center  625 is at   4.143502  1.685548 -4.043626
      ESP Fit Center  626 is at   3.312118  1.081512 -4.043626
      ESP Fit Center  627 is at   5.617326  0.104161 -4.746395
      ESP Fit Center  628 is at   5.137326  0.935545 -4.746395
      ESP Fit Center  629 is at   4.177326  0.935545 -4.746395
      ESP Fit Center  630 is at   5.333377 -0.137167  0.972651
      ESP Fit Center  631 is at   4.847427 -0.978857  0.972651
      ESP Fit Center  632 is at   6.112780 -0.137167  0.351098
      ESP Fit Center  633 is at   3.820295 -1.802755  0.351098
      ESP Fit Center  634 is at   4.902659 -1.802755  0.351098
      ESP Fit Center  635 is at   5.778311 -1.166557  0.351098
      ESP Fit Center  636 is at   5.897162  0.240830  0.700375
      ESP Fit Center  637 is at   4.839298  3.536449 -0.261951
      ESP Fit Center  638 is at   4.839298  3.536449 -1.330051
      ESP Fit Center  639 is at   5.897162  2.269742 -2.292377
      ESP Fit Center  640 is at   4.933846  3.461453 -1.690759
      ESP Fit Center  641 is at   3.973846  3.718684 -1.690759
      ESP Fit Center  642 is at   3.013846  3.461453 -1.690759
      ESP Fit Center  643 is at   5.319054  2.776035 -2.650759
      ESP Fit Center  644 is at   4.487670  3.380071 -2.650759
      ESP Fit Center  645 is at   3.460022  3.380071 -2.650759
      ESP Fit Center  646 is at   2.628638  2.776035 -2.650759
      ESP Fit Center  647 is at   2.311077  1.798684 -2.650759
      ESP Fit Center  648 is at   2.628638  0.821333 -2.650759
      ESP Fit Center  649 is at   4.453846  2.630068 -3.353528
      ESP Fit Center  650 is at   3.493846  2.630068 -3.353528
      ESP Fit Center  651 is at   3.013846  1.798684 -3.353528
      ESP Fit Center  652 is at   6.281763  1.637912  1.128105
      ESP Fit Center  653 is at   5.801763  2.469296  1.128105
      ESP Fit Center  654 is at   5.801763  0.806528  1.128105
      ESP Fit Center  655 is at   6.984532  1.637912  0.425336
      ESP Fit Center  656 is at   6.666971  2.615263  0.425336
      ESP Fit Center  657 is at   5.835587  3.219299  0.425336
      ESP Fit Center  658 is at   6.666971  0.660561  0.425336
      ESP Fit Center  659 is at   7.241763  1.637912 -0.534664
      ESP Fit Center  660 is at   6.984532  2.597912 -0.534664
      ESP Fit Center  661 is at   6.281763  3.300681 -0.534664
      ESP Fit Center  662 is at   5.321763  3.557912 -0.534664
      ESP Fit Center  663 is at   6.984532  0.677912 -0.534664
      ESP Fit Center  664 is at   6.984532  1.637912 -1.494664
      ESP Fit Center  665 is at   6.666971  2.615263 -1.494664
      ESP Fit Center  666 is at   5.835587  3.219299 -1.494664
      ESP Fit Center  667 is at   6.281763  1.637912 -2.197433
      ESP Fit Center  668 is at   3.453868  2.567463  2.583146
      ESP Fit Center  669 is at   4.413868  2.567463  2.325915
      ESP Fit Center  670 is at   3.933868  3.398847  2.325915
      ESP Fit Center  671 is at   5.116637  2.567463  1.623146
      ESP Fit Center  672 is at   4.799076  3.544814  1.623146
      ESP Fit Center  673 is at   3.967692  4.148850  1.623146
      ESP Fit Center  674 is at   5.116637  3.527463  0.663146
      ESP Fit Center  675 is at   4.413868  4.230232  0.663146
      ESP Fit Center  676 is at   3.453868  4.487463  0.663146
      ESP Fit Center  677 is at   2.493868  4.230232  0.663146
      ESP Fit Center  678 is at   3.967692  4.148850 -0.296854
      ESP Fit Center  679 is at   2.940044  4.148850 -0.296854
      ESP Fit Center  680 is at   3.620057  0.883674  3.129397
      ESP Fit Center  681 is at   4.580057  0.883674  2.872166
      ESP Fit Center  682 is at   4.100057  1.715058  2.872166
      ESP Fit Center  683 is at   3.140057  1.715058  2.872166
      ESP Fit Center  684 is at   2.660057  0.883674  2.872166
      ESP Fit Center  685 is at   3.140057  0.052290  2.872166
      ESP Fit Center  686 is at   4.100057  0.052290  2.872166
      ESP Fit Center  687 is at   5.282826  0.883674  2.169397
      ESP Fit Center  688 is at   4.965265  1.861025  2.169397
      ESP Fit Center  689 is at   4.133881 -0.697713  2.169397
      ESP Fit Center  690 is at   4.965265 -0.093677  2.169397
      ESP Fit Center  691 is at   4.580057 -0.779095  1.209397
      ESP Fit Center  692 is at   5.282826 -0.076326  1.209397
      ESP Fit Center  693 is at   1.452364  3.009963 -1.396617
      ESP Fit Center  694 is at   0.576712  2.373765 -1.396617
      ESP Fit Center  695 is at   1.507596  2.186065 -2.018170
      ESP Fit Center  696 is at   1.021646  1.344375 -2.018170
      ESP Fit Center  697 is at   1.993546  1.344375 -2.240000
      ESP Fit Center  698 is at   1.002551 -2.281163  0.534050
      ESP Fit Center  699 is at   1.002551  0.901810 -2.162325
      ESP Fit Center  700 is at   1.899488 -0.529591  2.807657
      ESP Fit Center  701 is at   2.859488 -0.529591  2.550426
      ESP Fit Center  702 is at   1.419488 -1.360975  2.550426
      ESP Fit Center  703 is at   2.379488 -1.360975  2.550426
      ESP Fit Center  704 is at   1.385664 -2.110978  1.847657
      ESP Fit Center  705 is at   2.413312 -2.110978  1.847657
      ESP Fit Center  706 is at   3.244696 -1.506942  1.847657
      ESP Fit Center  707 is at   0.939488 -2.192360  0.887657
      ESP Fit Center  708 is at   1.899488 -2.449591  0.887657
      ESP Fit Center  709 is at   2.859488 -2.192360  0.887657
      ESP Fit Center  710 is at   3.562257 -1.489591  0.887657
      ESP Fit Center  711 is at   1.889215 -2.456601 -0.885178
      ESP Fit Center  712 is at   0.544007 -1.513952 -1.845178
      ESP Fit Center  713 is at   2.369215  0.294783 -2.547947
      ESP Fit Center  714 is at   1.409215  0.294783 -2.547947
      ESP Fit Center  715 is at   0.929215 -0.536601 -2.547947
      ESP Fit Center  716 is at   1.889215 -0.536601 -2.805178
      ESP Fit Center  717 is at  -1.800388 -0.528642 -1.496376
      ESP Fit Center  718 is at  -0.520660 -0.901810 -2.162325
      ESP Fit Center  719 is at  -1.688731 -2.004132  0.794042
      ESP Fit Center  720 is at  -0.857347 -2.608168  0.794042
      ESP Fit Center  721 is at   0.170301 -2.608168  0.794042
      ESP Fit Center  722 is at  -2.006292 -1.986781 -0.165958
      ESP Fit Center  723 is at  -1.303523 -2.689550 -0.165958
      ESP Fit Center  724 is at  -0.343523 -2.946781 -0.165958
      ESP Fit Center  725 is at   0.616477 -2.689550 -0.165958
      ESP Fit Center  726 is at  -2.006292 -1.026781 -1.125958
      ESP Fit Center  727 is at  -1.688731 -2.004132 -1.125958
      ESP Fit Center  728 is at  -0.857347 -2.608168 -1.125958
      ESP Fit Center  729 is at   0.170301 -2.608168 -1.125958
      ESP Fit Center  730 is at  -1.303523 -1.026781 -1.828727
      ESP Fit Center  731 is at  -0.823523 -1.858165 -1.828727
      ESP Fit Center  732 is at   0.136477 -1.858165 -1.828727
      ESP Fit Center  733 is at  -2.301136  0.608636 -0.827429
      ESP Fit Center  734 is at   0.132688  2.190023 -1.787429
      ESP Fit Center  735 is at  -0.894960  2.190023 -1.787429
      ESP Fit Center  736 is at  -1.726344  1.585987 -1.787429
      ESP Fit Center  737 is at  -2.043905  0.608636 -1.787429
      ESP Fit Center  738 is at  -1.726344 -0.368715 -1.787429
      ESP Fit Center  739 is at   0.578864  0.608636 -2.490198
      ESP Fit Center  740 is at   0.098864  1.440020 -2.490198
      ESP Fit Center  741 is at  -0.861136  1.440020 -2.490198
      ESP Fit Center  742 is at  -1.341136  0.608636 -2.490198
      ESP Fit Center  743 is at  -0.861136 -0.222748 -2.490198
      ESP Fit Center  744 is at   0.098864 -0.222748 -2.490198
      ESP Fit Center  745 is at  -0.381136  0.608636 -2.747429
      ESP Fit Center  746 is at  -0.800792  0.556186  4.365796
      ESP Fit Center  747 is at   0.270722  0.556186  4.152659
      ESP Fit Center  748 is at  -1.336549  1.484144  4.152659
      ESP Fit Center  749 is at  -1.872306  0.556186  4.152659
      ESP Fit Center  750 is at  -1.336549 -0.371772  4.152659
      ESP Fit Center  751 is at  -0.265035 -0.371772  4.152659
      ESP Fit Center  752 is at   1.179107  0.556186  3.545695
      ESP Fit Center  753 is at  -2.515435  1.546135  3.545695
      ESP Fit Center  754 is at  -2.780691  0.556186  3.545695
      ESP Fit Center  755 is at  -2.515435 -0.433763  3.545695
      ESP Fit Center  756 is at  -1.790741 -1.158457  3.545695
      ESP Fit Center  757 is at  -0.800792 -1.423713  3.545695
      ESP Fit Center  758 is at   0.189157 -1.158457  3.545695
      ESP Fit Center  759 is at   0.913851 -0.433763  3.545695
      ESP Fit Center  760 is at   1.786071  0.556186  2.637310
      ESP Fit Center  761 is at  -3.331126  1.094025  2.637310
      ESP Fit Center  762 is at  -3.331126  0.018347  2.637310
      ESP Fit Center  763 is at  -2.893608 -0.964334  2.637310
      ESP Fit Center  764 is at  -2.094223 -1.684103  2.637310
      ESP Fit Center  765 is at  -1.071193 -2.016506  2.637310
      ESP Fit Center  766 is at  -0.001407 -1.904067  2.637310
      ESP Fit Center  767 is at   0.930157 -1.366228  2.637310
      ESP Fit Center  768 is at  -3.553117  1.070685  1.565796
      ESP Fit Center  769 is at  -3.553117  0.041687  1.565796
      ESP Fit Center  770 is at  -3.181400 -0.917824  1.565796
      ESP Fit Center  771 is at  -2.488169 -1.678262  1.565796
      ESP Fit Center  772 is at  -1.567048 -2.136926  1.565796
      ESP Fit Center  773 is at  -0.542441 -2.231870  1.565796
      ESP Fit Center  774 is at   0.447275 -1.950271  1.565796
      ESP Fit Center  775 is at  -3.331126  1.094025  0.494282
      ESP Fit Center  776 is at  -3.331126  0.018347  0.494282
      ESP Fit Center  777 is at  -2.893608 -0.964334  0.494282
      ESP Fit Center  778 is at  -2.094223 -1.684103  0.494282
      ESP Fit Center  779 is at  -2.780691  0.556186 -0.414103
      ESP Fit Center  780 is at  -2.515435 -0.433763 -0.414103
      ESP Fit Center  781 is at  -2.781894  4.102553  0.638436
      ESP Fit Center  782 is at  -3.431147  3.288416  0.638436
      ESP Fit Center  783 is at  -3.431147  1.257990  0.638436
      ESP Fit Center  784 is at  -2.773781  3.926152  0.190321
      ESP Fit Center  785 is at  -3.476550  3.223383  0.190321
      ESP Fit Center  786 is at  -3.733781  2.263383  0.190321
      ESP Fit Center  787 is at  -3.476550  1.303383  0.190321
      ESP Fit Center  788 is at  -2.327605  3.844770 -0.769679
      ESP Fit Center  789 is at  -3.158989  3.240734 -0.769679
      ESP Fit Center  790 is at  -3.476550  2.263383 -0.769679
      ESP Fit Center  791 is at  -3.158989  1.286032 -0.769679
      ESP Fit Center  792 is at  -1.333781  3.094767 -1.472448
      ESP Fit Center  793 is at  -2.293781  3.094767 -1.472448
      ESP Fit Center  794 is at  -2.773781  2.263383 -1.472448
      ESP Fit Center  795 is at  -2.293781  1.431999 -1.472448
      ESP Fit Center  796 is at  -1.813781  2.263383 -1.729679
      ESP Fit Center  797 is at  -2.091692  2.498929  3.838205
      ESP Fit Center  798 is at  -3.051692  2.498929  3.580974
      ESP Fit Center  799 is at  -2.571692  1.667545  3.580974
      ESP Fit Center  800 is at  -3.754461  2.498929  2.878205
      ESP Fit Center  801 is at  -3.436900  1.521578  2.878205
      ESP Fit Center  802 is at  -3.754461  3.458929  1.918205
      ESP Fit Center  803 is at  -4.011692  2.498929  1.918205
      ESP Fit Center  804 is at  -3.754461  1.538929  1.918205
      ESP Fit Center  805 is at  -3.436900  3.476280  0.958205
      ESP Fit Center  806 is at  -3.754461  2.498929  0.958205
      ESP Fit Center  807 is at   0.297083  4.240112 -0.980790
      ESP Fit Center  808 is at  -0.223577  3.338302 -1.218465
      ESP Fit Center  809 is at  -1.592099  5.956745  0.828274
      ESP Fit Center  810 is at  -2.294868  5.253976  0.828274
      ESP Fit Center  811 is at   0.713109  5.271327 -0.131726
      ESP Fit Center  812 is at  -0.118275  5.875363 -0.131726
      ESP Fit Center  813 is at  -1.145923  5.875363 -0.131726
      ESP Fit Center  814 is at  -1.977307  5.271327 -0.131726
      ESP Fit Center  815 is at  -2.294868  4.293976 -0.131726
      ESP Fit Center  816 is at  -0.152099  5.125360 -0.834495
      ESP Fit Center  817 is at  -1.112099  5.125360 -0.834495
      ESP Fit Center  818 is at  -1.592099  4.293976 -0.834495
      ESP Fit Center  819 is at  -0.632099  4.293976 -1.091726
      ESP Fit Center  820 is at   1.923036  4.015468 -0.455921
      ESP Fit Center  821 is at   1.091652  4.619504 -0.455921
      ESP Fit Center  822 is at   1.057828  3.869501 -1.158690
      ESP Fit Center  823 is at   0.097828  3.869501 -1.158690
      ESP Fit Center  824 is at   0.577828  3.038117 -1.415921
      ESP Fit Center  825 is at   0.569830  3.635457  5.619231
      ESP Fit Center  826 is at   1.641344  3.635457  5.406094
      ESP Fit Center  827 is at   0.034073  2.707499  5.406094
      ESP Fit Center  828 is at   1.105587  2.707499  5.406094
      ESP Fit Center  829 is at   2.549729  3.635457  4.799130
      ESP Fit Center  830 is at   2.284473  4.625406  4.799130
      ESP Fit Center  831 is at  -0.420119  1.920814  4.799130
      ESP Fit Center  832 is at   0.569830  1.655558  4.799130
      ESP Fit Center  833 is at   1.559779  1.920814  4.799130
      ESP Fit Center  834 is at   2.284473  2.645508  4.799130
      ESP Fit Center  835 is at   3.156693  3.635457  3.890745
      ESP Fit Center  836 is at   2.933047  4.687629  3.890745
      ESP Fit Center  837 is at   2.300779  5.557871  3.890745
      ESP Fit Center  838 is at  -1.522986  2.114937  3.890745
      ESP Fit Center  839 is at   1.369215  1.175204  3.890745
      ESP Fit Center  840 is at   2.300779  1.713043  3.890745
      ESP Fit Center  841 is at   2.933047  2.583285  3.890745
      ESP Fit Center  842 is at   3.369830  3.635457  2.819231
      ESP Fit Center  843 is at   3.180752  4.646934  2.819231
      ESP Fit Center  844 is at   2.639055  5.521805  2.819231
      ESP Fit Center  845 is at   1.817897  1.129000  2.819231
      ESP Fit Center  846 is at   2.639055  1.749109  2.819231
      ESP Fit Center  847 is at   3.180752  2.623980  2.819231
      ESP Fit Center  848 is at   2.933047  4.687629  1.747717
      ESP Fit Center  849 is at   2.300779  5.557871  1.747717
      ESP Fit Center  850 is at   2.284473  4.625406  0.839332
      ESP Fit Center  851 is at   1.559779  5.350100  0.839332
      ESP Fit Center  852 is at   0.292396  7.491336  3.876207
      ESP Fit Center  853 is at   1.879847  6.225386  2.808107
      ESP Fit Center  854 is at   1.515529  6.897748  2.527283
      ESP Fit Center  855 is at   0.812760  7.600517  2.527283
      ESP Fit Center  856 is at   1.197968  6.915099  1.567283
      ESP Fit Center  857 is at   0.366584  7.519135  1.567283
      ESP Fit Center  858 is at   0.812760  5.937748  0.864514
      ESP Fit Center  859 is at   0.332760  6.769132  0.864514
      ESP Fit Center  860 is at  -0.627240  6.769132  0.864514
      ESP Fit Center  861 is at   0.389969  5.579602  6.085974
      ESP Fit Center  862 is at   1.349969  5.579602  5.828743
      ESP Fit Center  863 is at   0.869969  6.410986  5.828743
      ESP Fit Center  864 is at  -0.090031  4.748218  5.828743
      ESP Fit Center  865 is at   0.869969  4.748218  5.828743
      ESP Fit Center  866 is at   2.052738  5.579602  5.125974
      ESP Fit Center  867 is at   1.735177  6.556953  5.125974
      ESP Fit Center  868 is at   0.903793  7.160989  5.125974
      ESP Fit Center  869 is at   2.309969  5.579602  4.165974
      ESP Fit Center  870 is at   2.052738  6.539602  4.165974
      ESP Fit Center  871 is at   1.349969  7.242371  4.165974
      ESP Fit Center  872 is at   0.389969  7.499602  4.165974
      ESP Fit Center  873 is at  -3.783946  4.043593  4.345577
      ESP Fit Center  874 is at  -3.661674  3.687465  3.976344
      ESP Fit Center  875 is at  -3.979235  3.704816  3.016344
      ESP Fit Center  876 is at  -3.661674  3.687465  2.056344
      ESP Fit Center  877 is at  -1.727626  4.351663  6.564546
      ESP Fit Center  878 is at  -0.767626  4.351663  6.307315
      ESP Fit Center  879 is at  -2.687626  4.351663  6.307315
      ESP Fit Center  880 is at  -2.207626  3.520279  6.307315
      ESP Fit Center  881 is at  -1.247626  3.520279  6.307315
      ESP Fit Center  882 is at  -0.064857  4.351663  5.604546
      ESP Fit Center  883 is at  -3.072834  3.374312  5.604546
      ESP Fit Center  884 is at  -2.241450  2.770276  5.604546
      ESP Fit Center  885 is at  -1.213802  2.770276  5.604546
      ESP Fit Center  886 is at  -0.382418  3.374312  5.604546
      ESP Fit Center  887 is at  -3.390395  3.391663  4.644546
      ESP Fit Center  888 is at  -2.687626  2.688894  4.644546
      ESP Fit Center  889 is at  -1.727626  2.431663  4.644546
      ESP Fit Center  890 is at  -2.406680  6.622263  7.255368
      ESP Fit Center  891 is at  -1.335166  6.622263  7.042231
      ESP Fit Center  892 is at  -1.870923  7.550221  7.042231
      ESP Fit Center  893 is at  -2.942437  7.550221  7.042231
      ESP Fit Center  894 is at  -3.478194  6.622263  7.042231
      ESP Fit Center  895 is at  -2.942437  5.694305  7.042231
      ESP Fit Center  896 is at  -1.870923  5.694305  7.042231
      ESP Fit Center  897 is at  -0.426781  6.622263  6.435267
      ESP Fit Center  898 is at  -0.692037  7.612212  6.435267
      ESP Fit Center  899 is at  -1.416731  8.336906  6.435267
      ESP Fit Center  900 is at  -2.406680  8.602162  6.435267
      ESP Fit Center  901 is at  -3.396629  8.336906  6.435267
      ESP Fit Center  902 is at  -4.121323  7.612212  6.435267
      ESP Fit Center  903 is at  -4.386579  6.622263  6.435267
      ESP Fit Center  904 is at  -4.121323  5.632314  6.435267
      ESP Fit Center  905 is at  -3.396629  4.907620  6.435267
      ESP Fit Center  906 is at  -2.406680  4.642364  6.435267
      ESP Fit Center  907 is at  -0.692037  5.632314  6.435267
      ESP Fit Center  908 is at  -0.043463  7.674435  5.526882
      ESP Fit Center  909 is at  -0.675731  8.544677  5.526882
      ESP Fit Center  910 is at  -1.607295  9.082516  5.526882
      ESP Fit Center  911 is at  -2.677081  9.194955  5.526882
      ESP Fit Center  912 is at  -3.700111  8.862552  5.526882
      ESP Fit Center  913 is at  -4.499496  8.142783  5.526882
      ESP Fit Center  914 is at  -4.937014  7.160102  5.526882
      ESP Fit Center  915 is at  -4.937014  6.084424  5.526882
      ESP Fit Center  916 is at  -4.499496  5.101743  5.526882
      ESP Fit Center  917 is at  -3.700111  4.381974  5.526882
      ESP Fit Center  918 is at   0.204242  7.633740  4.455368
      ESP Fit Center  919 is at  -0.337455  8.508611  4.455368
      ESP Fit Center  920 is at  -1.158613  9.128720  4.455368
      ESP Fit Center  921 is at  -4.787288  8.096273  4.455368
      ESP Fit Center  922 is at  -5.159005  6.107764  4.455368
      ESP Fit Center  923 is at  -4.787288  5.148253  4.455368
      ESP Fit Center  924 is at  -4.094057  4.387815  4.455368
      ESP Fit Center  925 is at  -0.043463  7.674435  3.383854
      ESP Fit Center  926 is at  -3.054935  9.391800  1.405541
      ESP Fit Center  927 is at  -2.498476  9.391529  4.898065
      ESP Fit Center  928 is at  -3.458476  9.391529  4.898065
      ESP Fit Center  929 is at  -1.633268  9.537496  4.195296
      ESP Fit Center  930 is at  -2.464652 10.141532  4.195296
      ESP Fit Center  931 is at  -3.492300 10.141532  4.195296
      ESP Fit Center  932 is at  -4.323684  9.537496  4.195296
      ESP Fit Center  933 is at  -4.641245  8.560145  4.195296
      ESP Fit Center  934 is at  -1.315707  9.520145  3.235296
      ESP Fit Center  935 is at  -2.018476 10.222914  3.235296
      ESP Fit Center  936 is at  -2.978476 10.480145  3.235296
      ESP Fit Center  937 is at  -3.938476 10.222914  3.235296
      ESP Fit Center  938 is at  -4.641245  9.520145  3.235296
      ESP Fit Center  939 is at  -2.464652 10.141532  2.275296
      ESP Fit Center  940 is at  -3.492300 10.141532  2.275296
      ESP Fit Center  941 is at  -4.323684  9.537496  2.275296
      ESP Fit Center  942 is at  -0.544932  8.547115  3.235040
      ESP Fit Center  943 is at  -0.227371  8.529764  2.275040
      ESP Fit Center  944 is at  -0.930140  9.232533  2.275040
      ESP Fit Center  945 is at  -0.227371  7.569764  1.315040
      ESP Fit Center  946 is at  -0.544932  8.547115  1.315040
      ESP Fit Center  947 is at  -1.376316  9.151151  1.315040
      ESP Fit Center  948 is at  -0.930140  7.569764  0.612271
      ESP Fit Center  949 is at  -1.410140  8.401148  0.612271
      ESP Fit Center  950 is at  -2.370140  8.401148  0.612271
      ESP Fit Center  951 is at  -1.410140  6.738380  0.612271
      ESP Fit Center  952 is at  -1.890140  7.569764  0.355040
      ESP Fit Center  953 is at  -5.445405  5.166366  2.655798
      ESP Fit Center  954 is at  -6.094658  8.010929  1.587698
      ESP Fit Center  955 is at  -6.094658  5.980503  1.587698
      ESP Fit Center  956 is at  -5.786935  6.467074  0.625372
      ESP Fit Center  957 is at  -4.507207  6.093906 -0.040577
      ESP Fit Center  958 is at  -5.370714  7.836410  4.400899
      ESP Fit Center  959 is at  -5.850714  7.005026  4.400899
      ESP Fit Center  960 is at  -5.370714  6.173642  4.400899
      ESP Fit Center  961 is at  -5.404538  8.586413  3.698130
      ESP Fit Center  962 is at  -6.235922  7.982377  3.698130
      ESP Fit Center  963 is at  -6.553483  7.005026  3.698130
      ESP Fit Center  964 is at  -6.235922  6.027675  3.698130
      ESP Fit Center  965 is at  -5.404538  5.423639  3.698130
      ESP Fit Center  966 is at  -5.850714  8.667795  2.738130
      ESP Fit Center  967 is at  -6.553483  7.965026  2.738130
      ESP Fit Center  968 is at  -6.810714  7.005026  2.738130
      ESP Fit Center  969 is at  -6.553483  6.045026  2.738130
      ESP Fit Center  970 is at  -5.850714  5.342257  2.738130
      ESP Fit Center  971 is at  -6.235922  7.982377  1.778130
      ESP Fit Center  972 is at  -6.553483  7.005026  1.778130
      ESP Fit Center  973 is at  -6.235922  6.027675  1.778130
      ESP Fit Center  974 is at  -3.208183  9.273881  1.231317
      ESP Fit Center  975 is at  -4.168183  9.531112  1.231317
      ESP Fit Center  976 is at  -5.128183  9.273881  1.231317
      ESP Fit Center  977 is at  -5.830952  8.571112  1.231317
      ESP Fit Center  978 is at  -2.505414  7.611112  0.271317
      ESP Fit Center  979 is at  -2.822975  8.588463  0.271317
      ESP Fit Center  980 is at  -3.654359  9.192499  0.271317
      ESP Fit Center  981 is at  -4.682007  9.192499  0.271317
      ESP Fit Center  982 is at  -5.513391  8.588463  0.271317
      ESP Fit Center  983 is at  -5.830952  7.611112  0.271317
      ESP Fit Center  984 is at  -5.513391  6.633761  0.271317
      ESP Fit Center  985 is at  -3.208183  7.611112 -0.431452
      ESP Fit Center  986 is at  -3.688183  8.442496 -0.431452
      ESP Fit Center  987 is at  -4.648183  8.442496 -0.431452
      ESP Fit Center  988 is at  -5.128183  7.611112 -0.431452
      ESP Fit Center  989 is at  -4.648183  6.779728 -0.431452
      ESP Fit Center  990 is at  -3.688183  6.779728 -0.431452
      ESP Fit Center  991 is at  -4.168183  7.611112 -0.688683
      ESP Fit Center  992 is at  -5.166860  4.989560  2.743391
      ESP Fit Center  993 is at  -4.335476  4.385524  2.743391
      ESP Fit Center  994 is at  -5.484421  5.006911  1.783391
      ESP Fit Center  995 is at  -4.781652  4.304142  1.783391
      ESP Fit Center  996 is at  -3.821652  4.046911  1.783391
      ESP Fit Center  997 is at  -2.158883  5.966911  0.823391
      ESP Fit Center  998 is at  -5.166860  4.989560  0.823391
      ESP Fit Center  999 is at  -4.335476  4.385524  0.823391
      ESP Fit Center 1000 is at  -3.307828  4.385524  0.823391
      ESP Fit Center 1001 is at  -2.476444  4.989560  0.823391
      ESP Fit Center 1002 is at  -2.861652  5.966911  0.120622
      ESP Fit Center 1003 is at  -4.301652  5.135527  0.120622
      ESP Fit Center 1004 is at  -3.341652  5.135527  0.120622
      ESP Fit Center 1005 is at  -3.821652  5.966911 -0.136609
      ESP Fit Center 1006 is at   0.372553 -1.516566 -5.097391
      ESP Fit Center 1007 is at   3.627626  0.915367 -6.130636
      ESP Fit Center 1008 is at   0.578078 -1.516566 -6.130636
      ESP Fit Center 1009 is at   3.865658  0.220093 -7.006579
      ESP Fit Center 1010 is at   2.800847  0.373190 -7.006579
      ESP Fit Center 1011 is at   1.822301 -0.073698 -7.006579
      ESP Fit Center 1012 is at   4.678664 -2.548751 -7.006579
      ESP Fit Center 1013 is at   6.231281 -1.085183 -5.230640
      ESP Fit Center 1014 is at   5.983866 -0.081381 -5.230640
      ESP Fit Center 1015 is at   5.298301  0.692462 -5.230640
      ESP Fit Center 1016 is at   4.331640  1.059068 -5.230640
      ESP Fit Center 1017 is at   5.941896 -1.085183 -6.310640
      ESP Fit Center 1018 is at   5.644942 -0.073852 -6.310640
      ESP Fit Center 1019 is at   4.848363  0.616388 -6.310640
      ESP Fit Center 1020 is at   5.644942 -2.096514 -6.310640
      ESP Fit Center 1021 is at   5.151281 -1.085183 -7.101255
      ESP Fit Center 1022 is at   4.611281 -0.149876 -7.101255
      ESP Fit Center 1023 is at   0.639502 -2.401425 -6.074450
      ESP Fit Center 1024 is at   1.119953 -3.316848 -6.074450
      ESP Fit Center 1025 is at   1.511744 -0.470787 -7.154450
      ESP Fit Center 1026 is at   0.941894 -1.357490 -7.154450
      ESP Fit Center 1027 is at   0.941894 -2.411516 -7.154450
      ESP Fit Center 1028 is at   1.511744 -3.298219 -7.154450
      ESP Fit Center 1029 is at   2.470520 -3.736078 -7.154450
      ESP Fit Center 1030 is at   3.513818 -3.586074 -7.154450
      ESP Fit Center 1031 is at   4.310397 -2.895834 -7.154450
      ESP Fit Center 1032 is at   3.816736 -1.884503 -7.945065
      ESP Fit Center 1033 is at   3.276736 -0.949196 -7.945065
      ESP Fit Center 1034 is at   2.196736 -0.949196 -7.945065
      ESP Fit Center 1035 is at   1.656736 -1.884503 -7.945065
      ESP Fit Center 1036 is at   2.196736 -2.819810 -7.945065
      ESP Fit Center 1037 is at   3.276736 -2.819810 -7.945065
      ESP Fit Center 1038 is at   2.736736 -1.884503 -8.234450
      ESP Fit Center 1039 is at   2.128012  1.132449 -3.696018
      ESP Fit Center 1040 is at   1.169236  0.694590 -3.696018
      ESP Fit Center 1041 is at   0.599386 -0.192113 -3.696018
      ESP Fit Center 1042 is at   0.599386 -1.246139 -3.696018
      ESP Fit Center 1043 is at   2.654587  1.425125 -4.776018
      ESP Fit Center 1044 is at   1.628281  1.300509 -4.776018
      ESP Fit Center 1045 is at   0.777445  0.713219 -4.776018
      ESP Fit Center 1046 is at   0.296994 -0.202204 -4.776018
      ESP Fit Center 1047 is at   0.296994 -1.236048 -4.776018
[...]
 1251 Fit      -0.034511
 1252 Fit      -0.010897
 1253 Fit      -0.016620
 1254 Fit      -0.021348
 1255 Fit      -0.022639
 1256 Fit      -0.022253
 1257 Fit      -0.023308
 1258 Fit      -0.027308
 1259 Fit      -0.028347
 1260 Fit      -0.014900
 1261 Fit      -0.021012
 1262 Fit      -0.022543
 1263 Fit      -0.020541
 1264 Fit      -0.017638
 1265 Fit      -0.016372
 1266 Fit      -0.017554
 1267 Fit      -0.021272
 1268 Fit      -0.014429
 1269 Fit      -0.020820
 1270 Fit      -0.022074
 1271 Fit      -0.018934
 1272 Fit      -0.013813
 1273 Fit      -0.009758
 1274 Fit      -0.007964
 1275 Fit      -0.012859
 1276 Fit      -0.018603
 1277 Fit      -0.018804
 1278 Fit      -0.013908
 1279 Fit      -0.008071
 1280 Fit      -0.013015
 1281 Fit      -0.011240
 1282 Fit      -0.000549
 1283 Fit      -0.004593
 1284 Fit       0.014224
 1285 Fit       0.011046
 1286 Fit       0.006237
 1287 Fit       0.000767
 1288 Fit       0.012878
 1289 Fit       0.010925
 1290 Fit       0.008137
 1291 Fit       0.004839
 1292 Fit       0.001397
 1293 Fit       0.009991
 1294 Fit       0.010679
 1295 Fit       0.009112
 1296 Fit       0.008912
 1297 Fit       0.010763
 1298 Fit      -0.001245
 1299 Fit       0.004493
 1300 Fit      -0.001497
 1301 Fit       0.006143
 1302 Fit      -0.000252
 1303 Fit      -0.000250
 1304 Fit       0.003721
 1305 Fit       0.004759
 1306 Fit       0.009461
 1307 Fit       0.013595
 1308 Fit       0.014618
 1309 Fit       0.014458
 1310 Fit       0.007768
 1311 Fit       0.011201
 1312 Fit       0.012097
 1313 Fit       0.008060
 1314 Fit      -0.001990
 1315 Fit       0.000676
 1316 Fit      -0.000539
 1317 Fit      -0.003006
 1318 Fit      -0.010885
 1319 Fit      -0.012718
 1320 Fit      -0.018175
 1321 Fit      -0.019144
 1322 Fit      -0.014893
 1323 Fit      -0.008427
 1324 Fit      -0.025857
 1325 Fit      -0.028550
 1326 Fit      -0.024869
 1327 Fit      -0.019850
 1328 Fit      -0.017172
 1329 Fit      -0.013327
 1330 Fit      -0.037347
 1331 Fit      -0.030209
 1332 Fit      -0.023680
 1333 Fit      -0.019867
 1334 Fit      -0.017437
 1335 Fit      -0.016283
 1336 Fit      -0.012242
 1337 Fit      -0.027661
 1338 Fit      -0.019942
 1339 Fit      -0.017755
 1340 Fit      -0.015145
 1341 Fit      -0.013290
 1342 Fit      -0.006723
 1343 Fit      -0.010228
 1344 Fit      -0.009763
 1345 Fit      -0.001871
 1346 Fit      -0.006106
 1347 Fit      -0.002608
 1348 Fit      -0.001845
 1349 Fit      -0.001810
 1350 Fit      -0.001306
 1351 Fit       0.002432
 1352 Fit       0.003216
 1353 Fit       0.008378
 1354 Fit       0.004601
 1355 Fit       0.010502
 1356 Fit      -0.004751
 1357 Fit      -0.002924
 1358 Fit      -0.005609
 1359 Fit      -0.004378
 1360 Fit      -0.003583
 1361 Fit      -0.002378
 1362 Fit      -0.005950
 1363 Fit      -0.003197
 1364 Fit      -0.002843
 1365 Fit      -0.007941
 1366 Fit       0.002043
 1367 Fit       0.004724
 1368 Fit      -0.004460
 1369 Fit      -0.003871
 1370 Fit      -0.004159
 1371 Fit      -0.005032
 1372 Fit      -0.007546
 1373 Fit      -0.004641
 1374 Fit      -0.007367
 1375 Fit      -0.012409
 1376 Fit      -0.003615
 1377 Fit      -0.007416
 1378 Fit      -0.016793
 1379 Fit      -0.015862
 1380 Fit      -0.018196
 1381 Fit      -0.017824
 1382 Fit      -0.018284
 1383 Fit      -0.015269
 1384 Fit      -0.012572
 1385 Fit      -0.014714
 1386 Fit      -0.018813
 1387 Fit      -0.018623
 1388 Fit      -0.016071
 1389 Fit      -0.015151
 1390 Fit      -0.017188
 1391 Fit      -0.019586
 1392 Fit      -0.018772
 1393 Fit      -0.013796
 1394 Fit      -0.007692
 1395 Fit      -0.006116
 1396 Fit      -0.009347
 1397 Fit      -0.017477
 1398 Fit      -0.018778
 1399 Fit      -0.015566
 1400 Fit      -0.011048
 1401 Fit      -0.008925
 1402 Fit      -0.010762
 1403 Fit      -0.015028
 1404 Fit      -0.019013
 1405 Fit      -0.020014
 1406 Fit      -0.016554
 1407 Fit      -0.009166
 1408 Fit      -0.013196
 1409 Fit      -0.015743
 1410 Fit      -0.012505
 1411 Fit      -0.006148
 1412 Fit      -0.004448
 1413 Fit      -0.009487
 1414 Fit      -0.014429
 1415 Fit      -0.017337
 1416 Fit      -0.015443
 1417 Fit      -0.009278
 1418 Fit      -0.008926
 1419 Fit      -0.005440
 1420 Fit      -0.009391
 1421 Fit       0.002265
 1422 Fit       0.001747
 1423 Fit       0.004229
 1424 Fit       0.004211
 1425 Fit       0.002196
 1426 Fit       0.004187
 1427 Fit       0.006263
 1428 Fit       0.007031
 1429 Fit       0.006543
 1430 Fit       0.007049
 1431 Fit       0.008044
 1432 Fit       0.008174
 1433 Fit       0.005467
 1434 Fit       0.004930
 1435 Fit       0.009493
 1436 Fit       0.008359
 1437 Fit       0.013206
 1438 Fit       0.010814
 1439 Fit       0.016225
 1440 Fit       0.012448
 1441 Fit       0.005975
 1442 Fit       0.003588
 1443 Fit       0.000730
 1444 Fit       0.002403
 1445 Fit       0.002083
 1446 Fit       0.003661
 1447 Fit       0.006508
 1448 Fit       0.009037
 1449 Fit      -0.004472
 1450 Fit      -0.005989
 1451 Fit       0.003215
 1452 Fit       0.001448
 1453 Fit       0.000735
 1454 Fit      -0.000949
 1455 Fit      -0.004342
 1456 Fit      -0.009953
 1457 Fit       0.002879
 1458 Fit       0.002471
 1459 Fit       0.001564
 1460 Fit       0.000031
 1461 Fit       0.002588
 1462 Fit       0.001978
 1463 Fit       0.008698
 1464 Fit       0.006772
 1465 Fit       0.004861
 1466 Fit       0.010479
 1467 Fit       0.009340
 1468 Fit       0.008301
 1469 Fit       0.006908
 1470 Fit       0.005371
 1471 Fit       0.004186
 1472 Fit       0.009534
 1473 Fit       0.009250
 1474 Fit       0.008198
 1475 Fit       0.006755
 1476 Fit       0.006562
 1477 Fit       0.008359
 1478 Fit       0.008272
 1479 Fit      -0.000641
 1480 Fit       0.003026
 1481 Fit       0.007136
 1482 Fit       0.006294
 1483 Fit       0.010569
 1484 Fit       0.012075
 1485 Fit       0.008311
 1486 Fit       0.012236
 1487 Fit       0.008283
 1488 Fit       0.007556
 1489 Fit       0.007290
 1490 Fit       0.007581
 1491 Fit       0.006240
 1492 Fit       0.005998
 1493 Fit       0.006050
 1494 Fit       0.006513
 1495 Fit       0.011508
 1496 Fit       0.011634
 1497 Fit       0.007196
 1498 Fit       0.006191
 1499 Fit       0.006266
 1500 Fit       0.009730
 1501 Fit       0.014524
 1502 Fit       0.013684
 1503 Fit       0.012273
 1504 Fit       0.010175
 1505 Fit       0.014848
 1506 Fit       0.011592
 1507 Fit       0.010951
 1508 Fit       0.009418
 1509 Fit       0.011445
 1510 Fit       0.009431
 1511 Fit       0.008441
 1512 Fit       0.007455
 1513 Fit       0.008795
 1514 Fit       0.009969
 1515 Fit       0.010726
 1516 Fit       0.006730
 1517 Fit       0.007519
 1518 Fit       0.008555
 1519 Fit       0.009472
 1520 Fit       0.010001
 1521 Fit       0.010108
 1522 Fit       0.009764
 1523 Fit       0.008689
 1524 Fit       0.007831
 1525 Fit       0.007723
 1526 Fit       0.008528
 1527 Fit       0.009336
 1528 Fit       0.009384
 1529 Fit       0.008700
 1530 Fit       0.000904
 1531 Fit       0.001706
 1532 Fit       0.002899
 1533 Fit       0.007357
 1534 Fit       0.005479
 1535 Fit       0.005530
 1536 Fit       0.005834
 1537 Fit       0.005471
 1538 Fit       0.007274
 1539 Fit       0.006604
 1540 Fit       0.006515
 1541 Fit       0.006395
 1542 Fit       0.006207
 1543 Fit       0.006257
 1544 Fit       0.006204
 1545 Fit       0.006155
 1546 Fit      -0.003147
 1547 Fit      -0.001351
 1548 Fit       0.002507
 1549 Fit       0.005990
 1550 Fit       0.008600
 1551 Fit       0.010630
 1552 Fit       0.010335
 1553 Fit      -0.000628
 1554 Fit      -0.000100
 1555 Fit      -0.001036
 1556 Fit      -0.003084
 1557 Fit       0.003738
 1558 Fit       0.004185
 1559 Fit       0.004033
 1560 Fit       0.003454
 1561 Fit       0.002624
 1562 Fit       0.006501
 1563 Fit       0.006620
 1564 Fit       0.006538
 1565 Fit       0.006210
 1566 Fit       0.005889
 1567 Fit       0.008318
 1568 Fit       0.008364
 1569 Fit       0.008255
 1570 Fit       0.003117
 1571 Fit       0.004123
 1572 Fit       0.005571
 1573 Fit       0.007760
 1574 Fit       0.006857
 1575 Fit       0.007717
 1576 Fit       0.009255
 1577 Fit       0.011587
 1578 Fit       0.012950
 1579 Fit       0.008840
 1580 Fit       0.009542
 1581 Fit       0.010966
 1582 Fit       0.010898
 1583 Fit       0.010636
 1584 Fit      -0.016638
 1585 Fit      -0.014696
 1586 Fit      -0.015207
 1587 Fit      -0.011811
 1588 Fit      -0.008187
 1589 Fit      -0.010391
 1590 Fit      -0.011116
 1591 Fit      -0.009417
 1592 Fit       0.002046
 1593 Fit       0.008184
 1594 Fit       0.009894
 1595 Fit       0.008266
 1596 Fit       0.012865
 1597 Fit       0.009342
 1598 Fit       0.010907
 1599 Fit       0.013409
 1600 Fit       0.015446
 1601 Fit       0.010429
 1602 Fit       0.010978
 1603 Fit       0.012009
 1604 Fit       0.014150
 1605 Fit       0.015869
 1606 Fit       0.012923
 1607 Fit       0.013106
 1608 Fit       0.015097
 1609 Fit       0.014576
 1610 Fit      -0.007398
 1611 Fit      -0.001508
 1612 Fit      -0.013216
 1613 Fit      -0.005429
 1614 Fit      -0.001000
 1615 Fit       0.003707
 1616 Fit      -0.008010
 1617 Fit      -0.001730
 1618 Fit       0.001944
 1619 Fit       0.003665
 1620 Fit       0.008119
 1621 Fit      -0.001992
 1622 Fit       0.002579
 1623 Fit       0.005149
 1624 Fit       0.006802
 1625 Fit      -0.000390
 1626 Fit       0.011903
 1627 Fit       0.015643
 1628 Fit       0.013833
 1629 Fit       0.002520
 1630 Fit       0.006723
 1631 Fit       0.007668
 1632 Fit       0.006346
 1633 Fit       0.009063
 1634 Fit       0.009177
 1635 Fit       0.009981
 1636 Fit       0.009405
 1637 Fit       0.010791
 1638 Fit       0.010443
 1639 Fit       0.010573
 1640 Fit       0.011739
 1641 Fit       0.012517
 1642 Fit       0.011754
 1643 Fit       0.011880
 1644 Fit       0.014649
 1645 Fit       0.011663
 1646 Fit       0.012889
 1647 Fit       0.011574
 1648 Fit       0.010507
 1649 Fit       0.008867
 1650 Fit      -0.002996
 1651 Fit      -0.013542
 1652 Fit      -0.010238
 1653 Fit      -0.007267
 1654 Fit      -0.001279
 1655 Fit       0.008636
 1656 Fit       0.007867
 1657 Fit       0.009507
 1658 Fit       0.011296
 1659 Fit       0.007816
 1660 Fit       0.005780
 1661 Fit       0.001774
 1662 Fit       0.010290
 1663 Fit       0.008812
 1664 Fit       0.007255
 1665 Fit       0.004803
 1666 Fit       0.001806
 1667 Fit       0.000427
 1668 Fit       0.009905
 1669 Fit       0.007907
 1670 Fit       0.006848
 1671 Fit       0.003804
 1672 Fit       0.004964
 1673 Fit       0.005809
 1674 Fit       0.006186
 1675 Fit       0.002467
 1676 Fit       0.006763
 1677 Fit       0.007132
 1678 Fit       0.007213
 1679 Fit       0.007536
 1680 Fit       0.005483
 1681 Fit       0.008868
 1682 Fit       0.008437
 1683 Fit       0.008222
 1684 Fit       0.008380
 1685 Fit       0.009621
 1686 Fit       0.009264
 1687 Fit      -0.012049
 1688 Fit      -0.002120
 1689 Fit       0.003234
 1690 Fit       0.003616
 1691 Fit       0.003492
 1692 Fit      -0.000663
 1693 Fit      -0.006221
 1694 Fit       0.005224
 1695 Fit       0.002202
 1696 Fit      -0.002440
 1697 Fit       0.006056
 1698 Fit       0.002732
 1699 Fit      -0.001228
 1700 Fit       0.007219
 1701 Fit       0.003302
 1702 Fit      -0.010681
 1703 Fit      -0.004606
 1704 Fit      -0.008616
 1705 Fit      -0.011322
 1706 Fit      -0.006020
 1707 Fit      -0.000803
 1708 Fit      -0.001002
 1709 Fit      -0.005113
 1710 Fit      -0.002795
 1711 Fit       0.001904
 1712 Fit      -0.009155
 1713 Fit      -0.007597
 1714 Fit      -0.002969
 1715 Fit      -0.003415
 1716 Fit      -0.004502
 1717 Fit      -0.004684
 1718 Fit      -0.007548
 1719 Fit      -0.014517
 1720 Fit      -0.003992
 1721 Fit      -0.000363
 1722 Fit      -0.009877
 1723 Fit      -0.010118
 1724 Fit      -0.007758
 1725 Fit      -0.007173
 1726 Fit      -0.006944
 1727 Fit      -0.005263
 1728 Fit      -0.007258
 1729 Fit      -0.009290
 1730 Fit      -0.011721
 1731 Fit      -0.017113
 1732 Fit      -0.000089
 1733 Fit       0.003783
 1734 Fit      -0.003794
 1735 Fit      -0.004117
 1736 Fit      -0.001866
 1737 Fit      -0.002085
 1738 Fit      -0.002764
 1739 Fit      -0.000325
 1740 Fit       0.000357
 1741 Fit      -0.001635
 1742 Fit       0.000944
 1743 Fit       0.001834
 1744 Fit       0.001438
 1745 Fit      -0.003133
 1746 Fit       0.002876
 1747 Fit       0.000029
 1748 Fit       0.003028
 1749 Fit      -0.000234
 1750 Fit       0.006755
 1751 Fit       0.009264
 1752 Fit       0.007340
 1753 Fit       0.004476
 1754 Fit       0.002343
 1755 Fit       0.003914
 1756 Fit       0.006934
 1757 Fit       0.006431
 1758 Fit       0.005044
 1759 Fit       0.003568
 1760 Fit       0.005645
 1761 Fit      -0.023796
 1762 Fit      -0.028408
 1763 Fit      -0.021340
 1764 Fit      -0.018749
 1765 Fit      -0.020879
 1766 Fit      -0.023408
 1767 Fit      -0.029735
 1768 Fit      -0.011505
 1769 Fit      -0.015072
 1770 Fit      -0.018297
 1771 Fit      -0.019521
 1772 Fit      -0.019725
 1773 Fit      -0.020815
 1774 Fit      -0.023917
 1775 Fit      -0.025890
 1776 Fit      -0.012955
 1777 Fit      -0.017327
 1778 Fit      -0.018794
 1779 Fit      -0.017992
 1780 Fit      -0.016551
 1781 Fit      -0.016077
 1782 Fit      -0.017223
 1783 Fit      -0.020191
 1784 Fit      -0.008204
 1785 Fit      -0.014676
 1786 Fit      -0.017886
 1787 Fit      -0.017983
 1788 Fit      -0.015826
 1789 Fit      -0.013007
 1790 Fit      -0.011066
 1791 Fit      -0.010394
 1792 Fit      -0.007423
 1793 Fit      -0.013393
 1794 Fit      -0.016395
 1795 Fit      -0.016299
 1796 Fit      -0.013652
 1797 Fit      -0.009783
 1798 Fit      -0.006508
 1799 Fit      -0.004966
 1800 Fit      -0.004989
 1801 Fit      -0.010859
 1802 Fit      -0.013229
 1803 Fit      -0.011719
 1804 Fit      -0.006955
 1805 Fit      -0.003816
 1806 Fit      -0.007631
 1807 Fit      -0.006479
 1808 Fit       0.001843
 1809 Fit       0.010581
 1810 Fit       0.004975
 1811 Fit      -0.000945
 1812 Fit       0.011192
 1813 Fit       0.007684
 1814 Fit       0.004023
 1815 Fit      -0.000442
 1816 Fit       0.011035
 1817 Fit       0.009717
 1818 Fit       0.007495
 1819 Fit       0.004986
 1820 Fit       0.002965
 1821 Fit       0.008890
 1822 Fit       0.009405
 1823 Fit       0.008164
 1824 Fit       0.009470
 1825 Fit      -0.003199
 1826 Fit       0.001271
 1827 Fit      -0.004822
 1828 Fit       0.008337
 1829 Fit       0.002575
 1830 Fit       0.000777
 1831 Fit       0.004612
 1832 Fit       0.003641
 1833 Fit       0.007584
 1834 Fit       0.004492
 1835 Fit       0.006004
 1836 Fit       0.008117
 1837 Fit       0.011365
 1838 Fit       0.012421
 1839 Fit       0.012503
 1840 Fit       0.007011
 1841 Fit       0.009771
 1842 Fit       0.010710
 1843 Fit      -0.001348
 1844 Fit       0.001388
 1845 Fit      -0.000244
 1846 Fit      -0.001988
 1847 Fit      -0.009976
 1848 Fit      -0.011363
 1849 Fit      -0.014875
 1850 Fit      -0.015966
 1851 Fit      -0.012625
 1852 Fit      -0.007759
 1853 Fit      -0.020483
 1854 Fit      -0.022916
 1855 Fit      -0.020498
 1856 Fit      -0.016642
 1857 Fit      -0.013848
 1858 Fit      -0.010458
 1859 Fit      -0.020186
 1860 Fit      -0.029574
 1861 Fit      -0.024995
 1862 Fit      -0.020067
 1863 Fit      -0.016590
 1864 Fit      -0.013962
 1865 Fit      -0.012400
 1866 Fit      -0.009226
 1867 Fit      -0.022532
 1868 Fit      -0.017276
 1869 Fit      -0.015058
 1870 Fit      -0.011098
 1871 Fit      -0.011905
 1872 Fit      -0.010736
 1873 Fit      -0.007279
 1874 Fit      -0.008210
 1875 Fit      -0.008862
 1876 Fit      -0.004978
 1877 Fit      -0.005130
 1878 Fit       0.000180
 1879 Fit      -0.002512
 1880 Fit      -0.000204
 1881 Fit      -0.001857
 1882 Fit      -0.001135
 1883 Fit       0.003059
 1884 Fit       0.003491
 1885 Fit       0.008042
 1886 Fit       0.009565
 1887 Fit      -0.005969
 1888 Fit      -0.004323
 1889 Fit      -0.006687
 1890 Fit      -0.005364
 1891 Fit      -0.004287
 1892 Fit      -0.003630
 1893 Fit      -0.007077
 1894 Fit      -0.003548
 1895 Fit      -0.003712
 1896 Fit      -0.008311
 1897 Fit      -0.004796
 1898 Fit      -0.002480
 1899 Fit      -0.005006
 1900 Fit      -0.003502
 1901 Fit      -0.001377
 1902 Fit       0.005113
 1903 Fit      -0.005919
 1904 Fit      -0.005268
 1905 Fit      -0.005495
 1906 Fit      -0.005953
 1907 Fit      -0.005774
 1908 Fit      -0.007608
 1909 Fit      -0.010780
 1910 Fit      -0.006364
 1911 Fit      -0.005846
 1912 Fit      -0.010143
 1913 Fit      -0.014351
 1914 Fit      -0.013614
 1915 Fit      -0.015143
 1916 Fit      -0.015036
 1917 Fit      -0.015257
 1918 Fit      -0.013359
 1919 Fit      -0.011684
 1920 Fit      -0.012653
 1921 Fit      -0.015221
 1922 Fit      -0.015294
 1923 Fit      -0.013899
 1924 Fit      -0.013399
 1925 Fit      -0.014602
 1926 Fit      -0.015971
 1927 Fit      -0.015371
 1928 Fit      -0.012288
 1929 Fit      -0.008681
 1930 Fit      -0.007676
 1931 Fit      -0.009459
 1932 Fit      -0.010082
 1933 Fit      -0.014216
 1934 Fit      -0.015219
 1935 Fit      -0.013390
 1936 Fit      -0.010695
 1937 Fit      -0.009410
 1938 Fit      -0.010524
 1939 Fit      -0.013174
 1940 Fit      -0.015624
 1941 Fit      -0.016151
 1942 Fit      -0.013869
 1943 Fit      -0.009252
 1944 Fit      -0.011177
 1945 Fit      -0.013421
 1946 Fit      -0.011930
 1947 Fit      -0.008331
 1948 Fit      -0.004717
 1949 Fit      -0.003445
 1950 Fit      -0.005091
 1951 Fit      -0.008231
 1952 Fit      -0.011601
 1953 Fit      -0.014211
 1954 Fit      -0.014592
 1955 Fit      -0.012111
 1956 Fit      -0.009466
 1957 Fit      -0.008395
 1958 Fit      -0.004736
 1959 Fit      -0.010898
 1960 Fit      -0.009501
 1961 Fit      -0.003148
 1962 Fit      -0.002229
 1963 Fit      -0.001470
 1964 Fit       0.007031
 1965 Fit       0.007906
 1966 Fit      -0.000906
 1967 Fit       0.001580
 1968 Fit       0.001612
 1969 Fit       0.001203
 1970 Fit       0.003580
 1971 Fit       0.004652
 1972 Fit       0.004594
 1973 Fit       0.003672
 1974 Fit       0.004227
 1975 Fit       0.005529
 1976 Fit       0.006266
 1977 Fit       0.006251
 1978 Fit       0.006773
 1979 Fit       0.007365
 1980 Fit       0.007707
 1981 Fit       0.001298
 1982 Fit       0.001689
 1983 Fit       0.006504
 1984 Fit       0.005710
 1985 Fit       0.008904
 1986 Fit       0.008081
 1987 Fit       0.011780
 1988 Fit       0.009972
 1989 Fit       0.014424
 1990 Fit       0.011427
 1991 Fit       0.003514
 1992 Fit      -0.006281
 1993 Fit       0.003627
 1994 Fit      -0.000696
 1995 Fit       0.003027
 1996 Fit       0.001299
 1997 Fit       0.003185
 1998 Fit       0.002506
 1999 Fit       0.002847
 2000 Fit       0.011850
 2001 Fit       0.004057
 2002 Fit       0.005044
 2003 Fit       0.012970
 2004 Fit       0.006523
 2005 Fit       0.008662
 2006 Fit      -0.008162
 2007 Fit       0.001047
 2008 Fit      -0.000391
 2009 Fit      -0.001248
 2010 Fit      -0.003042
 2011 Fit      -0.006598
 2012 Fit       0.002145
 2013 Fit       0.001508
 2014 Fit       0.000758
 2015 Fit      -0.000535
 2016 Fit      -0.002300
 2017 Fit       0.002340
 2018 Fit       0.001789
 2019 Fit       0.001013
 2020 Fit       0.006646
 2021 Fit       0.007967
 2022 Fit       0.006758
 2023 Fit       0.005434
 2024 Fit       0.004189
 2025 Fit       0.009392
 2026 Fit       0.008350
 2027 Fit       0.007434
 2028 Fit       0.006345
 2029 Fit       0.005215
 2030 Fit       0.004434
 2031 Fit       0.008722
 2032 Fit       0.008219
 2033 Fit       0.007266
 2034 Fit       0.006262
 2035 Fit       0.006417
 2036 Fit       0.008004
 2037 Fit       0.007519
 2038 Fit       0.001782
 2039 Fit       0.004429
 2040 Fit       0.008157
 2041 Fit       0.005992
 2042 Fit       0.009489
 2043 Fit       0.007745
 2044 Fit       0.011012
 Job cpu time:       0 days  0 hours 13 minutes 44.8 seconds.
 Normal termination of Gaussian 16 at Sun Jul  9 09:42:22 2023.
