 Copyright (c) 1988-2019, Gaussian, Inc.  All Rights Reserved.
  
 This is part of the Gaussian(R) 16 program.  It is based on
 the Gaussian(R) 09 system (copyright 2009, Gaussian, Inc.),
 the Gaussian(R) 03 system (copyright 2003, Gaussian, Inc.),
 the Gaussian(R) 98 system (copyright 1998, Gaussian, Inc.),
 the Gaussian(R) 94 system (copyright 1995, Gaussian, Inc.),
 the Gaussian 92(TM) system (copyright 1992, Gaussian, Inc.),
 the Gaussian 90(TM) system (copyright 1990, Gaussian, Inc.),
 the Gaussian 88(TM) system (copyright 1988, Gaussian, Inc.),
 the Gaussian 86(TM) system (copyright 1986, Carnegie Mellon
 University), and the Gaussian 82(TM) system (copyright 1983,
 Carnegie Mellon University). Gaussian is a federally registered
 trademark of Gaussian, Inc.
 Cite this work as:
 Gaussian 16, Revision C.01,
 M. J. Frisch, G. W. Trucks, H. B. Schlegel, G. E. Scuseria, 
 M. A. Robb, J. R. Cheeseman, G. Scalmani, V. Barone, 
 G. A. Petersson, H. Nakatsuji, X. Li, M. Caricato, A. V. Marenich, 
 J. Bloino, B. G. Janesko, R. Gomperts, B. Mennucci, H. P. Hratchian, 
 J. V. Ortiz, A. F. Izmaylov, J. L. Sonnenberg, D. Williams-Young, 
 F. Ding, F. Lipparini, F. Egidi, J. Goings, B. Peng, A. Petrone, 
 T. Henderson, D. Ranasinghe, V. G. Zakrzewski, J. Gao, N. Rega, 
 G. Zheng, W. Liang, M. Hada, M. Ehara, K. Toyota, R. Fukuda, 
 J. Hasegawa, M. Ishida, T. Nakajima, Y. Honda, O. Kitao, H. Nakai, 
 T. Vreven, K. Throssell, J. A. Montgomery, Jr., J. E. Peralta, 
 F. Ogliaro, M. J. Bearpark, J. J. Heyd, E. N. Brothers, K. N. Kudin, 
 V. N. Staroverov, T. A. Keith, R. Kobayashi, J. Normand, 
 K. Raghavachari, A. P. Rendell, J. C. Burant, S. S. Iyengar, 
 J. Tomasi, M. Cossi, J. M. Millam, M. Klene, C. Adamo, R. Cammi, 
 J. W. Ochterski, R. L. Martin, K. Morokuma, O. Farkas, 
 J. B. Foresman, and D. J. Fox, Gaussian, Inc., Wallingford CT, 2019.
 
 ******************************************
 Gaussian 16:  EM64L-G16RevC.01  3-Jul-2019
                 9-Jul-2023 
 ******************************************
 ----------------------------------------------------------------------
 #P B3LYP/6-31G(d) Integral=Ultrafine SCF(Conver=8,XQC,MaxConventionalC
 ycles=64,MaxCycle=128) NoSymm Test Pop=mk IOp(6/33=2) GFInput GFPrint
 ----------------------------------------------------------------------
 1/38=1,172=1/1;
 2/12=2,15=1,17=6,18=5,40=1/2;
 3/5=1,6=6,7=1,11=2,24=110,25=1,30=1,74=-5,75=-5/1,2,3;
 4//1;
 5/5=2,6=8,7=128,8=3,13=1,38=5,85=64/2,8;
 6/7=2,8=2,9=2,10=2,15=8,20=1,28=1,33=2/1,2;
 99/5=1,9=1/99;
 -------------------------------------------------
 MEP step - Input generated by PyRED DVE-DMDS-OPLS
 -------------------------------------------------
 Symbolic Z-matrix:
 Charge =  0 Multiplicity = 1
 C                    -3.44677  -4.78868   4.66782 
 H                    -3.12928  -5.81093   4.43861 
 H                    -2.5791   -4.23761   5.04441 
 H                    -4.20573  -4.82621   5.45719 
 C                    -4.0042   -4.11422   3.42453 
 H                    -4.88503  -4.66264   3.04689 
 H                    -4.33939  -3.09265   3.66708 
 O                    -2.98485  -4.0988    2.43817 
 C                    -3.38263  -3.58468   1.18166 
 H                    -4.3695   -3.98423   0.89129 
 H                    -2.64211  -3.94363   0.45935 
 C                    -3.42857  -2.06259   1.10749 
 H                    -3.87301  -1.76798   0.13984 
 H                    -4.0767   -1.64943   1.89957 
 O                    -2.11445  -1.55963   1.22657 
 C                    -2.05299  -0.14974   1.2078 
 H                    -2.58398   0.27587   2.07775 
 H                    -2.52543   0.25493   0.29717 
 C                    -0.60025   0.28356   1.25248 
 H                    -0.08643  -0.25906   2.06117 
 H                    -0.55832   1.36052   1.48422 
 O                     0.        0.        0. 
 C                     1.41701   0.        0. 
 H                     1.7099   -0.52882  -0.91239 
 H                     1.80947  -0.56689   0.85781 
 C                     2.00607   1.41651   0. 
 H                     1.7643    1.9382    0.93187 
 H                     1.5824    2.0024   -0.82338 
 S                     3.83896   1.44947  -0.0978 
 C                     4.0965    1.07396  -1.88643 
 H                     3.70332   0.08312  -2.12889 
 H                     3.54896   1.81407  -2.48023 
 C                     5.5919    1.12586  -2.19788 
 H                     6.12501   0.3523   -1.6366 
 H                     6.02204   2.08955  -1.90609 
 S                     5.97065   0.79469  -3.9668 
 C                     5.63074   2.43804  -4.72904 
 H                     4.68964   2.8306   -4.33101 
 H                     5.46845   2.23755  -5.79186 
 C                     6.77652   3.43578  -4.55174 
 H                     7.00901   3.59743  -3.49453 
 H                     7.68504   3.04907  -5.02211 
 S                     6.45711   5.05922  -5.35825 
 C                     5.35982   5.88149  -4.12847 
 H                     4.92098   6.71943  -4.68034 
 H                     4.53498   5.20648  -3.87458 
 C                     6.07211   6.38196  -2.87257 
 H                     5.35908   6.88488  -2.20714 
 H                     6.52576   5.56036  -2.30773 
 H                     6.8649    7.09124  -3.12922 
 
 ITRead=  0  0  0  0  0  0  0  0  0  0  0  0  0  0  0  0  0  0  0  0
 ITRead=  0  0  0  0  0  0  0  0  0  0  0  0  0  0  0  0  0  0  0  0
 ITRead=  0  0  0  0  0  0  0  0  0  0
 MicOpt= -1 -1 -1 -1 -1 -1 -1 -1 -1 -1 -1 -1 -1 -1 -1 -1 -1 -1 -1 -1
 MicOpt= -1 -1 -1 -1 -1 -1 -1 -1 -1 -1 -1 -1 -1 -1 -1 -1 -1 -1 -1 -1
 MicOpt= -1 -1 -1 -1 -1 -1 -1 -1 -1 -1
 NAtoms=     50 NQM=       50 NQMF=       0 NMMI=      0 NMMIF=      0
                NMic=       0 NMicF=      0.
                          Input orientation:                          
 ---------------------------------------------------------------------
 Center     Atomic      Atomic             Coordinates (Angstroms)
 Number     Number       Type             X           Y           Z
 ---------------------------------------------------------------------
      1          6           0       -3.446772   -4.788682    4.667824
      2          1           0       -3.129277   -5.810927    4.438611
      3          1           0       -2.579100   -4.237607    5.044406
      4          1           0       -4.205733   -4.826212    5.457186
      5          6           0       -4.004202   -4.114223    3.424532
      6          1           0       -4.885027   -4.662643    3.046891
      7          1           0       -4.339386   -3.092652    3.667077
      8          8           0       -2.984847   -4.098799    2.438171
      9          6           0       -3.382632   -3.584677    1.181660
     10          1           0       -4.369496   -3.984234    0.891288
     11          1           0       -2.642110   -3.943629    0.459350
     12          6           0       -3.428566   -2.062593    1.107487
     13          1           0       -3.873014   -1.767978    0.139844
     14          1           0       -4.076704   -1.649433    1.899573
     15          8           0       -2.114448   -1.559627    1.226568
     16          6           0       -2.052991   -0.149740    1.207796
     17          1           0       -2.583981    0.275867    2.077747
     18          1           0       -2.525427    0.254933    0.297166
     19          6           0       -0.600249    0.283563    1.252478
     20          1           0       -0.086430   -0.259058    2.061169
     21          1           0       -0.558315    1.360517    1.484219
     22          8           0        0.000000    0.000000    0.000000
     23          6           0        1.417010    0.000000    0.000000
     24          1           0        1.709896   -0.528823   -0.912388
     25          1           0        1.809465   -0.566885    0.857809
     26          6           0        2.006071    1.416509    0.000000
     27          1           0        1.764301    1.938198    0.931870
     28          1           0        1.582401    2.002396   -0.823378
     29         16           0        3.838958    1.449472   -0.097801
     30          6           0        4.096497    1.073961   -1.886425
     31          1           0        3.703320    0.083118   -2.128888
     32          1           0        3.548960    1.814070   -2.480234
     33          6           0        5.591901    1.125856   -2.197883
     34          1           0        6.125011    0.352296   -1.636604
     35          1           0        6.022037    2.089555   -1.906091
     36         16           0        5.970653    0.794687   -3.966799
     37          6           0        5.630743    2.438037   -4.729038
     38          1           0        4.689644    2.830595   -4.331007
     39          1           0        5.468446    2.237549   -5.791860
     40          6           0        6.776520    3.435775   -4.551740
     41          1           0        7.009008    3.597429   -3.494526
     42          1           0        7.685040    3.049073   -5.022107
     43         16           0        6.457113    5.059222   -5.358252
     44          6           0        5.359817    5.881494   -4.128472
     45          1           0        4.920975    6.719429   -4.680338
     46          1           0        4.534983    5.206477   -3.874577
     47          6           0        6.072114    6.381956   -2.872569
     48          1           0        5.359076    6.884884   -2.207140
     49          1           0        6.525757    5.560364   -2.307734
     50          1           0        6.864896    7.091245   -3.129217
 ---------------------------------------------------------------------
 Stoichiometry    C14H30O3S3
 Framework group  C1[X(C14H30O3S3)]
 Standard basis: 6-31G(d) (6D, 7F)
   372 basis functions,   752 primitive gaussians,   372 cartesian basis functions
    93 alpha electrons       93 beta electrons
 Requested convergence on RMS density matrix=1.00D-08 within  64 cycles.
 Requested convergence on MAX density matrix=1.00D-06.
 Requested convergence on             energy=1.00D-06.
 SCF Done:  E(RB3LYP) =  -1971.75438550     A.U. after   13 cycles
            NFock= 13  Conv=0.33D-08     -V/T= 2.0058
 Mulliken charges:
     1  C   -0.451292
     2  H    0.158585
     3  H    0.160337
     4  H    0.140138
     5  C   -0.011033
     6  H    0.115776
     7  H    0.119308
     8  O   -0.458689
     9  C   -0.032960
    10  H    0.114888
    11  H    0.159842
    12  C   -0.021852
    13  H    0.118298
    14  H    0.119378
    15  O   -0.459429
    16  C   -0.014761
    17  H    0.116480
    18  H    0.131558
    19  C   -0.031025
    20  H    0.140669
    21  H    0.119716
    22  O   -0.468571
    23  C   -0.012131
    24  H    0.151409
    25  H    0.141856
    26  C   -0.440685
    27  H    0.177839
    28  H    0.175059
    29  S    0.076751
    30  C   -0.393289
    31  H    0.188830
    32  H    0.170165
    33  C   -0.437142
    34  H    0.195861
    35  H    0.183206
    36  S    0.093463
    37  C   -0.413587
    38  H    0.174754
    39  H    0.193619
    40  C   -0.412583
    41  H    0.177284
    42  H    0.192131
    43  S    0.083079
    44  C   -0.411358
    45  H    0.178830
    46  H    0.166298
    47  C   -0.433667
    48  H    0.150683
    49  H    0.152138
    50  H    0.165827
 Sum of Mulliken charges =  -0.00000
 Dipole moment (field-independent basis, Debye):
    X=             -3.4477    Y=              1.8008    Z=              1.7270  Tot=              4.2558
 Quadrupole moment (field-independent basis, Debye-Ang):
   XX=           -151.7658   YY=           -147.2668   ZZ=           -157.9097
   XY=              1.4434   XZ=              6.8969   YZ=              4.7090
 Traceless Quadrupole moment (field-independent basis, Debye-Ang):
   XX=              0.5483   YY=              5.0473   ZZ=             -5.5956
   XY=              1.4434   XZ=              6.8969   YZ=              4.7090
 Octapole moment (field-independent basis, Debye-Ang**2):
  XXX=          -1124.5622  YYY=           -310.7352  ZZZ=            562.3339  XYY=           -348.8110
  XXY=           -194.8472  XXZ=            272.3770  XZZ=           -433.1569  YZZ=           -175.6100
  YYZ=            169.7284  XYZ=             54.5175
 Hexadecapole moment (field-independent basis, Debye-Ang**3):
 XXXX=         -18767.6846 YYYY=          -9175.0393 ZZZZ=          -9129.8375 XXXY=          -5732.2174
 XXXZ=           6269.2590 YYYX=          -5455.0084 YYYZ=           3838.0872 ZZZX=           6164.1534
 ZZZY=           4157.9247 XXYY=          -4782.5945 XXZZ=          -5087.6114 YYZZ=          -3311.3578
 XXYZ=           1594.4284 YYXZ=           2136.5047 ZZXY=          -2207.2461
 Merz-Kollman atomic radii used.
 Atom Element Radius
    1     6    1.50
    2     1    1.20
    3     1    1.20
    4     1    1.20
    5     6    1.50
    6     1    1.20
    7     1    1.20
    8     8    1.40
    9     6    1.50
   10     1    1.20
   11     1    1.20
   12     6    1.50
   13     1    1.20
   14     1    1.20
   15     8    1.40
   16     6    1.50
   17     1    1.20
   18     1    1.20
   19     6    1.50
   20     1    1.20
   21     1    1.20
   22     8    1.40
   23     6    1.50
   24     1    1.20
   25     1    1.20
   26     6    1.50
   27     1    1.20
   28     1    1.20
   29    16    1.75
   30     6    1.50
   31     1    1.20
   32     1    1.20
   33     6    1.50
   34     1    1.20
   35     1    1.20
   36    16    1.75
   37     6    1.50
   38     1    1.20
   39     1    1.20
   40     6    1.50
   41     1    1.20
   42     1    1.20
   43    16    1.75
   44     6    1.50
   45     1    1.20
   46     1    1.20
   47     6    1.50
   48     1    1.20
   49     1    1.20
   50     1    1.20
 Generate VDW surfaces: Layer= 4 Dens= 1 Start= 1.400 Inc= 0.200
            Electrostatic Properties Using The SCF Density.


       Atomic Center    1 is at  -3.446772 -4.788682  4.667824
       Atomic Center    2 is at  -3.129277 -5.810927  4.438611
       Atomic Center    3 is at  -2.579100 -4.237607  5.044406
       Atomic Center    4 is at  -4.205733 -4.826212  5.457186
       Atomic Center    5 is at  -4.004202 -4.114223  3.424532
       Atomic Center    6 is at  -4.885027 -4.662643  3.046891
       Atomic Center    7 is at  -4.339386 -3.092652  3.667077
       Atomic Center    8 is at  -2.984847 -4.098799  2.438171
       Atomic Center    9 is at  -3.382632 -3.584677  1.181660
       Atomic Center   10 is at  -4.369496 -3.984234  0.891288
       Atomic Center   11 is at  -2.642110 -3.943629  0.459350
       Atomic Center   12 is at  -3.428566 -2.062593  1.107487
       Atomic Center   13 is at  -3.873014 -1.767978  0.139844
       Atomic Center   14 is at  -4.076704 -1.649433  1.899573
       Atomic Center   15 is at  -2.114448 -1.559627  1.226568
       Atomic Center   16 is at  -2.052991 -0.149740  1.207796
       Atomic Center   17 is at  -2.583981  0.275867  2.077747
       Atomic Center   18 is at  -2.525427  0.254933  0.297166
       Atomic Center   19 is at  -0.600249  0.283563  1.252478
       Atomic Center   20 is at  -0.086430 -0.259058  2.061169
       Atomic Center   21 is at  -0.558315  1.360517  1.484219
       Atomic Center   22 is at   0.000000  0.000000  0.000000
       Atomic Center   23 is at   1.417010  0.000000  0.000000
       Atomic Center   24 is at   1.709896 -0.528823 -0.912388
       Atomic Center   25 is at   1.809465 -0.566885  0.857809
       Atomic Center   26 is at   2.006071  1.416509  0.000000
       Atomic Center   27 is at   1.764301  1.938198  0.931870
       Atomic Center   28 is at   1.582401  2.002396 -0.823378
       Atomic Center   29 is at   3.838958  1.449472 -0.097801
       Atomic Center   30 is at   4.096497  1.073961 -1.886425
       Atomic Center   31 is at   3.703320  0.083118 -2.128888
       Atomic Center   32 is at   3.548960  1.814070 -2.480234
       Atomic Center   33 is at   5.591901  1.125856 -2.197883
       Atomic Center   34 is at   6.125011  0.352296 -1.636604
       Atomic Center   35 is at   6.022037  2.089555 -1.906091
       Atomic Center   36 is at   5.970653  0.794687 -3.966799
       Atomic Center   37 is at   5.630743  2.438037 -4.729038
       Atomic Center   38 is at   4.689644  2.830595 -4.331007
       Atomic Center   39 is at   5.468446  2.237549 -5.791860
       Atomic Center   40 is at   6.776520  3.435775 -4.551740
       Atomic Center   41 is at   7.009008  3.597429 -3.494526
       Atomic Center   42 is at   7.685040  3.049073 -5.022107
       Atomic Center   43 is at   6.457113  5.059222 -5.358252
       Atomic Center   44 is at   5.359817  5.881494 -4.128472
       Atomic Center   45 is at   4.920975  6.719429 -4.680338
       Atomic Center   46 is at   4.534983  5.206477 -3.874577
       Atomic Center   47 is at   6.072114  6.381956 -2.872569
       Atomic Center   48 is at   5.359076  6.884884 -2.207140
       Atomic Center   49 is at   6.525757  5.560364 -2.307734
       Atomic Center   50 is at   6.864896  7.091245 -3.129217
      ESP Fit Center   51 is at  -2.921772 -5.698009  6.486477
      ESP Fit Center   52 is at  -3.705593 -2.988540  5.717824
      ESP Fit Center   53 is at  -1.916823 -5.771920  5.717824
      ESP Fit Center   54 is at  -5.018645 -6.181240  4.667824
      ESP Fit Center   55 is at  -2.824129 -6.750076  5.797760
      ESP Fit Center   56 is at  -1.531502 -5.810927  4.957760
      ESP Fit Center   57 is at  -3.928164 -7.194641  4.957760
      ESP Fit Center   58 is at  -2.851826 -7.384428  4.957760
      ESP Fit Center   59 is at  -1.905310 -6.837957  4.957760
      ESP Fit Center   60 is at  -1.531502 -5.810927  3.919462
      ESP Fit Center   61 is at  -4.630694 -6.357398  3.919462
      ESP Fit Center   62 is at  -3.928164 -7.194641  3.919462
      ESP Fit Center   63 is at  -2.851826 -7.384428  3.919462
      ESP Fit Center   64 is at  -1.905310 -6.837957  3.919462
      ESP Fit Center   65 is at  -2.141798 -5.810927  3.079462
      ESP Fit Center   66 is at  -3.928164 -6.391353  3.079462
      ESP Fit Center   67 is at  -2.824129 -6.750076  3.079462
      ESP Fit Center   68 is at  -2.579100 -4.237607  6.724406
      ESP Fit Center   69 is at  -1.591621 -4.237607  6.403555
      ESP Fit Center   70 is at  -2.273952 -3.298458  6.403555
      ESP Fit Center   71 is at  -2.273952 -5.176756  6.403555
      ESP Fit Center   72 is at  -0.981325 -4.237607  5.563555
      ESP Fit Center   73 is at  -1.355133 -3.210577  5.563555
      ESP Fit Center   74 is at  -2.301649 -2.664106  5.563555
      ESP Fit Center   75 is at  -3.377987 -2.853893  5.563555
      ESP Fit Center   76 is at  -1.355133 -5.264637  5.563555
      ESP Fit Center   77 is at  -0.981325 -4.237607  4.525257
      ESP Fit Center   78 is at  -1.355133 -3.210577  4.525257
      ESP Fit Center   79 is at  -2.301649 -2.664106  4.525257
      ESP Fit Center   80 is at  -1.355133 -5.264637  4.525257
      ESP Fit Center   81 is at  -4.205733 -4.826212  7.137186
      ESP Fit Center   82 is at  -3.218254 -4.826212  6.816335
      ESP Fit Center   83 is at  -3.900585 -3.887063  6.816335
      ESP Fit Center   84 is at  -5.004620 -4.245786  6.816335
      ESP Fit Center   85 is at  -5.004620 -5.406638  6.816335
      ESP Fit Center   86 is at  -3.900585 -5.765361  6.816335
      ESP Fit Center   87 is at  -5.004620 -3.442498  5.976335
      ESP Fit Center   88 is at  -5.707150 -4.279741  5.976335
      ESP Fit Center   89 is at  -5.707150 -5.372683  5.976335
      ESP Fit Center   90 is at  -5.004620 -6.209926  5.976335
      ESP Fit Center   91 is at  -3.928282 -6.399713  5.976335
      ESP Fit Center   92 is at  -5.707150 -4.279741  4.938037
      ESP Fit Center   93 is at  -5.707150 -5.372683  4.938037
      ESP Fit Center   94 is at  -5.004620 -6.209926  4.938037
      ESP Fit Center   95 is at  -5.749187 -3.601849  4.474532
      ESP Fit Center   96 is at  -2.811266 -2.385957  3.424532
      ESP Fit Center   97 is at  -5.683914 -5.243069  4.406040
      ESP Fit Center   98 is at  -6.386444 -4.116172  3.566040
      ESP Fit Center   99 is at  -6.386444 -5.209114  3.566040
      ESP Fit Center  100 is at  -5.683914 -6.046357  3.566040
      ESP Fit Center  101 is at  -4.607576 -6.236144  3.566040
      ESP Fit Center  102 is at  -6.386444 -4.116172  2.527742
      ESP Fit Center  103 is at  -6.386444 -5.209114  2.527742
      ESP Fit Center  104 is at  -5.683914 -6.046357  2.527742
      ESP Fit Center  105 is at  -4.607576 -6.236144  2.527742
      ESP Fit Center  106 is at  -5.683914 -5.243069  1.687742
      ESP Fit Center  107 is at  -4.579879 -5.601792  1.687742
      ESP Fit Center  108 is at  -4.034238 -2.153503  5.026226
      ESP Fit Center  109 is at  -5.138273 -2.512226  5.026226
      ESP Fit Center  110 is at  -3.115419 -2.065622  4.186226
      ESP Fit Center  111 is at  -4.061935 -1.519151  4.186226
      ESP Fit Center  112 is at  -5.138273 -1.708938  4.186226
      ESP Fit Center  113 is at  -5.840803 -2.546181  4.186226
      ESP Fit Center  114 is at  -5.840803 -2.546181  3.147928
      ESP Fit Center  115 is at  -1.287437 -4.098799  3.418171
      ESP Fit Center  116 is at  -1.611614 -3.101087  3.418171
      ESP Fit Center  117 is at  -2.460319 -2.484466  3.418171
      ESP Fit Center  118 is at  -1.611614 -5.096511  3.418171
      ESP Fit Center  119 is at  -1.024847 -4.098799  2.438171
      ESP Fit Center  120 is at  -1.287437 -3.118799  2.438171
      ESP Fit Center  121 is at  -2.984847 -6.058799  2.438171
      ESP Fit Center  122 is at  -2.004847 -5.796209  2.438171
      ESP Fit Center  123 is at  -1.287437 -5.078799  2.438171
      ESP Fit Center  124 is at  -1.287437 -4.098799  1.458171
      ESP Fit Center  125 is at  -3.509375 -5.713132  1.458171
      ESP Fit Center  126 is at  -2.460319 -5.713132  1.458171
      ESP Fit Center  127 is at  -1.611614 -5.096511  1.458171
      ESP Fit Center  128 is at  -3.129505 -5.669366  1.181660
      ESP Fit Center  129 is at  -3.641453 -5.384819  0.131660
      ESP Fit Center  130 is at  -5.870913 -3.437763  1.410437
      ESP Fit Center  131 is at  -5.870913 -4.530705  1.410437
      ESP Fit Center  132 is at  -5.168383 -5.367948  1.410437
      ESP Fit Center  133 is at  -4.092045 -5.557735  1.410437
      ESP Fit Center  134 is at  -5.870913 -3.437763  0.372139
      ESP Fit Center  135 is at  -5.870913 -4.530705  0.372139
      ESP Fit Center  136 is at  -5.168383 -5.367948  0.372139
      ESP Fit Center  137 is at  -4.092045 -5.557735  0.372139
      ESP Fit Center  138 is at  -5.168383 -3.403808 -0.467861
      ESP Fit Center  139 is at  -5.168383 -4.564660 -0.467861
      ESP Fit Center  140 is at  -4.064348 -4.923383 -0.467861
      ESP Fit Center  141 is at  -4.369496 -3.984234 -0.788712
      ESP Fit Center  142 is at  -1.044335 -3.943629  0.978499
      ESP Fit Center  143 is at  -2.364659 -5.517130  0.978499
      ESP Fit Center  144 is at  -1.418143 -4.970659  0.978499
      ESP Fit Center  145 is at  -1.044335 -3.943629 -0.059799
      ESP Fit Center  146 is at  -1.418143 -2.916599 -0.059799
      ESP Fit Center  147 is at  -3.440997 -5.327343 -0.059799
      ESP Fit Center  148 is at  -2.364659 -5.517130 -0.059799
      ESP Fit Center  149 is at  -1.418143 -4.970659 -0.059799
      ESP Fit Center  150 is at  -1.654631 -3.943629 -0.899799
      ESP Fit Center  151 is at  -2.336962 -3.004480 -0.899799
      ESP Fit Center  152 is at  -3.440997 -4.524055 -0.899799
      ESP Fit Center  153 is at  -2.336962 -4.882778 -0.899799
      ESP Fit Center  154 is at  -2.642110 -3.943629 -1.220650
      ESP Fit Center  155 is at  -4.173236 -0.099059  1.107487
      ESP Fit Center  156 is at  -5.467544 -2.565156  1.107487
      ESP Fit Center  157 is at  -2.378566 -2.062593 -0.711166
      ESP Fit Center  158 is at  -4.671901 -0.384264  0.658993
      ESP Fit Center  159 is at  -5.374431 -1.221507  0.658993
      ESP Fit Center  160 is at  -4.671901 -0.384264 -0.379305
      ESP Fit Center  161 is at  -5.374431 -1.221507 -0.379305
      ESP Fit Center  162 is at  -5.374431 -2.314449 -0.379305
      ESP Fit Center  163 is at  -2.885535 -1.767978 -1.219305
      ESP Fit Center  164 is at  -3.567866 -0.828829 -1.219305
      ESP Fit Center  165 is at  -4.671901 -1.187552 -1.219305
      ESP Fit Center  166 is at  -4.671901 -2.348404 -1.219305
      ESP Fit Center  167 is at  -3.567866 -2.707127 -1.219305
      ESP Fit Center  168 is at  -3.873014 -1.767978 -1.540156
      ESP Fit Center  169 is at  -3.089225 -1.649433  3.258722
      ESP Fit Center  170 is at  -3.771556 -0.710284  3.258722
      ESP Fit Center  171 is at  -4.875591 -1.069007  3.258722
      ESP Fit Center  172 is at  -4.875591 -0.265719  2.418722
      ESP Fit Center  173 is at  -5.578121 -1.102962  2.418722
      ESP Fit Center  174 is at  -5.578121 -2.195904  2.418722
      ESP Fit Center  175 is at  -4.875591 -0.265719  1.380424
      ESP Fit Center  176 is at  -5.578121 -1.102962  1.380424
      ESP Fit Center  177 is at  -5.578121 -2.195904  1.380424
      ESP Fit Center  178 is at  -2.114448 -1.559627  3.186568
      ESP Fit Center  179 is at  -1.134448 -1.559627  2.923978
      ESP Fit Center  180 is at  -1.624448 -2.408332  2.923978
      ESP Fit Center  181 is at  -0.741215 -2.557339  2.206568
      ESP Fit Center  182 is at  -1.134448 -3.257037  1.226568
      ESP Fit Center  183 is at  -0.417038 -2.539627  1.226568
      ESP Fit Center  184 is at  -0.741215 -2.557339  0.246568
      ESP Fit Center  185 is at  -1.134448 -1.559627 -0.470842
      ESP Fit Center  186 is at  -1.624448 -2.408332 -0.470842
      ESP Fit Center  187 is at  -2.114448 -1.559627 -0.733432
      ESP Fit Center  188 is at  -2.797661  1.813794  1.207796
      ESP Fit Center  189 is at  -4.091969  0.352823  1.207796
      ESP Fit Center  190 is at  -2.583981  0.275867  3.757747
      ESP Fit Center  191 is at  -1.596502  0.275867  3.436896
      ESP Fit Center  192 is at  -2.278833  1.215016  3.436896
      ESP Fit Center  193 is at  -3.382868  0.856293  3.436896
      ESP Fit Center  194 is at  -3.382868 -0.304559  3.436896
      ESP Fit Center  195 is at  -2.278833 -0.663282  3.436896
      ESP Fit Center  196 is at  -2.306530  1.849368  2.596896
      ESP Fit Center  197 is at  -3.382868  1.659581  2.596896
      ESP Fit Center  198 is at  -4.085398  0.822338  2.596896
      ESP Fit Center  199 is at  -3.382868  1.659581  1.558598
      ESP Fit Center  200 is at  -4.085398  0.822338  1.558598
      ESP Fit Center  201 is at  -3.324314  1.638647  0.816315
      ESP Fit Center  202 is at  -4.026844  0.801404  0.816315
      ESP Fit Center  203 is at  -2.247976  1.828434 -0.221983
      ESP Fit Center  204 is at  -3.324314  1.638647 -0.221983
      ESP Fit Center  205 is at  -4.026844  0.801404 -0.221983
      ESP Fit Center  206 is at  -2.220279  1.194082 -1.061983
      ESP Fit Center  207 is at  -3.324314  0.835359 -1.061983
      ESP Fit Center  208 is at  -3.324314 -0.325493 -1.061983
      ESP Fit Center  209 is at  -2.220279 -0.684216 -1.061983
      ESP Fit Center  210 is at  -2.525427  0.254933 -1.382834
      ESP Fit Center  211 is at  -1.125249  1.192890  3.071131
      ESP Fit Center  212 is at   0.929700  1.266801  2.302478
      ESP Fit Center  213 is at  -0.086430 -0.259058  3.741169
      ESP Fit Center  214 is at   0.901049 -0.259058  3.420318
      ESP Fit Center  215 is at   0.218718  0.680091  3.420318
      ESP Fit Center  216 is at  -0.885317  0.321368  3.420318
      ESP Fit Center  217 is at  -0.885317 -0.839484  3.420318
      ESP Fit Center  218 is at   0.218718 -1.198207  3.420318
      ESP Fit Center  219 is at   1.511345 -0.259058  2.580318
      ESP Fit Center  220 is at   1.137537  0.767972  2.580318
      ESP Fit Center  221 is at   0.191021 -1.832559  2.580318
      ESP Fit Center  222 is at   1.137537 -1.286088  2.580318
      ESP Fit Center  223 is at   0.191021 -1.832559  1.542020
      ESP Fit Center  224 is at  -0.558315  1.360517  3.164219
      ESP Fit Center  225 is at   0.429164  1.360517  2.843368
      ESP Fit Center  226 is at  -0.253167  2.299666  2.843368
      ESP Fit Center  227 is at  -1.357202  1.940943  2.843368
      ESP Fit Center  228 is at  -0.280864  2.934018  2.003368
      ESP Fit Center  229 is at  -1.357202  2.744231  2.003368
      ESP Fit Center  230 is at  -2.059732  1.906988  2.003368
      ESP Fit Center  231 is at  -0.280864  2.934018  0.965070
      ESP Fit Center  232 is at  -1.357202  2.744231  0.965070
      ESP Fit Center  233 is at  -0.253167  2.299666  0.125070
      ESP Fit Center  234 is at  -1.357202  1.940943  0.125070
      ESP Fit Center  235 is at  -0.000000 -1.960000  0.000000
      ESP Fit Center  236 is at  -0.524528  1.614333 -0.980000
      ESP Fit Center  237 is at  -1.373233  0.997712 -0.980000
      ESP Fit Center  238 is at  -1.373233 -0.997712 -0.980000
      ESP Fit Center  239 is at  -0.524528 -1.614333 -0.980000
      ESP Fit Center  240 is at   0.490000  0.848705 -1.697410
      ESP Fit Center  241 is at  -0.490000  0.848705 -1.697410
      ESP Fit Center  242 is at  -0.980000  0.000000 -1.697410
      ESP Fit Center  243 is at  -0.490000 -0.848705 -1.697410
      ESP Fit Center  244 is at   0.000000  0.000000 -1.960000
      ESP Fit Center  245 is at   0.672340 -1.963534  0.000000
      ESP Fit Center  246 is at   1.670137 -2.084689  0.000000
      ESP Fit Center  247 is at   3.276468 -0.975919  0.000000
      ESP Fit Center  248 is at   1.987347 -2.102324 -0.393239
      ESP Fit Center  249 is at   2.933863 -1.555853 -0.393239
      ESP Fit Center  250 is at   0.911009 -1.912537 -1.431537
      ESP Fit Center  251 is at   1.987347 -2.102324 -1.431537
      ESP Fit Center  252 is at   2.933863 -1.555853 -1.431537
      ESP Fit Center  253 is at   2.015044  0.410326 -2.271537
      ESP Fit Center  254 is at   0.911009  0.051603 -2.271537
      ESP Fit Center  255 is at   0.911009 -1.109249 -2.271537
      ESP Fit Center  256 is at   2.015044 -1.467972 -2.271537
      ESP Fit Center  257 is at   1.709896 -0.528823 -2.592388
      ESP Fit Center  258 is at   1.809465 -0.566885  2.537809
      ESP Fit Center  259 is at   2.796944 -0.566885  2.216958
      ESP Fit Center  260 is at   2.114613  0.372264  2.216958
      ESP Fit Center  261 is at   2.114613 -1.506034  2.216958
      ESP Fit Center  262 is at   3.407240 -0.566885  1.376958
      ESP Fit Center  263 is at   1.010578 -1.950599  1.376958
      ESP Fit Center  264 is at   2.086916 -2.140386  1.376958
      ESP Fit Center  265 is at   3.033432 -1.593915  1.376958
      ESP Fit Center  266 is at   2.086916 -2.140386  0.338660
      ESP Fit Center  267 is at   3.033432 -1.593915  0.338660
      ESP Fit Center  268 is at   2.259198  3.501198  0.000000
      ESP Fit Center  269 is at   1.764301  1.938198  2.611870
      ESP Fit Center  270 is at   2.751780  1.938198  2.291019
      ESP Fit Center  271 is at   2.069449  2.877347  2.291019
      ESP Fit Center  272 is at   0.965414  2.518624  2.291019
      ESP Fit Center  273 is at   0.965414  1.357772  2.291019
      ESP Fit Center  274 is at   2.069449  0.999049  2.291019
      ESP Fit Center  275 is at   2.041752  3.511699  1.451019
      ESP Fit Center  276 is at   0.965414  3.321912  1.451019
      ESP Fit Center  277 is at   2.041752  3.511699  0.412721
      ESP Fit Center  278 is at   0.965414  3.321912  0.412721
      ESP Fit Center  279 is at   1.859852  3.575897 -0.304229
      ESP Fit Center  280 is at   0.783514  3.386110 -0.304229
      ESP Fit Center  281 is at   0.080984  2.548867 -0.304229
      ESP Fit Center  282 is at   1.859852  3.575897 -1.342527
      ESP Fit Center  283 is at   0.783514  3.386110 -1.342527
      ESP Fit Center  284 is at   0.080984  2.548867 -1.342527
      ESP Fit Center  285 is at   0.080984  1.455925 -1.342527
      ESP Fit Center  286 is at   1.887549  2.941545 -2.182527
      ESP Fit Center  287 is at   0.783514  2.582822 -2.182527
      ESP Fit Center  288 is at   0.783514  1.421970 -2.182527
      ESP Fit Center  289 is at   1.887549  1.063247 -2.182527
      ESP Fit Center  290 is at   1.582401  2.002396 -2.503378
      ESP Fit Center  291 is at   3.838958  1.449472  2.352199
      ESP Fit Center  292 is at   4.901973  1.449472  2.109573
      ESP Fit Center  293 is at   4.370466  2.370070  2.109573
      ESP Fit Center  294 is at   3.307450  2.370070  2.109573
      ESP Fit Center  295 is at   3.307450  0.528874  2.109573
      ESP Fit Center  296 is at   4.370466  0.528874  2.109573
      ESP Fit Center  297 is at   5.754445  1.449472  1.429749
      ESP Fit Center  298 is at   5.450368  2.485063  1.429749
      ESP Fit Center  299 is at   4.634680  3.191860  1.429749
      ESP Fit Center  300 is at   3.566356  3.345462  1.429749
      ESP Fit Center  301 is at   3.566356 -0.446518  1.429749
      ESP Fit Center  302 is at   4.634680 -0.292916  1.429749
      ESP Fit Center  303 is at   5.450368  0.413881  1.429749
      ESP Fit Center  304 is at   6.227531  1.449472  0.447375
      ESP Fit Center  305 is at   5.990988  2.485835  0.447375
      ESP Fit Center  306 is at   5.328209  3.316934  0.447375
      ESP Fit Center  307 is at   4.370466  3.778159  0.447375
      ESP Fit Center  308 is at   3.307450  3.778159  0.447375
      ESP Fit Center  309 is at   4.370466 -0.879215  0.447375
      ESP Fit Center  310 is at   5.328209 -0.417990  0.447375
      ESP Fit Center  311 is at   5.990988  0.413109  0.447375
      ESP Fit Center  312 is at   5.328209  3.316934 -0.642977
      ESP Fit Center  313 is at   4.370466  3.778159 -0.642977
      ESP Fit Center  314 is at   3.307450  3.778159 -0.642977
      ESP Fit Center  315 is at   4.370466 -0.879215 -0.642977
      ESP Fit Center  316 is at   4.634680  3.191860 -1.625351
      ESP Fit Center  317 is at   3.566356  3.345462 -1.625351
      ESP Fit Center  318 is at   3.980771 -1.490383 -1.609739
      ESP Fit Center  319 is at   4.927287 -0.943912 -1.609739
      ESP Fit Center  320 is at   2.201903 -0.463353 -2.648037
      ESP Fit Center  321 is at   2.904433 -1.300596 -2.648037
      ESP Fit Center  322 is at   3.980771 -1.490383 -2.648037
      ESP Fit Center  323 is at   2.904433 -0.497308 -3.488037
      ESP Fit Center  324 is at   4.008468 -0.856031 -3.488037
      ESP Fit Center  325 is at   3.826411  3.387571 -1.961085
      ESP Fit Center  326 is at   2.750073  3.197784 -1.961085
      ESP Fit Center  327 is at   3.826411  3.387571 -2.999383
      ESP Fit Center  328 is at   2.750073  3.197784 -2.999383
      ESP Fit Center  329 is at   2.047543  2.360541 -2.999383
      ESP Fit Center  330 is at   2.047543  1.267599 -2.999383
      ESP Fit Center  331 is at   2.750073  2.394496 -3.839383
      ESP Fit Center  332 is at   2.750073  1.233644 -3.839383
      ESP Fit Center  333 is at   7.691901  1.125856 -2.197883
      ESP Fit Center  334 is at   6.125011  0.352296  0.043396
      ESP Fit Center  335 is at   7.112490  0.352296 -0.277455
      ESP Fit Center  336 is at   6.430159  1.291445 -0.277455
      ESP Fit Center  337 is at   6.430159 -0.586853 -0.277455
      ESP Fit Center  338 is at   7.722786  0.352296 -1.117455
      ESP Fit Center  339 is at   5.326124 -1.031418 -1.117455
      ESP Fit Center  340 is at   6.402462 -1.221205 -1.117455
      ESP Fit Center  341 is at   7.348978 -0.674734 -1.117455
      ESP Fit Center  342 is at   7.722786  0.352296 -2.155753
      ESP Fit Center  343 is at   5.326124 -1.031418 -2.155753
      ESP Fit Center  344 is at   6.402462 -1.221205 -2.155753
      ESP Fit Center  345 is at   7.348978 -0.674734 -2.155753
      ESP Fit Center  346 is at   7.009516  2.089555 -0.546942
      ESP Fit Center  347 is at   6.327185  3.028704 -0.546942
      ESP Fit Center  348 is at   7.619812  2.089555 -1.386942
      ESP Fit Center  349 is at   7.246004  3.116585 -1.386942
      ESP Fit Center  350 is at   6.299488  3.663056 -1.386942
      ESP Fit Center  351 is at   5.223150  3.473269 -1.386942
      ESP Fit Center  352 is at   7.619812  2.089555 -2.425240
      ESP Fit Center  353 is at   5.223150  3.473269 -2.425240
      ESP Fit Center  354 is at   7.886140  0.794687 -2.439249
      ESP Fit Center  355 is at   5.698051 -1.101303 -2.439249
      ESP Fit Center  356 is at   7.582063 -0.240904 -2.439249
      ESP Fit Center  357 is at   8.359226  0.794687 -3.421623
      ESP Fit Center  358 is at   8.122683  1.831050 -3.421623
      ESP Fit Center  359 is at   4.481402 -1.072775 -3.421623
      ESP Fit Center  360 is at   5.439145 -1.534000 -3.421623
      ESP Fit Center  361 is at   6.502161 -1.534000 -3.421623
      ESP Fit Center  362 is at   7.459904 -1.072775 -3.421623
      ESP Fit Center  363 is at   8.122683 -0.241676 -3.421623
      ESP Fit Center  364 is at   8.359226  0.794687 -4.511975
      ESP Fit Center  365 is at   3.582080  0.794687 -4.511975
      ESP Fit Center  366 is at   3.818623 -0.241676 -4.511975
      ESP Fit Center  367 is at   4.481402 -1.072775 -4.511975
      ESP Fit Center  368 is at   5.439145 -1.534000 -4.511975
      ESP Fit Center  369 is at   6.502161 -1.534000 -4.511975
      ESP Fit Center  370 is at   7.459904 -1.072775 -4.511975
      ESP Fit Center  371 is at   8.122683 -0.241676 -4.511975
      ESP Fit Center  372 is at   7.886140  0.794687 -5.494349
      ESP Fit Center  373 is at   4.132757  0.255032 -5.494349
      ESP Fit Center  374 is at   4.716276 -0.652942 -5.494349
      ESP Fit Center  375 is at   5.698051 -1.101303 -5.494349
      ESP Fit Center  376 is at   6.766375 -0.947701 -5.494349
      ESP Fit Center  377 is at   7.582063 -0.240904 -5.494349
      ESP Fit Center  378 is at   7.033668  0.794687 -6.174173
      ESP Fit Center  379 is at   5.439145 -0.125911 -6.174173
      ESP Fit Center  380 is at   6.502161 -0.125911 -6.174173
      ESP Fit Center  381 is at   4.994792  3.769744 -2.971858
      ESP Fit Center  382 is at   3.890757  3.411021 -2.971858
      ESP Fit Center  383 is at   3.188227  3.377066 -3.811858
      ESP Fit Center  384 is at   3.188227  3.377066 -4.850156
      ESP Fit Center  385 is at   3.188227  2.284124 -4.850156
      ESP Fit Center  386 is at   3.890757  3.411021 -5.690156
      ESP Fit Center  387 is at   4.669559  3.621263 -6.311009
      ESP Fit Center  388 is at   3.967029  2.784020 -6.311009
      ESP Fit Center  389 is at   3.967029  1.691078 -6.311009
      ESP Fit Center  390 is at   4.669559  0.853835 -6.311009
      ESP Fit Center  391 is at   6.692413  1.210519 -6.311009
      ESP Fit Center  392 is at   6.455925  2.237549 -7.151009
      ESP Fit Center  393 is at   5.773594  3.176698 -7.151009
      ESP Fit Center  394 is at   4.669559  2.817975 -7.151009
      ESP Fit Center  395 is at   4.669559  1.657123 -7.151009
      ESP Fit Center  396 is at   5.773594  1.298400 -7.151009
      ESP Fit Center  397 is at   5.468446  2.237549 -7.471860
      ESP Fit Center  398 is at   8.306469  2.452537 -3.501740
      ESP Fit Center  399 is at   7.009008  3.597429 -1.814526
      ESP Fit Center  400 is at   7.996487  3.597429 -2.135377
      ESP Fit Center  401 is at   8.606783  3.597429 -2.975377
      ESP Fit Center  402 is at   8.232975  4.624459 -2.975377
      ESP Fit Center  403 is at   8.232975  2.570399 -2.975377
      ESP Fit Center  404 is at   8.672519  3.049073 -3.662958
      ESP Fit Center  405 is at   9.282815  3.049073 -4.502958
      ESP Fit Center  406 is at   8.909007  4.076103 -4.502958
      ESP Fit Center  407 is at   8.909007  2.022043 -4.502958
      ESP Fit Center  408 is at   9.282815  3.049073 -5.541256
      ESP Fit Center  409 is at   8.909007  4.076103 -5.541256
      ESP Fit Center  410 is at   7.962491  1.475572 -5.541256
      ESP Fit Center  411 is at   8.909007  2.022043 -5.541256
      ESP Fit Center  412 is at   8.672519  3.049073 -6.381256
      ESP Fit Center  413 is at   7.990188  2.109924 -6.381256
      ESP Fit Center  414 is at   7.685040  3.049073 -6.702107
      ESP Fit Center  415 is at   8.372600  5.059222 -3.830702
      ESP Fit Center  416 is at   8.068523  6.094813 -3.830702
      ESP Fit Center  417 is at   8.845686  5.059222 -4.813076
      ESP Fit Center  418 is at   8.609143  6.095585 -4.813076
      ESP Fit Center  419 is at   7.946364  6.926684 -4.813076
      ESP Fit Center  420 is at   6.988621  7.387909 -4.813076
      ESP Fit Center  421 is at   8.845686  5.059222 -5.903428
      ESP Fit Center  422 is at   8.609143  6.095585 -5.903428
      ESP Fit Center  423 is at   7.946364  6.926684 -5.903428
      ESP Fit Center  424 is at   6.988621  7.387909 -5.903428
      ESP Fit Center  425 is at   5.925605  7.387909 -5.903428
      ESP Fit Center  426 is at   4.068540  5.059222 -5.903428
      ESP Fit Center  427 is at   4.305083  4.022859 -5.903428
      ESP Fit Center  428 is at   8.372600  5.059222 -6.885802
      ESP Fit Center  429 is at   8.068523  6.094813 -6.885802
      ESP Fit Center  430 is at   7.252835  6.801610 -6.885802
      ESP Fit Center  431 is at   6.184511  6.955212 -6.885802
      ESP Fit Center  432 is at   5.202736  6.506851 -6.885802
      ESP Fit Center  433 is at   4.619217  5.598877 -6.885802
      ESP Fit Center  434 is at   4.619217  4.519567 -6.885802
      ESP Fit Center  435 is at   5.202736  3.611593 -6.885802
      ESP Fit Center  436 is at   7.252835  3.316834 -6.885802
      ESP Fit Center  437 is at   8.068523  4.023631 -6.885802
      ESP Fit Center  438 is at   7.520128  5.059222 -7.565626
      ESP Fit Center  439 is at   6.988621  5.979820 -7.565626
      ESP Fit Center  440 is at   5.925605  5.979820 -7.565626
      ESP Fit Center  441 is at   5.394098  5.059222 -7.565626
      ESP Fit Center  442 is at   5.925605  4.138624 -7.565626
      ESP Fit Center  443 is at   6.988621  4.138624 -7.565626
      ESP Fit Center  444 is at   6.457113  5.059222 -7.808252
      ESP Fit Center  445 is at   3.614832  6.393868 -3.078472
      ESP Fit Center  446 is at   3.320839  6.384057 -4.128472
      ESP Fit Center  447 is at   5.198426  8.292930 -4.161189
      ESP Fit Center  448 is at   4.122088  8.103143 -4.161189
      ESP Fit Center  449 is at   3.419558  7.265900 -4.161189
      ESP Fit Center  450 is at   6.144942  7.746459 -5.199487
      ESP Fit Center  451 is at   5.198426  8.292930 -5.199487
      ESP Fit Center  452 is at   4.122088  8.103143 -5.199487
      ESP Fit Center  453 is at   3.419558  7.265900 -5.199487
      ESP Fit Center  454 is at   3.419558  6.172958 -5.199487
      ESP Fit Center  455 is at   5.226123  7.658578 -6.039487
      ESP Fit Center  456 is at   4.122088  7.299855 -6.039487
      ESP Fit Center  457 is at   4.122088  6.139003 -6.039487
      ESP Fit Center  458 is at   4.920975  6.719429 -6.360338
      ESP Fit Center  459 is at   3.736096  5.786903 -2.515428
      ESP Fit Center  460 is at   3.736096  4.626051 -2.515428
      ESP Fit Center  461 is at   4.840131  4.267328 -2.515428
      ESP Fit Center  462 is at   3.033566  5.752948 -3.355428
      ESP Fit Center  463 is at   3.033566  4.660006 -3.355428
      ESP Fit Center  464 is at   3.736096  3.822763 -3.355428
      ESP Fit Center  465 is at   3.033566  5.752948 -4.393726
      ESP Fit Center  466 is at   3.033566  4.660006 -4.393726
      ESP Fit Center  467 is at   3.736096  4.626051 -5.233726
      ESP Fit Center  468 is at   6.597114  7.291283 -1.053916
      ESP Fit Center  469 is at   4.881149  5.007510 -1.822569
      ESP Fit Center  470 is at   5.813293  8.182098 -3.922569
      ESP Fit Center  471 is at   5.359076  6.884884 -0.527140
      ESP Fit Center  472 is at   6.346555  6.884884 -0.847991
      ESP Fit Center  473 is at   5.664224  7.824033 -0.847991
      ESP Fit Center  474 is at   4.560189  7.465310 -0.847991
      ESP Fit Center  475 is at   4.560189  6.304458 -0.847991
      ESP Fit Center  476 is at   5.664224  5.945735 -0.847991
      ESP Fit Center  477 is at   5.636527  8.458385 -1.687991
      ESP Fit Center  478 is at   4.560189  8.268598 -1.687991
      ESP Fit Center  479 is at   3.857659  7.431355 -1.687991
      ESP Fit Center  480 is at   3.857659  6.338413 -1.687991
      ESP Fit Center  481 is at   4.560189  5.501170 -1.687991
      ESP Fit Center  482 is at   5.636527  8.458385 -2.726289
      ESP Fit Center  483 is at   4.560189  8.268598 -2.726289
      ESP Fit Center  484 is at   3.857659  7.431355 -2.726289
      ESP Fit Center  485 is at   3.857659  6.338413 -2.726289
      ESP Fit Center  486 is at   6.525757  5.560364 -0.627734
      ESP Fit Center  487 is at   7.513236  5.560364 -0.948585
      ESP Fit Center  488 is at   5.726870  4.979938 -0.948585
      ESP Fit Center  489 is at   6.830905  4.621215 -0.948585
      ESP Fit Center  490 is at   8.123532  5.560364 -1.788585
      ESP Fit Center  491 is at   5.726870  4.176650 -1.788585
      ESP Fit Center  492 is at   6.803208  3.986863 -1.788585
      ESP Fit Center  493 is at   7.749724  4.533334 -1.788585
      ESP Fit Center  494 is at   8.123532  5.560364 -2.826883
      ESP Fit Center  495 is at   7.852375  7.091245 -1.770068
      ESP Fit Center  496 is at   7.170044  8.030394 -1.770068
      ESP Fit Center  497 is at   8.462671  7.091245 -2.610068
      ESP Fit Center  498 is at   8.088863  8.118275 -2.610068
      ESP Fit Center  499 is at   7.142347  8.664746 -2.610068
      ESP Fit Center  500 is at   6.066009  8.474959 -2.610068
      ESP Fit Center  501 is at   8.462671  7.091245 -3.648366
      ESP Fit Center  502 is at   8.088863  8.118275 -3.648366
      ESP Fit Center  503 is at   7.142347  8.664746 -3.648366
      ESP Fit Center  504 is at   6.066009  8.474959 -3.648366
      ESP Fit Center  505 is at   8.088863  6.064215 -3.648366
      ESP Fit Center  506 is at   7.852375  7.091245 -4.488366
      ESP Fit Center  507 is at   7.170044  8.030394 -4.488366
      ESP Fit Center  508 is at  -2.926112 -5.690492  6.830149
      ESP Fit Center  509 is at  -3.713811 -2.931385  6.164200
      ESP Fit Center  510 is at  -3.713811 -6.645979  6.164200
      ESP Fit Center  511 is at  -1.868248 -5.803138  6.164200
      ESP Fit Center  512 is at  -4.905630 -6.618032  5.201874
      ESP Fit Center  513 is at  -1.338661 -5.803895  5.201874
      ESP Fit Center  514 is at  -4.905630 -6.618032  4.133774
      ESP Fit Center  515 is at  -2.649277 -6.642311  6.101380
      ESP Fit Center  516 is at  -3.643101 -7.392314  5.398611
      ESP Fit Center  517 is at  -2.615453 -7.392314  5.398611
      ESP Fit Center  518 is at  -1.784069 -6.788278  5.398611
      ESP Fit Center  519 is at  -1.209277 -5.810927  4.438611
      ESP Fit Center  520 is at  -4.792046 -6.770927  4.438611
      ESP Fit Center  521 is at  -4.089277 -7.473696  4.438611
      ESP Fit Center  522 is at  -3.129277 -7.730927  4.438611
      ESP Fit Center  523 is at  -2.169277 -7.473696  4.438611
      ESP Fit Center  524 is at  -1.466508 -6.770927  4.438611
      ESP Fit Center  525 is at  -1.466508 -5.810927  3.478611
      ESP Fit Center  526 is at  -4.474485 -6.788278  3.478611
      ESP Fit Center  527 is at  -3.643101 -7.392314  3.478611
      ESP Fit Center  528 is at  -2.615453 -7.392314  3.478611
      ESP Fit Center  529 is at  -1.784069 -6.788278  3.478611
      ESP Fit Center  530 is at  -3.609277 -6.642311  2.775842
      ESP Fit Center  531 is at  -2.649277 -6.642311  2.775842
      ESP Fit Center  532 is at  -2.579100 -4.237607  6.964406
      ESP Fit Center  533 is at  -1.619100 -4.237607  6.707175
      ESP Fit Center  534 is at  -2.099100 -3.406223  6.707175
      ESP Fit Center  535 is at  -3.059100 -3.406223  6.707175
      ESP Fit Center  536 is at  -2.099100 -5.068991  6.707175
      ESP Fit Center  537 is at  -0.916331 -4.237607  6.004406
      ESP Fit Center  538 is at  -1.233892 -3.260256  6.004406
      ESP Fit Center  539 is at  -2.065276 -2.656220  6.004406
      ESP Fit Center  540 is at  -3.092924 -2.656220  6.004406
      ESP Fit Center  541 is at  -1.233892 -5.214958  6.004406
      ESP Fit Center  542 is at  -0.659100 -4.237607  5.044406
      ESP Fit Center  543 is at  -0.916331 -3.277607  5.044406
      ESP Fit Center  544 is at  -1.619100 -2.574838  5.044406
      ESP Fit Center  545 is at  -2.579100 -2.317607  5.044406
      ESP Fit Center  546 is at  -0.916331 -5.197607  5.044406
      ESP Fit Center  547 is at  -0.916331 -4.237607  4.084406
      ESP Fit Center  548 is at  -1.233892 -3.260256  4.084406
      ESP Fit Center  549 is at  -2.065276 -2.656220  4.084406
      ESP Fit Center  550 is at  -4.205733 -4.826212  7.377186
      ESP Fit Center  551 is at  -3.245733 -4.826212  7.119955
      ESP Fit Center  552 is at  -3.725733 -3.994828  7.119955
      ESP Fit Center  553 is at  -4.685733 -3.994828  7.119955
      ESP Fit Center  554 is at  -5.165733 -4.826212  7.119955
      ESP Fit Center  555 is at  -4.685733 -5.657596  7.119955
      ESP Fit Center  556 is at  -3.725733 -5.657596  7.119955
      ESP Fit Center  557 is at  -4.719557 -3.244825  6.417186
      ESP Fit Center  558 is at  -5.550941 -3.848861  6.417186
      ESP Fit Center  559 is at  -5.868502 -4.826212  6.417186
      ESP Fit Center  560 is at  -5.550941 -5.803563  6.417186
      ESP Fit Center  561 is at  -4.719557 -6.407599  6.417186
      ESP Fit Center  562 is at  -5.165733 -3.163443  5.457186
      ESP Fit Center  563 is at  -5.868502 -3.866212  5.457186
      ESP Fit Center  564 is at  -6.125733 -4.826212  5.457186
      ESP Fit Center  565 is at  -5.868502 -5.786212  5.457186
      ESP Fit Center  566 is at  -5.165733 -6.488981  5.457186
      ESP Fit Center  567 is at  -5.804590 -3.585581  4.920908
      ESP Fit Center  568 is at  -2.545344 -2.284873  3.958582
      ESP Fit Center  569 is at  -6.112313 -3.099010  2.890482
      ESP Fit Center  570 is at  -6.547796 -4.662643  4.006891
      ESP Fit Center  571 is at  -6.230235 -5.639994  4.006891
      ESP Fit Center  572 is at  -5.398851 -6.244030  4.006891
      ESP Fit Center  573 is at  -6.547796 -3.702643  3.046891
      ESP Fit Center  574 is at  -6.805027 -4.662643  3.046891
      ESP Fit Center  575 is at  -6.547796 -5.622643  3.046891
      ESP Fit Center  576 is at  -5.845027 -6.325412  3.046891
      ESP Fit Center  577 is at  -4.885027 -6.582643  3.046891
      ESP Fit Center  578 is at  -6.230235 -3.685292  2.086891
      ESP Fit Center  579 is at  -6.547796 -4.662643  2.086891
      ESP Fit Center  580 is at  -6.230235 -5.639994  2.086891
      ESP Fit Center  581 is at  -5.398851 -6.244030  2.086891
      ESP Fit Center  582 is at  -4.371203 -6.244030  2.086891
      ESP Fit Center  583 is at  -3.859386 -2.261268  5.329846
      ESP Fit Center  584 is at  -4.819386 -2.261268  5.329846
      ESP Fit Center  585 is at  -5.299386 -3.092652  5.329846
      ESP Fit Center  586 is at  -2.994178 -2.115301  4.627077
      ESP Fit Center  587 is at  -3.825562 -1.511265  4.627077
      ESP Fit Center  588 is at  -4.853210 -1.511265  4.627077
      ESP Fit Center  589 is at  -5.684594 -2.115301  4.627077
      ESP Fit Center  590 is at  -6.002155 -3.092652  4.627077
      ESP Fit Center  591 is at  -5.299386 -1.429883  3.667077
      ESP Fit Center  592 is at  -6.002155 -2.132652  3.667077
      ESP Fit Center  593 is at  -6.259386 -3.092652  3.667077
      ESP Fit Center  594 is at  -1.568013 -3.069409  3.834788
      ESP Fit Center  595 is at  -0.801008 -4.098799  2.936618
      ESP Fit Center  596 is at  -1.051154 -3.083919  2.936618
      ESP Fit Center  597 is at  -1.744285 -5.896063  2.936618
      ESP Fit Center  598 is at  -1.051154 -5.113679  2.936618
      ESP Fit Center  599 is at  -0.801008 -4.098799  1.939724
      ESP Fit Center  600 is at  -3.759247 -6.140723  1.939724
      ESP Fit Center  601 is at  -2.721614 -6.266715  1.939724
      ESP Fit Center  602 is at  -1.744285 -5.896063  1.939724
      ESP Fit Center  603 is at  -1.051154 -5.113679  1.939724
      ESP Fit Center  604 is at  -3.903292 -5.865840  0.647610
      ESP Fit Center  605 is at  -2.861972 -5.865840  0.647610
      ESP Fit Center  606 is at  -3.649671 -5.441974 -0.314716
      ESP Fit Center  607 is at  -3.903292 -4.486487 -0.980665
      ESP Fit Center  608 is at  -5.714704 -3.006883  1.851288
      ESP Fit Center  609 is at  -6.032265 -3.024234  0.891288
      ESP Fit Center  610 is at  -6.289496 -3.984234  0.891288
      ESP Fit Center  611 is at  -6.032265 -4.944234  0.891288
      ESP Fit Center  612 is at  -5.329496 -5.647003  0.891288
      ESP Fit Center  613 is at  -4.369496 -5.904234  0.891288
      ESP Fit Center  614 is at  -5.714704 -3.006883 -0.068712
      ESP Fit Center  615 is at  -6.032265 -3.984234 -0.068712
      ESP Fit Center  616 is at  -5.714704 -4.961585 -0.068712
      ESP Fit Center  617 is at  -4.883320 -5.565621 -0.068712
      ESP Fit Center  618 is at  -4.849496 -3.152850 -0.771481
      ESP Fit Center  619 is at  -5.329496 -3.984234 -0.771481
      ESP Fit Center  620 is at  -4.849496 -4.815618 -0.771481
      ESP Fit Center  621 is at  -4.369496 -3.984234 -1.028712
      ESP Fit Center  622 is at  -0.979341 -3.943629  1.419350
      ESP Fit Center  623 is at  -0.722110 -3.943629  0.459350
      ESP Fit Center  624 is at  -2.642110 -5.863629  0.459350
      ESP Fit Center  625 is at  -1.682110 -5.606398  0.459350
      ESP Fit Center  626 is at  -0.979341 -4.903629  0.459350
      ESP Fit Center  627 is at  -0.979341 -3.943629 -0.500650
      ESP Fit Center  628 is at  -1.296902 -2.966278 -0.500650
      ESP Fit Center  629 is at  -3.155934 -5.525016 -0.500650
      ESP Fit Center  630 is at  -2.128286 -5.525016 -0.500650
      ESP Fit Center  631 is at  -1.296902 -4.920980 -0.500650
      ESP Fit Center  632 is at  -1.682110 -3.943629 -1.203419
      ESP Fit Center  633 is at  -2.162110 -3.112245 -1.203419
      ESP Fit Center  634 is at  -3.122110 -3.112245 -1.203419
      ESP Fit Center  635 is at  -3.602110 -3.943629 -1.203419
      ESP Fit Center  636 is at  -3.122110 -4.775013 -1.203419
      ESP Fit Center  637 is at  -2.162110 -4.775013 -1.203419
      ESP Fit Center  638 is at  -2.642110 -3.943629 -1.460650
      ESP Fit Center  639 is at  -5.768393 -2.062593  0.573437
      ESP Fit Center  640 is at  -2.387245 -2.062593 -1.054838
      ESP Fit Center  641 is at  -4.833014 -0.105209  0.139844
      ESP Fit Center  642 is at  -5.535783 -0.807978  0.139844
      ESP Fit Center  643 is at  -5.793014 -1.767978  0.139844
      ESP Fit Center  644 is at  -4.386838 -0.186591 -0.820156
      ESP Fit Center  645 is at  -5.218222 -0.790627 -0.820156
      ESP Fit Center  646 is at  -5.535783 -1.767978 -0.820156
      ESP Fit Center  647 is at  -5.218222 -2.745329 -0.820156
      ESP Fit Center  648 is at  -2.913014 -1.767978 -1.522925
      ESP Fit Center  649 is at  -3.393014 -0.936594 -1.522925
      ESP Fit Center  650 is at  -4.353014 -0.936594 -1.522925
      ESP Fit Center  651 is at  -4.833014 -1.767978 -1.522925
      ESP Fit Center  652 is at  -4.353014 -2.599362 -1.522925
      ESP Fit Center  653 is at  -3.393014 -2.599362 -1.522925
      ESP Fit Center  654 is at  -3.873014 -1.767978 -1.780156
      ESP Fit Center  655 is at  -3.596704 -0.818049  3.562342
      ESP Fit Center  656 is at  -4.556704 -0.818049  3.562342
      ESP Fit Center  657 is at  -4.590528 -0.068046  2.859573
      ESP Fit Center  658 is at  -5.421912 -0.672082  2.859573
      ESP Fit Center  659 is at  -5.739473 -1.649433  2.859573
      ESP Fit Center  660 is at  -5.036704  0.013336  1.899573
      ESP Fit Center  661 is at  -5.739473 -0.689433  1.899573
      ESP Fit Center  662 is at  -5.996704 -1.649433  1.899573
      ESP Fit Center  663 is at  -5.739473 -2.609433  1.899573
      ESP Fit Center  664 is at  -5.421912 -0.672082  0.939573
      ESP Fit Center  665 is at  -2.114448 -1.559627  3.466568
      ESP Fit Center  666 is at  -1.142548 -1.559627  3.244738
      ESP Fit Center  667 is at  -1.628498 -2.401317  3.244738
      ESP Fit Center  668 is at  -0.697614 -2.589017  2.623185
      ESP Fit Center  669 is at  -0.873886 -3.356891  1.725015
      ESP Fit Center  670 is at  -0.180755 -2.574507  1.725015
      ESP Fit Center  671 is at  -0.180755 -2.574507  0.728121
      ESP Fit Center  672 is at  -0.697614 -2.589017 -0.170049
      ESP Fit Center  673 is at  -1.628498 -2.401317 -0.791602
      ESP Fit Center  674 is at  -2.114448 -1.559627 -1.013432
      ESP Fit Center  675 is at  -1.532331 -1.051550  3.370121
      ESP Fit Center  676 is at  -2.583981  0.275867  3.997747
      ESP Fit Center  677 is at  -1.623981  0.275867  3.740516
      ESP Fit Center  678 is at  -2.103981  1.107251  3.740516
      ESP Fit Center  679 is at  -3.063981  1.107251  3.740516
      ESP Fit Center  680 is at  -3.543981  0.275867  3.740516
      ESP Fit Center  681 is at  -3.063981 -0.555517  3.740516
      ESP Fit Center  682 is at  -2.103981 -0.555517  3.740516
      ESP Fit Center  683 is at  -2.070157  1.857254  3.037747
      ESP Fit Center  684 is at  -3.097805  1.857254  3.037747
      ESP Fit Center  685 is at  -3.929189  1.253218  3.037747
      ESP Fit Center  686 is at  -4.246750  0.275867  3.037747
      ESP Fit Center  687 is at  -2.583981  2.195867  2.077747
      ESP Fit Center  688 is at  -3.543981  1.938636  2.077747
      ESP Fit Center  689 is at  -4.246750  1.235867  2.077747
      ESP Fit Center  690 is at  -4.503981  0.275867  2.077747
      ESP Fit Center  691 is at  -2.525427  2.174933  0.297166
      ESP Fit Center  692 is at  -3.485427  1.917702  0.297166
      ESP Fit Center  693 is at  -4.188196  1.214933  0.297166
      ESP Fit Center  694 is at  -4.445427  0.254933  0.297166
      ESP Fit Center  695 is at  -2.011603  1.836320 -0.662834
      ESP Fit Center  696 is at  -3.039251  1.836320 -0.662834
      ESP Fit Center  697 is at  -3.870635  1.232284 -0.662834
      ESP Fit Center  698 is at  -4.188196  0.254933 -0.662834
      ESP Fit Center  699 is at  -2.045427  1.086317 -1.365603
      ESP Fit Center  700 is at  -3.005427  1.086317 -1.365603
      ESP Fit Center  701 is at  -3.485427  0.254933 -1.365603
      ESP Fit Center  702 is at  -3.005427 -0.576451 -1.365603
      ESP Fit Center  703 is at  -2.045427 -0.576451 -1.365603
      ESP Fit Center  704 is at  -2.525427  0.254933 -1.622834
      ESP Fit Center  705 is at  -0.079589  1.185373  3.414803
      ESP Fit Center  706 is at  -1.120909  1.185373  3.414803
      ESP Fit Center  707 is at   0.978275  1.298019  2.748854
      ESP Fit Center  708 is at  -0.867288  2.140860 -0.243898
      ESP Fit Center  709 is at  -0.086430 -0.259058  3.981169
      ESP Fit Center  710 is at   0.873570 -0.259058  3.723938
      ESP Fit Center  711 is at   0.393570  0.572326  3.723938
      ESP Fit Center  712 is at  -0.566430  0.572326  3.723938
      ESP Fit Center  713 is at  -1.046430 -0.259058  3.723938
      ESP Fit Center  714 is at  -0.566430 -1.090442  3.723938
      ESP Fit Center  715 is at   0.393570 -1.090442  3.723938
      ESP Fit Center  716 is at   1.576339 -0.259058  3.021169
      ESP Fit Center  717 is at   1.258778  0.718293  3.021169
      ESP Fit Center  718 is at  -0.600254 -1.840445  3.021169
      ESP Fit Center  719 is at   0.427394 -1.840445  3.021169
      ESP Fit Center  720 is at   1.258778 -1.236409  3.021169
      ESP Fit Center  721 is at  -0.086430 -2.179058  2.061169
      ESP Fit Center  722 is at   0.873570 -1.921827  2.061169
      ESP Fit Center  723 is at  -0.558315  1.360517  3.404219
      ESP Fit Center  724 is at  -0.078315  2.191901  3.146988
      ESP Fit Center  725 is at  -1.038315  2.191901  3.146988
      ESP Fit Center  726 is at  -0.044491  2.941904  2.444219
      ESP Fit Center  727 is at  -1.072139  2.941904  2.444219
      ESP Fit Center  728 is at  -1.903523  2.337868  2.444219
      ESP Fit Center  729 is at  -0.558315  3.280517  1.484219
      ESP Fit Center  730 is at  -1.518315  3.023286  1.484219
      ESP Fit Center  731 is at  -2.221084  2.320517  1.484219
      ESP Fit Center  732 is at  -0.044491  2.941904  0.524219
      ESP Fit Center  733 is at  -1.072139  2.941904  0.524219
      ESP Fit Center  734 is at  -1.903523  2.337868  0.524219
      ESP Fit Center  735 is at  -1.038315  2.191901 -0.178550
      ESP Fit Center  736 is at   0.263233 -2.167916  0.498447
      ESP Fit Center  737 is at  -0.774400  2.041924 -0.498447
      ESP Fit Center  738 is at   0.263233 -2.167916 -0.498447
      ESP Fit Center  739 is at  -0.541182  1.665588 -1.396617
      ESP Fit Center  740 is at  -1.416834  1.029390 -1.396617
      ESP Fit Center  741 is at  -1.416834 -1.029390 -1.396617
      ESP Fit Center  742 is at  -0.541182 -1.665588 -1.396617
      ESP Fit Center  743 is at  -0.485950  0.841690 -2.018170
      ESP Fit Center  744 is at  -0.971900  0.000000 -2.018170
      ESP Fit Center  745 is at  -0.485950 -0.841690 -2.018170
      ESP Fit Center  746 is at   0.000000  0.000000 -2.240000
      ESP Fit Center  747 is at   0.896350 -2.281163  0.534050
      ESP Fit Center  748 is at   0.896350 -2.281163 -0.534050
      ESP Fit Center  749 is at   0.749896 -2.191592 -0.912388
      ESP Fit Center  750 is at   1.709896 -2.448823 -0.912388
      ESP Fit Center  751 is at   2.669896 -2.191592 -0.912388
      ESP Fit Center  752 is at   3.372665 -1.488823 -0.912388
      ESP Fit Center  753 is at   0.364688 -1.506174 -1.872388
      ESP Fit Center  754 is at   1.196072 -2.110210 -1.872388
      ESP Fit Center  755 is at   2.223720 -2.110210 -1.872388
      ESP Fit Center  756 is at   1.229896  0.302561 -2.575157
      ESP Fit Center  757 is at   0.749896 -0.528823 -2.575157
      ESP Fit Center  758 is at   1.229896 -1.360207 -2.575157
      ESP Fit Center  759 is at   2.189896 -1.360207 -2.575157
      ESP Fit Center  760 is at   1.709896 -0.528823 -2.832388
      ESP Fit Center  761 is at   1.809465 -0.566885  2.777809
      ESP Fit Center  762 is at   2.769465 -0.566885  2.520578
      ESP Fit Center  763 is at   2.289465  0.264499  2.520578
      ESP Fit Center  764 is at   2.289465 -1.398269  2.520578
      ESP Fit Center  765 is at   3.472234 -0.566885  1.817809
      ESP Fit Center  766 is at   1.295641 -2.148272  1.817809
      ESP Fit Center  767 is at   2.323289 -2.148272  1.817809
      ESP Fit Center  768 is at   3.154673 -1.544236  1.817809
      ESP Fit Center  769 is at   0.849465 -2.229654  0.857809
      ESP Fit Center  770 is at   1.809465 -2.486885  0.857809
      ESP Fit Center  771 is at   2.769465 -2.229654  0.857809
      ESP Fit Center  772 is at   3.472234 -1.526885  0.857809
      ESP Fit Center  773 is at   1.764301  1.938198  2.851870
      ESP Fit Center  774 is at   2.724301  1.938198  2.594639
      ESP Fit Center  775 is at   2.244301  2.769582  2.594639
      ESP Fit Center  776 is at   1.284301  2.769582  2.594639
      ESP Fit Center  777 is at   1.284301  1.106814  2.594639
      ESP Fit Center  778 is at   2.244301  1.106814  2.594639
      ESP Fit Center  779 is at   2.278125  3.519585  1.891870
      ESP Fit Center  780 is at   1.250477  3.519585  1.891870
      ESP Fit Center  781 is at   1.764301  3.858198  0.931870
      ESP Fit Center  782 is at   0.804301  3.600967  0.931870
      ESP Fit Center  783 is at   1.582401  3.922396 -0.823378
      ESP Fit Center  784 is at   0.622401  3.665165 -0.823378
      ESP Fit Center  785 is at  -0.080368  2.962396 -0.823378
      ESP Fit Center  786 is at   2.096225  3.583783 -1.783378
      ESP Fit Center  787 is at   1.068577  3.583783 -1.783378
      ESP Fit Center  788 is at   0.237193  2.979747 -1.783378
      ESP Fit Center  789 is at  -0.080368  2.002396 -1.783378
      ESP Fit Center  790 is at   1.102401  2.833780 -2.486147
      ESP Fit Center  791 is at   0.622401  2.002396 -2.486147
      ESP Fit Center  792 is at   1.102401  1.171012 -2.486147
      ESP Fit Center  793 is at   1.582401  2.002396 -2.743378
      ESP Fit Center  794 is at   3.838958  1.449472  2.702199
      ESP Fit Center  795 is at   4.910472  1.449472  2.489062
      ESP Fit Center  796 is at   4.374715  2.377430  2.489062
      ESP Fit Center  797 is at   3.303201  2.377430  2.489062
      ESP Fit Center  798 is at   3.303201  0.521514  2.489062
      ESP Fit Center  799 is at   4.374715  0.521514  2.489062
      ESP Fit Center  800 is at   5.818857  1.449472  1.882098
      ESP Fit Center  801 is at   5.553601  2.439421  1.882098
      ESP Fit Center  802 is at   4.828907  3.164115  1.882098
      ESP Fit Center  803 is at   3.838958  3.429371  1.882098
      ESP Fit Center  804 is at   3.838958 -0.530427  1.882098
      ESP Fit Center  805 is at   4.828907 -0.265171  1.882098
      ESP Fit Center  806 is at   5.553601  0.459523  1.882098
      ESP Fit Center  807 is at   6.425821  1.449472  0.973713
      ESP Fit Center  808 is at   6.202175  2.501644  0.973713
      ESP Fit Center  809 is at   5.569907  3.371886  0.973713
      ESP Fit Center  810 is at   4.638343  3.909725  0.973713
      ESP Fit Center  811 is at   3.568557  4.022164  0.973713
      ESP Fit Center  812 is at   4.638343 -1.010781  0.973713
      ESP Fit Center  813 is at   5.569907 -0.472942  0.973713
      ESP Fit Center  814 is at   6.202175  0.397300  0.973713
      ESP Fit Center  815 is at   5.908183  3.335820 -0.097801
      ESP Fit Center  816 is at   5.087025  3.955929 -0.097801
      ESP Fit Center  817 is at   4.097309  4.237528 -0.097801
      ESP Fit Center  818 is at   3.072702  4.142584 -0.097801
      ESP Fit Center  819 is at   4.097309 -1.338584 -0.097801
      ESP Fit Center  820 is at   5.087025 -1.056985 -0.097801
      ESP Fit Center  821 is at   4.638343  3.909725 -1.169315
      ESP Fit Center  822 is at   3.568557  4.022164 -1.169315
      ESP Fit Center  823 is at   2.545527  3.689761 -1.169315
      ESP Fit Center  824 is at   2.296109  0.545319 -3.382801
      ESP Fit Center  825 is at   4.217144 -1.498269 -1.168888
      ESP Fit Center  826 is at   3.703320 -1.836882 -2.128888
      ESP Fit Center  827 is at   4.663320 -1.579651 -2.128888
      ESP Fit Center  828 is at   2.040551  0.083118 -3.088888
      ESP Fit Center  829 is at   2.358112 -0.894233 -3.088888
      ESP Fit Center  830 is at   3.189496 -1.498269 -3.088888
      ESP Fit Center  831 is at   4.217144 -1.498269 -3.088888
      ESP Fit Center  832 is at   2.743320  0.083118 -3.791657
      ESP Fit Center  833 is at   3.223320 -0.748266 -3.791657
      ESP Fit Center  834 is at   4.508960  3.476839 -2.480234
      ESP Fit Center  835 is at   3.548960  3.734070 -2.480234
      ESP Fit Center  836 is at   2.588960  3.476839 -2.480234
      ESP Fit Center  837 is at   3.035136  3.395457 -3.440234
      ESP Fit Center  838 is at   2.203752  2.791421 -3.440234
      ESP Fit Center  839 is at   1.886191  1.814070 -3.440234
      ESP Fit Center  840 is at   2.203752  0.836719 -3.440234
      ESP Fit Center  841 is at   2.588960  1.814070 -4.143003
      ESP Fit Center  842 is at   3.068960  0.982686 -4.143003
      ESP Fit Center  843 is at   7.931728  1.125856 -1.663833
      ESP Fit Center  844 is at   7.085011  0.352296  0.026165
      ESP Fit Center  845 is at   6.605011 -0.479088  0.026165
      ESP Fit Center  846 is at   7.787780  0.352296 -0.676604
      ESP Fit Center  847 is at   7.470219  1.329647 -0.676604
      ESP Fit Center  848 is at   5.611187 -1.229091 -0.676604
      ESP Fit Center  849 is at   6.638835 -1.229091 -0.676604
      ESP Fit Center  850 is at   7.470219 -0.625055 -0.676604
      ESP Fit Center  851 is at   8.045011  0.352296 -1.636604
      ESP Fit Center  852 is at   5.165011 -1.310473 -1.636604
      ESP Fit Center  853 is at   6.125011 -1.567704 -1.636604
      ESP Fit Center  854 is at   7.085011 -1.310473 -1.636604
      ESP Fit Center  855 is at   7.787780 -0.607704 -1.636604
      ESP Fit Center  856 is at   6.982037  2.089555 -0.243322
      ESP Fit Center  857 is at   6.502037  2.920939 -0.243322
      ESP Fit Center  858 is at   7.684806  2.089555 -0.946091
      ESP Fit Center  859 is at   7.367245  3.066906 -0.946091
      ESP Fit Center  860 is at   6.535861  3.670942 -0.946091
      ESP Fit Center  861 is at   5.508213  3.670942 -0.946091
      ESP Fit Center  862 is at   7.942037  2.089555 -1.906091
      ESP Fit Center  863 is at   5.062037  3.752324 -1.906091
      ESP Fit Center  864 is at   8.557516  0.794687 -2.895285
      ESP Fit Center  865 is at   8.333870  1.846859 -2.895285
      ESP Fit Center  866 is at   4.677222 -1.445602 -2.895285
      ESP Fit Center  867 is at   5.700252 -1.778005 -2.895285
      ESP Fit Center  868 is at   6.770038 -1.665566 -2.895285
      ESP Fit Center  869 is at   7.701602 -1.127727 -2.895285
      ESP Fit Center  870 is at   8.333870 -0.257485 -2.895285
      ESP Fit Center  871 is at   8.770653  0.794687 -3.966799
      ESP Fit Center  872 is at   3.590045 -0.679323 -3.966799
      ESP Fit Center  873 is at   4.283276 -1.439761 -3.966799
      ESP Fit Center  874 is at   5.204397 -1.898425 -3.966799
      ESP Fit Center  875 is at   6.229004 -1.993369 -3.966799
      ESP Fit Center  876 is at   7.218720 -1.711770 -3.966799
      ESP Fit Center  877 is at   8.039878 -1.091661 -3.966799
      ESP Fit Center  878 is at   8.581575 -0.216790 -3.966799
      ESP Fit Center  879 is at   8.557516  0.794687 -5.038313
      ESP Fit Center  880 is at   3.440319  1.332526 -5.038313
      ESP Fit Center  881 is at   3.440319  0.256848 -5.038313
      ESP Fit Center  882 is at   3.877837 -0.725833 -5.038313
      ESP Fit Center  883 is at   4.677222 -1.445602 -5.038313
      ESP Fit Center  884 is at   5.700252 -1.778005 -5.038313
      ESP Fit Center  885 is at   6.770038 -1.665566 -5.038313
      ESP Fit Center  886 is at   7.701602 -1.127727 -5.038313
      ESP Fit Center  887 is at   8.333870 -0.257485 -5.038313
      ESP Fit Center  888 is at   7.950552  0.794687 -5.946698
      ESP Fit Center  889 is at   3.990754  0.794687 -5.946698
      ESP Fit Center  890 is at   4.256010 -0.195262 -5.946698
      ESP Fit Center  891 is at   4.980704 -0.919956 -5.946698
      ESP Fit Center  892 is at   5.970653 -1.185212 -5.946698
      ESP Fit Center  893 is at   6.960602 -0.919956 -5.946698
      ESP Fit Center  894 is at   7.685296 -0.195262 -5.946698
      ESP Fit Center  895 is at   7.042167  0.794687 -6.553662
      ESP Fit Center  896 is at   5.434896 -0.133271 -6.553662
      ESP Fit Center  897 is at   6.506410 -0.133271 -6.553662
      ESP Fit Center  898 is at   3.522632  1.422824 -5.263088
      ESP Fit Center  899 is at   5.169644  3.661979 -2.668238
      ESP Fit Center  900 is at   4.209644  3.661979 -2.668238
      ESP Fit Center  901 is at   3.026875  3.790595 -4.331007
      ESP Fit Center  902 is at   2.769644  2.830595 -4.331007
      ESP Fit Center  903 is at   3.026875  1.870595 -4.331007
      ESP Fit Center  904 is at   3.344436  3.807946 -5.291007
      ESP Fit Center  905 is at   3.026875  2.830595 -5.291007
      ESP Fit Center  906 is at   3.344436  1.853244 -5.291007
      ESP Fit Center  907 is at   3.805677  1.277549 -5.791860
      ESP Fit Center  908 is at   7.131215  2.237549 -6.751860
      ESP Fit Center  909 is at   4.123238  3.214900 -6.751860
      ESP Fit Center  910 is at   3.805677  2.237549 -6.751860
      ESP Fit Center  911 is at   4.123238  1.260198 -6.751860
      ESP Fit Center  912 is at   4.954622  0.656162 -6.751860
      ESP Fit Center  913 is at   6.813654  1.260198 -6.751860
      ESP Fit Center  914 is at   6.428446  2.237549 -7.454629
      ESP Fit Center  915 is at   5.948446  3.068933 -7.454629
      ESP Fit Center  916 is at   4.988446  3.068933 -7.454629
      ESP Fit Center  917 is at   4.508446  2.237549 -7.454629
      ESP Fit Center  918 is at   4.988446  1.406165 -7.454629
      ESP Fit Center  919 is at   5.948446  1.406165 -7.454629
      ESP Fit Center  920 is at   5.468446  2.237549 -7.711860
      ESP Fit Center  921 is at   8.884631  4.450988 -4.017690
      ESP Fit Center  922 is at   7.969008  3.597429 -1.831757
      ESP Fit Center  923 is at   8.671777  3.597429 -2.534526
      ESP Fit Center  924 is at   8.354216  4.574780 -2.534526
      ESP Fit Center  925 is at   8.354216  2.620078 -2.534526
      ESP Fit Center  926 is at   8.929008  3.597429 -3.494526
      ESP Fit Center  927 is at   8.671777  4.557429 -3.494526
      ESP Fit Center  928 is at   9.347809  3.049073 -4.062107
      ESP Fit Center  929 is at   9.030248  2.071722 -4.062107
      ESP Fit Center  930 is at   9.605040  3.049073 -5.022107
      ESP Fit Center  931 is at   9.347809  4.009073 -5.022107
      ESP Fit Center  932 is at   8.645040  1.386304 -5.022107
      ESP Fit Center  933 is at   9.347809  2.089073 -5.022107
      ESP Fit Center  934 is at   9.347809  3.049073 -5.982107
      ESP Fit Center  935 is at   9.030248  4.026424 -5.982107
      ESP Fit Center  936 is at   8.198864  1.467686 -5.982107
      ESP Fit Center  937 is at   9.030248  2.071722 -5.982107
      ESP Fit Center  938 is at   8.645040  3.049073 -6.684876
      ESP Fit Center  939 is at   7.205040  2.217689 -6.684876
      ESP Fit Center  940 is at   8.165040  2.217689 -6.684876
      ESP Fit Center  941 is at   7.685040  3.049073 -6.942107
      ESP Fit Center  942 is at   8.437012  5.059222 -3.378353
      ESP Fit Center  943 is at   9.043976  5.059222 -4.286738
      ESP Fit Center  944 is at   8.820330  6.111394 -4.286738
      ESP Fit Center  945 is at   9.257113  5.059222 -5.358252
      ESP Fit Center  946 is at   9.068035  6.070699 -5.358252
      ESP Fit Center  947 is at   8.526338  6.945570 -5.358252
      ESP Fit Center  948 is at   7.705180  7.565679 -5.358252
      ESP Fit Center  949 is at   6.715464  7.847278 -5.358252
      ESP Fit Center  950 is at   9.043976  5.059222 -6.429766
      ESP Fit Center  951 is at   8.820330  6.111394 -6.429766
      ESP Fit Center  952 is at   8.188062  6.981636 -6.429766
      ESP Fit Center  953 is at   7.256498  7.519475 -6.429766
      ESP Fit Center  954 is at   6.186712  7.631914 -6.429766
      ESP Fit Center  955 is at   3.926779  5.597061 -6.429766
      ESP Fit Center  956 is at   3.926779  4.521383 -6.429766
      ESP Fit Center  957 is at   8.820330  4.007050 -6.429766
      ESP Fit Center  958 is at   8.437012  5.059222 -7.338151
      ESP Fit Center  959 is at   8.171756  6.049171 -7.338151
      ESP Fit Center  960 is at   7.447062  6.773865 -7.338151
      ESP Fit Center  961 is at   6.457113  7.039121 -7.338151
      ESP Fit Center  962 is at   5.467164  6.773865 -7.338151
      ESP Fit Center  963 is at   4.742470  6.049171 -7.338151
      ESP Fit Center  964 is at   4.477214  5.059222 -7.338151
      ESP Fit Center  965 is at   4.742470  4.069273 -7.338151
      ESP Fit Center  966 is at   6.457113  3.079323 -7.338151
      ESP Fit Center  967 is at   7.447062  3.344579 -7.338151
      ESP Fit Center  968 is at   8.171756  4.069273 -7.338151
      ESP Fit Center  969 is at   7.528627  5.059222 -7.945115
      ESP Fit Center  970 is at   6.992870  5.987180 -7.945115
      ESP Fit Center  971 is at   5.921356  5.987180 -7.945115
      ESP Fit Center  972 is at   5.385599  5.059222 -7.945115
      ESP Fit Center  973 is at   5.921356  4.131264 -7.945115
      ESP Fit Center  974 is at   6.992870  4.131264 -7.945115
      ESP Fit Center  975 is at   6.457113  5.059222 -8.158252
      ESP Fit Center  976 is at   3.251706  6.896707 -3.594422
      ESP Fit Center  977 is at   3.559429  5.352852 -5.624848
      ESP Fit Center  978 is at   4.407151  8.300816 -3.720338
      ESP Fit Center  979 is at   3.575767  7.696780 -3.720338
      ESP Fit Center  980 is at   5.880975  8.382198 -4.680338
      ESP Fit Center  981 is at   4.920975  8.639429 -4.680338
      ESP Fit Center  982 is at   3.960975  8.382198 -4.680338
      ESP Fit Center  983 is at   3.258206  7.679429 -4.680338
      ESP Fit Center  984 is at   3.000975  6.719429 -4.680338
      ESP Fit Center  985 is at   5.434799  8.300816 -5.640338
      ESP Fit Center  986 is at   4.407151  8.300816 -5.640338
      ESP Fit Center  987 is at   3.575767  7.696780 -5.640338
      ESP Fit Center  988 is at   3.258206  6.719429 -5.640338
      ESP Fit Center  989 is at   5.400975  7.550813 -6.343107
      ESP Fit Center  990 is at   4.440975  7.550813 -6.343107
      ESP Fit Center  991 is at   3.960975  6.719429 -6.343107
      ESP Fit Center  992 is at   3.574983  5.206477 -2.211808
      ESP Fit Center  993 is at   4.054983  4.375093 -2.211808
      ESP Fit Center  994 is at   3.189775  6.183828 -2.914577
      ESP Fit Center  995 is at   2.872214  5.206477 -2.914577
      ESP Fit Center  996 is at   3.189775  4.229126 -2.914577
      ESP Fit Center  997 is at   2.872214  6.166477 -3.874577
      ESP Fit Center  998 is at   2.614983  5.206477 -3.874577
      ESP Fit Center  999 is at   2.872214  4.246477 -3.874577
      ESP Fit Center 1000 is at   2.872214  5.206477 -4.834577
      ESP Fit Center 1001 is at   3.189775  4.229126 -4.834577
      ESP Fit Center 1002 is at   6.072114  6.381956 -0.472569
      ESP Fit Center 1003 is at   6.592774  7.283766 -0.710244
      ESP Fit Center 1004 is at   7.650638  7.396412 -1.376193
      ESP Fit Center 1005 is at   6.851597  8.088785 -1.376193
      ESP Fit Center 1006 is at   4.843336  4.963871 -1.376193
      ESP Fit Center 1007 is at   5.551454  8.663119 -3.406619
      ESP Fit Center 1008 is at   4.613256  8.211306 -3.406619
      ESP Fit Center 1009 is at   5.359076  6.884884 -0.287140
      ESP Fit Center 1010 is at   5.839076  7.716268 -0.544371
      ESP Fit Center 1011 is at   4.879076  7.716268 -0.544371
      ESP Fit Center 1012 is at   4.399076  6.884884 -0.544371
      ESP Fit Center 1013 is at   4.879076  6.053500 -0.544371
      ESP Fit Center 1014 is at   5.872900  8.466271 -1.247140
      ESP Fit Center 1015 is at   4.845252  8.466271 -1.247140
      ESP Fit Center 1016 is at   4.013868  7.862235 -1.247140
      ESP Fit Center 1017 is at   3.696307  6.884884 -1.247140
      ESP Fit Center 1018 is at   4.013868  5.907533 -1.247140
      ESP Fit Center 1019 is at   5.359076  8.804884 -2.207140
      ESP Fit Center 1020 is at   4.399076  8.547653 -2.207140
      ESP Fit Center 1021 is at   3.696307  7.844884 -2.207140
      ESP Fit Center 1022 is at   3.439076  6.884884 -2.207140
      ESP Fit Center 1023 is at   3.696307  5.924884 -2.207140
      ESP Fit Center 1024 is at   4.845252  8.466271 -3.167140
      ESP Fit Center 1025 is at   4.013868  7.862235 -3.167140
      ESP Fit Center 1026 is at   6.525757  5.560364 -0.387734
      ESP Fit Center 1027 is at   7.485757  5.560364 -0.644965
      ESP Fit Center 1028 is at   7.005757  6.391748 -0.644965
      ESP Fit Center 1029 is at   5.565757  5.560364 -0.644965
      ESP Fit Center 1030 is at   6.045757  4.728980 -0.644965
      ESP Fit Center 1031 is at   7.005757  4.728980 -0.644965
      ESP Fit Center 1032 is at   8.188526  5.560364 -1.347734
      ESP Fit Center 1033 is at   5.180549  4.583013 -1.347734
      ESP Fit Center 1034 is at   6.011933  3.978977 -1.347734
      ESP Fit Center 1035 is at   7.039581  3.978977 -1.347734
      ESP Fit Center 1036 is at   7.870965  4.583013 -1.347734
      ESP Fit Center 1037 is at   8.445757  5.560364 -2.307734
      ESP Fit Center 1038 is at   8.188526  4.600364 -2.307734
      ESP Fit Center 1039 is at   7.344896  7.922629 -1.466448
      ESP Fit Center 1040 is at   8.527665  7.091245 -2.169217
      ESP Fit Center 1041 is at   8.210104  8.068596 -2.169217
      ESP Fit Center 1042 is at   7.378720  8.672632 -2.169217
      ESP Fit Center 1043 is at   6.351072  8.672632 -2.169217
      ESP Fit Center 1044 is at   8.784896  7.091245 -3.129217
      ESP Fit Center 1045 is at   8.527665  8.051245 -3.129217
      ESP Fit Center 1046 is at   7.824896  8.754014 -3.129217
      ESP Fit Center 1047 is at   6.864896  9.011245 -3.129217
[...]
 1405 Fit      -0.003492
 1406 Fit      -0.006435
 1407 Fit      -0.011963
 1408 Fit      -0.006053
 1409 Fit      -0.005818
 1410 Fit      -0.006998
 1411 Fit      -0.007317
 1412 Fit      -0.008768
 1413 Fit      -0.011299
 1414 Fit      -0.013161
 1415 Fit      -0.012114
 1416 Fit      -0.000681
 1417 Fit      -0.007658
 1418 Fit      -0.011515
 1419 Fit      -0.012903
 1420 Fit      -0.012515
 1421 Fit      -0.012060
 1422 Fit      -0.012753
 1423 Fit      -0.014298
 1424 Fit      -0.014935
 1425 Fit      -0.008295
 1426 Fit      -0.004050
 1427 Fit      -0.010784
 1428 Fit      -0.014102
 1429 Fit      -0.014536
 1430 Fit      -0.013695
 1431 Fit      -0.013191
 1432 Fit      -0.013329
 1433 Fit      -0.012644
 1434 Fit      -0.003663
 1435 Fit      -0.001841
 1436 Fit      -0.008733
 1437 Fit      -0.011360
 1438 Fit      -0.011204
 1439 Fit      -0.010235
 1440 Fit      -0.008487
 1441 Fit       0.000404
 1442 Fit      -0.004672
 1443 Fit      -0.004601
 1444 Fit       0.000535
 1445 Fit       0.015569
 1446 Fit       0.008330
 1447 Fit       0.006945
 1448 Fit       0.001621
 1449 Fit       0.002761
 1450 Fit       0.000506
 1451 Fit       0.002532
 1452 Fit      -0.004496
 1453 Fit       0.002134
 1454 Fit       0.003236
 1455 Fit       0.003522
 1456 Fit       0.001814
 1457 Fit       0.001875
 1458 Fit      -0.001507
 1459 Fit       0.011142
 1460 Fit       0.005690
 1461 Fit       0.005987
 1462 Fit       0.004010
 1463 Fit       0.001090
 1464 Fit      -0.002770
 1465 Fit       0.001341
 1466 Fit      -0.002397
 1467 Fit      -0.006645
 1468 Fit       0.000152
 1469 Fit       0.001798
 1470 Fit      -0.000693
 1471 Fit       0.001918
 1472 Fit       0.001813
 1473 Fit       0.003295
 1474 Fit      -0.006909
 1475 Fit      -0.010413
 1476 Fit      -0.010533
 1477 Fit      -0.015090
 1478 Fit      -0.013841
 1479 Fit      -0.011503
 1480 Fit      -0.016363
 1481 Fit      -0.016205
 1482 Fit      -0.011509
 1483 Fit      -0.004398
 1484 Fit      -0.000280
 1485 Fit       0.000322
 1486 Fit      -0.011509
 1487 Fit      -0.015660
 1488 Fit      -0.015388
 1489 Fit      -0.011351
 1490 Fit      -0.005906
 1491 Fit      -0.001748
 1492 Fit      -0.001575
 1493 Fit      -0.005469
 1494 Fit      -0.008869
 1495 Fit      -0.008561
 1496 Fit      -0.004384
 1497 Fit      -0.011813
 1498 Fit      -0.014664
 1499 Fit      -0.013715
 1500 Fit      -0.010811
 1501 Fit      -0.009488
 1502 Fit      -0.011406
 1503 Fit      -0.013912
 1504 Fit      -0.012799
 1505 Fit      -0.007123
 1506 Fit      -0.003476
 1507 Fit      -0.003790
 1508 Fit      -0.006956
 1509 Fit      -0.013009
 1510 Fit      -0.014406
 1511 Fit      -0.014251
 1512 Fit      -0.015505
 1513 Fit      -0.013139
 1514 Fit      -0.010791
 1515 Fit      -0.014681
 1516 Fit       0.011249
 1517 Fit       0.007254
 1518 Fit       0.009672
 1519 Fit       0.010765
 1520 Fit       0.006081
 1521 Fit       0.008163
 1522 Fit       0.009502
 1523 Fit       0.009817
 1524 Fit       0.009379
 1525 Fit       0.004853
 1526 Fit       0.007468
 1527 Fit       0.008151
 1528 Fit       0.007178
 1529 Fit       0.004700
 1530 Fit       0.004221
 1531 Fit       0.001391
 1532 Fit       0.011624
 1533 Fit       0.012379
 1534 Fit       0.012366
 1535 Fit       0.015257
 1536 Fit       0.011282
 1537 Fit       0.014061
 1538 Fit       0.008207
 1539 Fit       0.009688
 1540 Fit       0.003478
 1541 Fit       0.003395
 1542 Fit       0.003295
 1543 Fit       0.003114
 1544 Fit       0.002407
 1545 Fit       0.003157
 1546 Fit       0.003420
 1547 Fit       0.001470
 1548 Fit       0.003892
 1549 Fit       0.011028
 1550 Fit       0.007356
 1551 Fit       0.004762
 1552 Fit       0.004767
 1553 Fit       0.006802
 1554 Fit       0.006770
 1555 Fit       0.003993
 1556 Fit       0.004505
 1557 Fit       0.006642
 1558 Fit       0.008412
 1559 Fit       0.009140
 1560 Fit       0.008493
 1561 Fit       0.006150
 1562 Fit       0.005400
 1563 Fit       0.007610
 1564 Fit       0.009411
 1565 Fit       0.010516
 1566 Fit       0.011489
 1567 Fit       0.010486
 1568 Fit       0.003887
 1569 Fit       0.004880
 1570 Fit       0.003870
 1571 Fit       0.006828
 1572 Fit       0.004415
 1573 Fit       0.006790
 1574 Fit       0.014146
 1575 Fit       0.008501
 1576 Fit       0.001515
 1577 Fit       0.001296
 1578 Fit       0.002776
 1579 Fit       0.003694
 1580 Fit       0.004047
 1581 Fit      -0.001764
 1582 Fit       0.001336
 1583 Fit       0.003317
 1584 Fit       0.004264
 1585 Fit       0.005063
 1586 Fit      -0.004682
 1587 Fit      -0.009079
 1588 Fit      -0.001780
 1589 Fit       0.002011
 1590 Fit       0.004446
 1591 Fit      -0.000380
 1592 Fit       0.000864
 1593 Fit      -0.000285
 1594 Fit       0.002559
 1595 Fit       0.000302
 1596 Fit      -0.001269
 1597 Fit      -0.002065
 1598 Fit       0.003341
 1599 Fit       0.005336
 1600 Fit      -0.000015
 1601 Fit      -0.002792
 1602 Fit      -0.003866
 1603 Fit       0.001787
 1604 Fit      -0.007104
 1605 Fit       0.001897
 1606 Fit      -0.012787
 1607 Fit      -0.000136
 1608 Fit      -0.001260
 1609 Fit      -0.003055
 1610 Fit       0.000916
 1611 Fit       0.000266
 1612 Fit      -0.000784
 1613 Fit      -0.002655
 1614 Fit      -0.005365
 1615 Fit       0.000708
 1616 Fit      -0.000403
 1617 Fit      -0.001985
 1618 Fit      -0.004677
 1619 Fit      -0.008912
 1620 Fit      -0.000961
 1621 Fit      -0.003270
 1622 Fit      -0.006719
 1623 Fit      -0.013164
 1624 Fit      -0.000376
 1625 Fit       0.000806
 1626 Fit      -0.001724
 1627 Fit      -0.000419
 1628 Fit       0.000857
 1629 Fit       0.001898
 1630 Fit      -0.002708
 1631 Fit      -0.004984
 1632 Fit      -0.003768
 1633 Fit      -0.002152
 1634 Fit      -0.000138
 1635 Fit      -0.005685
 1636 Fit      -0.011977
 1637 Fit      -0.011488
 1638 Fit      -0.010094
 1639 Fit      -0.006476
 1640 Fit      -0.011806
 1641 Fit       0.002823
 1642 Fit       0.002118
 1643 Fit       0.004081
 1644 Fit       0.004569
 1645 Fit       0.003184
 1646 Fit       0.001223
 1647 Fit       0.004008
 1648 Fit       0.005539
 1649 Fit       0.005926
 1650 Fit       0.005240
 1651 Fit       0.003693
 1652 Fit       0.001704
 1653 Fit       0.006876
 1654 Fit       0.007020
 1655 Fit       0.006404
 1656 Fit       0.005103
 1657 Fit       0.003266
 1658 Fit       0.007267
 1659 Fit       0.005430
 1660 Fit       0.007863
 1661 Fit       0.007489
 1662 Fit       0.007958
 1663 Fit      -0.003665
 1664 Fit       0.006669
 1665 Fit       0.008006
 1666 Fit       0.007004
 1667 Fit       0.005947
 1668 Fit       0.004482
 1669 Fit       0.002520
 1670 Fit       0.008571
 1671 Fit       0.007299
 1672 Fit       0.006070
 1673 Fit       0.004413
 1674 Fit       0.001976
 1675 Fit       0.009262
 1676 Fit       0.007153
 1677 Fit       0.004899
 1678 Fit       0.001471
 1679 Fit       0.006065
 1680 Fit       0.004249
 1681 Fit       0.006846
 1682 Fit       0.007616
 1683 Fit       0.007748
 1684 Fit       0.000271
 1685 Fit       0.007143
 1686 Fit       0.009303
 1687 Fit       0.009250
 1688 Fit       0.008630
 1689 Fit       0.010059
 1690 Fit      -0.023882
 1691 Fit      -0.025101
 1692 Fit      -0.022058
 1693 Fit      -0.027343
 1694 Fit      -0.017731
 1695 Fit      -0.021631
 1696 Fit      -0.024359
 1697 Fit      -0.025841
 1698 Fit      -0.010256
 1699 Fit      -0.015211
 1700 Fit      -0.018405
 1701 Fit      -0.020953
 1702 Fit      -0.002016
 1703 Fit      -0.007393
 1704 Fit      -0.001024
 1705 Fit       0.001608
 1706 Fit       0.006196
 1707 Fit       0.003789
 1708 Fit       0.003063
 1709 Fit       0.011156
 1710 Fit       0.009390
 1711 Fit       0.010511
 1712 Fit       0.008782
 1713 Fit       0.007163
 1714 Fit       0.004960
 1715 Fit       0.001727
 1716 Fit       0.009006
 1717 Fit       0.007233
 1718 Fit       0.005171
 1719 Fit       0.002606
 1720 Fit       0.007160
 1721 Fit       0.004917
 1722 Fit      -0.023343
 1723 Fit      -0.016151
 1724 Fit      -0.017988
 1725 Fit      -0.015572
 1726 Fit      -0.005849
 1727 Fit      -0.007685
 1728 Fit      -0.010160
 1729 Fit      -0.009543
 1730 Fit      -0.017952
 1731 Fit      -0.000525
 1732 Fit      -0.002636
 1733 Fit      -0.005052
 1734 Fit      -0.004315
 1735 Fit      -0.005290
 1736 Fit       0.001688
 1737 Fit      -0.000984
 1738 Fit       0.000154
 1739 Fit       0.011814
 1740 Fit       0.009846
 1741 Fit       0.009820
 1742 Fit       0.010440
 1743 Fit       0.011451
 1744 Fit       0.008664
 1745 Fit       0.008882
 1746 Fit       0.009557
 1747 Fit       0.007208
 1748 Fit       0.007798
 1749 Fit       0.008255
 1750 Fit       0.008356
 1751 Fit      -0.003141
 1752 Fit       0.000571
 1753 Fit       0.004903
 1754 Fit       0.006110
 1755 Fit       0.005374
 1756 Fit       0.001679
 1757 Fit       0.002928
 1758 Fit       0.006497
 1759 Fit       0.010278
 1760 Fit       0.010706
 1761 Fit       0.010345
 1762 Fit       0.010297
 1763 Fit       0.010779
 1764 Fit       0.010152
 1765 Fit       0.010161
 1766 Fit       0.010941
 1767 Fit      -0.008401
 1768 Fit      -0.023267
 1769 Fit      -0.026516
 1770 Fit      -0.016139
 1771 Fit      -0.013376
 1772 Fit      -0.003973
 1773 Fit       0.011681
 1774 Fit       0.010144
 1775 Fit       0.006730
 1776 Fit       0.006721
 1777 Fit       0.009205
 1778 Fit       0.009079
 1779 Fit       0.008299
 1780 Fit       0.004769
 1781 Fit       0.001349
 1782 Fit       0.011867
 1783 Fit       0.010623
 1784 Fit       0.009956
 1785 Fit       0.009889
 1786 Fit       0.011164
 1787 Fit       0.010254
 1788 Fit       0.010179
 1789 Fit       0.010278
 1790 Fit       0.010165
 1791 Fit       0.006642
 1792 Fit       0.007739
 1793 Fit       0.008026
 1794 Fit       0.008365
 1795 Fit      -0.001251
 1796 Fit       0.004261
 1797 Fit       0.005917
 1798 Fit       0.006625
 1799 Fit      -0.005075
 1800 Fit       0.001870
 1801 Fit       0.002870
 1802 Fit      -0.001264
 1803 Fit      -0.013272
 1804 Fit      -0.004025
 1805 Fit       0.009020
 1806 Fit       0.009732
 1807 Fit       0.010043
 1808 Fit       0.006355
 1809 Fit       0.003809
 1810 Fit       0.004132
 1811 Fit       0.007128
 1812 Fit       0.003747
 1813 Fit      -0.002638
 1814 Fit      -0.000281
 1815 Fit       0.004544
 1816 Fit       0.008071
 1817 Fit      -0.014775
 1818 Fit      -0.005774
 1819 Fit       0.000605
 1820 Fit      -0.016277
 1821 Fit       0.010805
 1822 Fit       0.011213
 1823 Fit       0.011963
 1824 Fit       0.011340
 1825 Fit       0.011930
 1826 Fit       0.012073
 1827 Fit       0.011206
 1828 Fit       0.011594
 1829 Fit       0.011432
 1830 Fit       0.010268
 1831 Fit       0.010441
 1832 Fit       0.007962
 1833 Fit       0.007559
 1834 Fit      -0.023266
 1835 Fit      -0.001123
 1836 Fit      -0.021686
 1837 Fit      -0.006024
 1838 Fit      -0.008681
 1839 Fit      -0.015995
 1840 Fit      -0.018577
 1841 Fit      -0.014511
 1842 Fit      -0.008139
 1843 Fit      -0.012968
 1844 Fit      -0.013737
 1845 Fit      -0.007840
 1846 Fit      -0.019494
 1847 Fit      -0.008420
 1848 Fit      -0.015928
 1849 Fit      -0.006582
 1850 Fit      -0.006648
 1851 Fit      -0.001544
 1852 Fit       0.002071
 1853 Fit      -0.007475
 1854 Fit      -0.001969
 1855 Fit       0.002387
 1856 Fit       0.004287
 1857 Fit      -0.002081
 1858 Fit      -0.000528
 1859 Fit       0.000158
 1860 Fit       0.005540
 1861 Fit      -0.000355
 1862 Fit      -0.006263
 1863 Fit      -0.003263
 1864 Fit      -0.003985
 1865 Fit      -0.011217
 1866 Fit      -0.005505
 1867 Fit      -0.004394
 1868 Fit      -0.005034
 1869 Fit      -0.003684
 1870 Fit       0.007873
 1871 Fit       0.010202
 1872 Fit       0.009799
 1873 Fit       0.007743
 1874 Fit       0.011311
 1875 Fit       0.007433
 1876 Fit       0.005285
 1877 Fit       0.009395
 1878 Fit       0.012896
 1879 Fit       0.004181
 1880 Fit       0.008721
 1881 Fit       0.011797
 1882 Fit       0.008110
 1883 Fit       0.008824
 1884 Fit       0.006932
 1885 Fit       0.008553
 1886 Fit       0.009533
 1887 Fit       0.008532
 1888 Fit       0.004971
 1889 Fit       0.012047
 1890 Fit       0.009109
 1891 Fit       0.004227
 1892 Fit       0.011608
 1893 Fit       0.006564
 1894 Fit       0.006397
 1895 Fit      -0.002114
 1896 Fit      -0.006556
 1897 Fit      -0.003822
 1898 Fit       0.001792
 1899 Fit       0.004695
 1900 Fit      -0.000839
 1901 Fit      -0.006278
 1902 Fit      -0.008406
 1903 Fit      -0.007353
 1904 Fit      -0.005760
 1905 Fit      -0.002087
 1906 Fit       0.004543
 1907 Fit      -0.006376
 1908 Fit      -0.009604
 1909 Fit      -0.009542
 1910 Fit      -0.007383
 1911 Fit      -0.007044
 1912 Fit      -0.007197
 1913 Fit      -0.006556
 1914 Fit      -0.003670
 1915 Fit       0.002270
 1916 Fit      -0.007583
 1917 Fit      -0.010672
 1918 Fit      -0.010272
 1919 Fit      -0.008630
 1920 Fit      -0.003473
 1921 Fit      -0.003549
 1922 Fit      -0.004562
 1923 Fit      -0.005888
 1924 Fit      -0.005896
 1925 Fit      -0.003454
 1926 Fit       0.001553
 1927 Fit      -0.009102
 1928 Fit      -0.008545
 1929 Fit      -0.006139
 1930 Fit      -0.004193
 1931 Fit       0.000101
 1932 Fit      -0.002556
 1933 Fit      -0.002600
 1934 Fit      -0.000302
 1935 Fit       0.003854
 1936 Fit      -0.004505
 1937 Fit      -0.004477
 1938 Fit       0.003901
 1939 Fit       0.006063
 1940 Fit       0.013318
 1941 Fit       0.005778
 1942 Fit       0.002439
 1943 Fit       0.001872
 1944 Fit       0.002031
 1945 Fit       0.000052
 1946 Fit       0.002818
 1947 Fit       0.000702
 1948 Fit      -0.002889
 1949 Fit       0.015660
 1950 Fit       0.015549
 1951 Fit       0.011040
 1952 Fit       0.006940
 1953 Fit       0.007939
 1954 Fit      -0.000956
 1955 Fit      -0.002678
 1956 Fit       0.002131
 1957 Fit      -0.001659
 1958 Fit       0.001100
 1959 Fit       0.001942
 1960 Fit       0.001283
 1961 Fit       0.001715
 1962 Fit       0.001982
 1963 Fit       0.001922
 1964 Fit       0.001417
 1965 Fit       0.004112
 1966 Fit       0.005979
 1967 Fit       0.006232
 1968 Fit       0.004322
 1969 Fit       0.008921
 1970 Fit      -0.002710
 1971 Fit       0.001288
 1972 Fit       0.001626
 1973 Fit      -0.000791
 1974 Fit      -0.002745
 1975 Fit      -0.007489
 1976 Fit      -0.003396
 1977 Fit      -0.002278
 1978 Fit      -0.003791
 1979 Fit      -0.004468
 1980 Fit      -0.005708
 1981 Fit      -0.007419
 1982 Fit      -0.008491
 1983 Fit      -0.009273
 1984 Fit      -0.005340
 1985 Fit      -0.007581
 1986 Fit      -0.008273
 1987 Fit      -0.008388
 1988 Fit      -0.008834
 1989 Fit      -0.009861
 1990 Fit      -0.010980
 1991 Fit      -0.011178
 1992 Fit      -0.007989
 1993 Fit       0.002654
 1994 Fit      -0.003805
 1995 Fit      -0.008087
 1996 Fit      -0.010413
 1997 Fit      -0.011123
 1998 Fit      -0.010925
 1999 Fit      -0.010753
 2000 Fit      -0.011085
 2001 Fit      -0.011569
 2002 Fit      -0.011087
 2003 Fit      -0.005191
 2004 Fit      -0.002392
 2005 Fit      -0.007498
 2006 Fit      -0.010357
 2007 Fit      -0.011175
 2008 Fit      -0.010915
 2009 Fit      -0.010543
 2010 Fit      -0.010232
 2011 Fit      -0.009058
 2012 Fit      -0.002472
 2013 Fit      -0.005888
 2014 Fit      -0.008248
 2015 Fit      -0.008537
 2016 Fit      -0.007869
 2017 Fit      -0.006265
 2018 Fit      -0.000039
 2019 Fit      -0.003511
 2020 Fit      -0.003692
 2021 Fit       0.003291
 2022 Fit       0.002721
 2023 Fit       0.011150
 2024 Fit       0.010113
 2025 Fit       0.006769
 2026 Fit       0.005102
 2027 Fit       0.000230
 2028 Fit       0.003161
 2029 Fit       0.000254
 2030 Fit       0.001677
 2031 Fit       0.000370
 2032 Fit       0.001986
 2033 Fit       0.000706
 2034 Fit      -0.004474
 2035 Fit       0.000706
 2036 Fit       0.001741
 2037 Fit       0.001851
 2038 Fit       0.000295
 2039 Fit       0.001917
 2040 Fit      -0.000719
 2041 Fit       0.009868
 2042 Fit       0.005593
 2043 Fit       0.004694
 2044 Fit       0.002167
 2045 Fit       0.000765
 2046 Fit      -0.003286
 2047 Fit       0.000031
 2048 Fit      -0.002321
 2049 Fit      -0.001576
 2050 Fit       0.000200
 2051 Fit      -0.003828
 2052 Fit      -0.000123
 2053 Fit       0.000292
 2054 Fit      -0.000396
 2055 Fit       0.000831
 2056 Fit       0.000112
 2057 Fit       0.001785
 2058 Fit      -0.003215
 2059 Fit      -0.005522
 2060 Fit      -0.007021
 2061 Fit      -0.009904
 2062 Fit      -0.008631
 2063 Fit      -0.008709
 2064 Fit      -0.012007
 2065 Fit      -0.012257
 2066 Fit      -0.009490
 2067 Fit      -0.004751
 2068 Fit       0.000572
 2069 Fit      -0.009271
 2070 Fit      -0.012579
 2071 Fit      -0.012852
 2072 Fit      -0.010250
 2073 Fit      -0.005845
 2074 Fit      -0.000909
 2075 Fit      -0.001070
 2076 Fit      -0.001993
 2077 Fit      -0.003571
 2078 Fit      -0.009508
 2079 Fit      -0.012257
 2080 Fit      -0.012165
 2081 Fit      -0.009617
 2082 Fit      -0.006119
 2083 Fit      -0.003498
 2084 Fit      -0.003349
 2085 Fit      -0.005501
 2086 Fit      -0.007434
 2087 Fit      -0.006933
 2088 Fit       0.001755
 2089 Fit      -0.000654
 2090 Fit      -0.004942
 2091 Fit      -0.009955
 2092 Fit      -0.011823
 2093 Fit      -0.011289
 2094 Fit      -0.009464
 2095 Fit      -0.008523
 2096 Fit      -0.009475
 2097 Fit      -0.010732
 2098 Fit      -0.009769
 2099 Fit      -0.006274
 2100 Fit      -0.004117
 2101 Fit      -0.004559
 2102 Fit      -0.006795
 2103 Fit      -0.010784
 2104 Fit      -0.011729
 2105 Fit      -0.011497
 2106 Fit      -0.011943
 2107 Fit      -0.010348
 2108 Fit      -0.009150
 2109 Fit      -0.011684
 2110 Fit       0.010839
 2111 Fit       0.009735
 2112 Fit       0.010054
 2113 Fit       0.008363
 2114 Fit       0.004239
 2115 Fit       0.008217
 2116 Fit       0.008918
 2117 Fit       0.009097
 2118 Fit       0.005721
 2119 Fit       0.007234
 2120 Fit       0.007835
 2121 Fit       0.007679
 2122 Fit       0.007129
 2123 Fit       0.002535
 2124 Fit       0.005113
 2125 Fit       0.005809
 2126 Fit       0.004950
 2127 Fit       0.002321
 2128 Fit       0.001846
 2129 Fit       0.009470
 2130 Fit       0.011192
 2131 Fit       0.013151
 2132 Fit       0.010478
 2133 Fit       0.011968
 2134 Fit       0.015817
 2135 Fit       0.009934
 2136 Fit       0.012764
 2137 Fit       0.006433
 2138 Fit       0.002996
 2139 Fit       0.002966
 2140 Fit       0.003084
 2141 Fit       0.002035
 2142 Fit       0.002878
 2143 Fit       0.002331
 2144 Fit       0.003046
 2145 Fit       0.000602
 2146 Fit       0.001923
 2147 Fit       0.003361
 2148 Fit       0.005863
 2149 Fit      -0.000389
 2150 Fit       0.004141
 2151 Fit       0.006139
 2152 Fit       0.008752
 2153 Fit       0.006119
 2154 Fit       0.004022
 2155 Fit       0.004206
 2156 Fit       0.005639
 2157 Fit       0.005470
 2158 Fit       0.003092
 2159 Fit       0.004175
 2160 Fit       0.005761
 2161 Fit       0.007079
 2162 Fit       0.007580
 2163 Fit       0.006723
 2164 Fit       0.003790
 2165 Fit       0.004610
 2166 Fit       0.006201
 2167 Fit       0.007666
 2168 Fit       0.008678
 2169 Fit       0.009256
 2170 Fit       0.009523
 2171 Fit       0.006578
 2172 Fit       0.008334
 2173 Fit       0.009663
 2174 Fit       0.003000
 2175 Fit       0.003899
 2176 Fit       0.001872
 2177 Fit       0.004730
 2178 Fit       0.003886
 2179 Fit       0.009950
 2180 Fit       0.006583
 2181 Fit       0.002442
 2182 Fit       0.006219
 2183 Fit       0.001454
 2184 Fit       0.002262
 2185 Fit       0.003037
 2186 Fit      -0.000491
 2187 Fit       0.001237
 2188 Fit       0.002621
 2189 Fit       0.003471
 2190 Fit       0.004220
 2191 Fit      -0.004695
 2192 Fit      -0.001010
 2193 Fit       0.001459
 2194 Fit       0.003029
 2195 Fit       0.004421
 2196 Fit      -0.004235
 2197 Fit       0.000181
 2198 Fit       0.003377
 Job cpu time:       0 days  0 hours 11 minutes 30.0 seconds.
 Normal termination of Gaussian 16 at Sun Jul  9 09:52:31 2023.
