 Entering Gaussian System, Link 0=/opt/gaussian/g16_legacy/g16
 Input=IsoP_pybabel_01_036_gaussian.com
 Output=IsoP_pybabel_01_036_gaussian.log
 Initial command:
 /opt/gaussian/g16_legacy/l1.exe "/scratch-local/jramos/2644952/Gau-27223.inp" -scrdir="/scratch-local/jramos/2644952/"
 Entering Link 1 = /opt/gaussian/g16_legacy/l1.exe PID=     27224.
  
 Copyright (c) 1988,1990,1992,1993,1995,1998,2003,2009,2016,
            Gaussian, Inc.  All Rights Reserved.
  
 This is part of the Gaussian(R) 16 program.  It is based on
 the Gaussian(R) 09 system (copyright 2009, Gaussian, Inc.),
 the Gaussian(R) 03 system (copyright 2003, Gaussian, Inc.),
 the Gaussian(R) 98 system (copyright 1998, Gaussian, Inc.),
 the Gaussian(R) 94 system (copyright 1995, Gaussian, Inc.),
 the Gaussian 92(TM) system (copyright 1992, Gaussian, Inc.),
 the Gaussian 90(TM) system (copyright 1990, Gaussian, Inc.),
 the Gaussian 88(TM) system (copyright 1988, Gaussian, Inc.),
 the Gaussian 86(TM) system (copyright 1986, Carnegie Mellon
 University), and the Gaussian 82(TM) system (copyright 1983,
 Carnegie Mellon University). Gaussian is a federally registered
 trademark of Gaussian, Inc.
  
 This software contains proprietary and confidential information,
 including trade secrets, belonging to Gaussian, Inc.
  
 This software is provided under written license and may be
 used, copied, transmitted, or stored only in accord with that
 written license.
  
 The following legend is applicable only to US Government
 contracts under FAR:
  
                    RESTRICTED RIGHTS LEGEND
  
 Use, reproduction and disclosure by the US Government is
 subject to restrictions as set forth in subparagraphs (a)
 and (c) of the Commercial Computer Software - Restricted
 Rights clause in FAR 52.227-19.
  
 Gaussian, Inc.
 340 Quinnipiac St., Bldg. 40, Wallingford CT 06492
  
  
 ---------------------------------------------------------------
 Warning -- This program may not be used in any manner that
 competes with the business of Gaussian, Inc. or will provide
 assistance to any competitor of Gaussian, Inc.  The licensee
 of this program is prohibited from giving any competitor of
 Gaussian, Inc. access to this program.  By using this program,
 the user acknowledges that Gaussian, Inc. is engaged in the
 business of creating and licensing software in the field of
 computational chemistry and represents and warrants to the
 licensee that it is not a competitor of Gaussian, Inc. and that
 it will not use this program in any manner prohibited above.
 ---------------------------------------------------------------
  

 Cite this work as:
 Gaussian 16, Revision A.03,
 M. J. Frisch, G. W. Trucks, H. B. Schlegel, G. E. Scuseria, 
 M. A. Robb, J. R. Cheeseman, G. Scalmani, V. Barone, 
 G. A. Petersson, H. Nakatsuji, X. Li, M. Caricato, A. V. Marenich, 
 J. Bloino, B. G. Janesko, R. Gomperts, B. Mennucci, H. P. Hratchian, 
 J. V. Ortiz, A. F. Izmaylov, J. L. Sonnenberg, D. Williams-Young, 
 F. Ding, F. Lipparini, F. Egidi, J. Goings, B. Peng, A. Petrone, 
 T. Henderson, D. Ranasinghe, V. G. Zakrzewski, J. Gao, N. Rega, 
 G. Zheng, W. Liang, M. Hada, M. Ehara, K. Toyota, R. Fukuda, 
 J. Hasegawa, M. Ishida, T. Nakajima, Y. Honda, O. Kitao, H. Nakai, 
 T. Vreven, K. Throssell, J. A. Montgomery, Jr., J. E. Peralta, 
 F. Ogliaro, M. J. Bearpark, J. J. Heyd, E. N. Brothers, K. N. Kudin, 
 V. N. Staroverov, T. A. Keith, R. Kobayashi, J. Normand, 
 K. Raghavachari, A. P. Rendell, J. C. Burant, S. S. Iyengar, 
 J. Tomasi, M. Cossi, J. M. Millam, M. Klene, C. Adamo, R. Cammi, 
 J. W. Ochterski, R. L. Martin, K. Morokuma, O. Farkas, 
 J. B. Foresman, and D. J. Fox, Gaussian, Inc., Wallingford CT, 2016.
 
 ******************************************
 Gaussian 16:  EM64L-G16RevA.03 25-Dec-2016
                19-Jul-2021 
 ******************************************
 %chk=IsoP_pybabel_01_036_gaussian.chk
 %nproc=4
 Will use up to    4 processors via shared memory.
 %mem=4000Mb
 -----------------------------
 #p opt=loose m062x/6-31g(d,p)
 -----------------------------
 1/7=-1,18=20,19=15,26=3,38=1/1,3;
 2/9=110,12=2,17=6,18=5,40=1/2;
 3/5=1,6=6,7=101,11=2,25=1,30=1,71=1,74=-55/1,2,3;
 4//1;
 5/5=2,38=5/2;
 6/7=2,8=2,9=2,10=2,28=1/1;
 7//1,2,3,16;
 1/7=-1,18=20,19=15,26=3/3(2);
 2/9=110/2;
 99//99;
 2/9=110/2;
 3/5=1,6=6,7=101,11=2,25=1,30=1,71=1,74=-55/1,2,3;
 4/5=5,16=3,69=1/1;
 5/5=2,38=5/2;
 7//1,2,3,16;
 1/7=-1,18=20,19=15,26=3/3(-5);
 2/9=110/2;
 6/7=2,8=2,9=2,10=2,19=2,28=1/1;
 99/9=1/99;
 Leave Link    1 at Mon Jul 19 22:08:06 2021, MaxMem=   524288000 cpu:               0.3 elap:               0.1
 (Enter /opt/gaussian/g16_legacy/l101.exe)
 -------------------------------------------------
 Conformer number 036. Energy MM = 25.902 kcal/mol
 -------------------------------------------------
 Symbolic Z-matrix:
 Charge =  0 Multiplicity = 1
 C                     2.1473    1.1736   -9.0074 
 H                     1.8248    0.1341   -9.1552 
 H                     1.8964    1.6919   -9.9404 
 C                     3.6516    1.2307   -8.7904 
 C                     4.3058    2.5412   -9.1336 
 H                     5.3862    2.4501   -9.2741 
 H                     3.9055    2.9348   -10.0738 
 H                     4.1212    3.2789   -8.3478 
 C                     4.2995    0.1614   -8.2879 
 H                     3.7216   -0.7376   -8.0742 
 C                     5.7306    0.0675   -7.8667 
 H                     6.2788    1.0062   -7.9659 
 H                     5.7742   -0.223    -6.8114 
 H                     6.2452   -0.7003   -8.452 
 C                     2.4638    0.3547   -4.3768 
 H                     1.7774   -0.496    -4.451 
 H                     3.4822   -0.0433   -4.3352 
 H                     2.2536    0.8705   -3.4334 
 C                     2.3297    1.3021   -5.5378 
 C                     3.2351    2.502    -5.4655 
 H                     2.9508    3.2983   -6.1562 
 H                     3.2111    2.9368   -4.461 
 H                     4.2658    2.2076   -5.6858 
 C                     1.5012    1.0228   -6.5645 
 H                     0.9107    0.1077   -6.5205 
 C                     1.3442    1.7957   -7.8507 
 H                     0.2795    1.7872   -8.1175 
 H                     1.6067    2.8507   -7.73 
 
 ITRead=  0  0  0  0  0  0  0  0  0  0  0  0  0  0  0  0  0  0  0  0
 ITRead=  0  0  0  0  0  0  0  0
 MicOpt= -1 -1 -1 -1 -1 -1 -1 -1 -1 -1 -1 -1 -1 -1 -1 -1 -1 -1 -1 -1
 MicOpt= -1 -1 -1 -1 -1 -1 -1 -1
 NAtoms=     28 NQM=       28 NQMF=       0 NMMI=      0 NMMIF=      0
                NMic=       0 NMicF=      0.
                    Isotopes and Nuclear Properties:
 (Nuclear quadrupole moments (NQMom) in fm**2, nuclear magnetic moments (NMagM)
  in nuclear magnetons)

  Atom         1           2           3           4           5           6           7           8           9          10
 IAtWgt=          12           1           1          12          12           1           1           1          12           1
 AtmWgt=  12.0000000   1.0078250   1.0078250  12.0000000  12.0000000   1.0078250   1.0078250   1.0078250  12.0000000   1.0078250
 NucSpn=           0           1           1           0           0           1           1           1           0           1
 AtZEff=  -0.0000000  -0.0000000  -0.0000000  -0.0000000  -0.0000000  -0.0000000  -0.0000000  -0.0000000  -0.0000000  -0.0000000
 NQMom=    0.0000000   0.0000000   0.0000000   0.0000000   0.0000000   0.0000000   0.0000000   0.0000000   0.0000000   0.0000000
 NMagM=    0.0000000   2.7928460   2.7928460   0.0000000   0.0000000   2.7928460   2.7928460   2.7928460   0.0000000   2.7928460
 AtZNuc=   6.0000000   1.0000000   1.0000000   6.0000000   6.0000000   1.0000000   1.0000000   1.0000000   6.0000000   1.0000000

  Atom        11          12          13          14          15          16          17          18          19          20
 IAtWgt=          12           1           1           1          12           1           1           1          12          12
 AtmWgt=  12.0000000   1.0078250   1.0078250   1.0078250  12.0000000   1.0078250   1.0078250   1.0078250  12.0000000  12.0000000
 NucSpn=           0           1           1           1           0           1           1           1           0           0
 AtZEff=  -0.0000000  -0.0000000  -0.0000000  -0.0000000  -0.0000000  -0.0000000  -0.0000000  -0.0000000  -0.0000000  -0.0000000
 NQMom=    0.0000000   0.0000000   0.0000000   0.0000000   0.0000000   0.0000000   0.0000000   0.0000000   0.0000000   0.0000000
 NMagM=    0.0000000   2.7928460   2.7928460   2.7928460   0.0000000   2.7928460   2.7928460   2.7928460   0.0000000   0.0000000
 AtZNuc=   6.0000000   1.0000000   1.0000000   1.0000000   6.0000000   1.0000000   1.0000000   1.0000000   6.0000000   6.0000000

  Atom        21          22          23          24          25          26          27          28
 IAtWgt=           1           1           1          12           1          12           1           1
 AtmWgt=   1.0078250   1.0078250   1.0078250  12.0000000   1.0078250  12.0000000   1.0078250   1.0078250
 NucSpn=           1           1           1           0           1           0           1           1
 AtZEff=  -0.0000000  -0.0000000  -0.0000000  -0.0000000  -0.0000000  -0.0000000  -0.0000000  -0.0000000
 NQMom=    0.0000000   0.0000000   0.0000000   0.0000000   0.0000000   0.0000000   0.0000000   0.0000000
 NMagM=    2.7928460   2.7928460   2.7928460   0.0000000   2.7928460   0.0000000   2.7928460   2.7928460
 AtZNuc=   1.0000000   1.0000000   1.0000000   6.0000000   1.0000000   6.0000000   1.0000000   1.0000000
 Leave Link  101 at Mon Jul 19 22:08:07 2021, MaxMem=   524288000 cpu:               1.1 elap:               0.3
 (Enter /opt/gaussian/g16_legacy/l103.exe)

 GradGradGradGradGradGradGradGradGradGradGradGradGradGradGradGradGradGrad
 Berny optimization.
 Initialization pass.
                           ----------------------------
                           !    Initial Parameters    !
                           ! (Angstroms and Degrees)  !
 --------------------------                            --------------------------
 ! Name  Definition              Value          Derivative Info.                !
 --------------------------------------------------------------------------------
 ! R1    R(1,2)                  1.0984         estimate D2E/DX2                !
 ! R2    R(1,3)                  1.0964         estimate D2E/DX2                !
 ! R3    R(1,4)                  1.5209         estimate D2E/DX2                !
 ! R4    R(1,26)                 1.5395         estimate D2E/DX2                !
 ! R5    R(4,5)                  1.5044         estimate D2E/DX2                !
 ! R6    R(4,9)                  1.3475         estimate D2E/DX2                !
 ! R7    R(5,6)                  1.0933         estimate D2E/DX2                !
 ! R8    R(5,7)                  1.0951         estimate D2E/DX2                !
 ! R9    R(5,8)                  1.0935         estimate D2E/DX2                !
 ! R10   R(9,10)                 1.0899         estimate D2E/DX2                !
 ! R11   R(9,11)                 1.4947         estimate D2E/DX2                !
 ! R12   R(11,12)                1.0916         estimate D2E/DX2                !
 ! R13   R(11,13)                1.0954         estimate D2E/DX2                !
 ! R14   R(11,14)                1.094          estimate D2E/DX2                !
 ! R15   R(15,16)                1.0956         estimate D2E/DX2                !
 ! R16   R(15,17)                1.0942         estimate D2E/DX2                !
 ! R17   R(15,18)                1.0956         estimate D2E/DX2                !
 ! R18   R(15,19)                1.5045         estimate D2E/DX2                !
 ! R19   R(19,20)                1.5049         estimate D2E/DX2                !
 ! R20   R(19,24)                1.3485         estimate D2E/DX2                !
 ! R21   R(20,21)                1.0918         estimate D2E/DX2                !
 ! R22   R(20,22)                1.0948         estimate D2E/DX2                !
 ! R23   R(20,23)                1.0943         estimate D2E/DX2                !
 ! R24   R(24,25)                1.09           estimate D2E/DX2                !
 ! R25   R(24,26)                1.5088         estimate D2E/DX2                !
 ! R26   R(26,27)                1.0977         estimate D2E/DX2                !
 ! R27   R(26,28)                1.0938         estimate D2E/DX2                !
 ! A1    A(2,1,3)              105.4082         estimate D2E/DX2                !
 ! A2    A(2,1,4)              110.19           estimate D2E/DX2                !
 ! A3    A(2,1,26)             109.2917         estimate D2E/DX2                !
 ! A4    A(3,1,4)              109.2689         estimate D2E/DX2                !
 ! A5    A(3,1,26)             109.2069         estimate D2E/DX2                !
 ! A6    A(4,1,26)             113.1785         estimate D2E/DX2                !
 ! A7    A(1,4,5)              115.484          estimate D2E/DX2                !
 ! A8    A(1,4,9)              119.9324         estimate D2E/DX2                !
 ! A9    A(5,4,9)              124.5599         estimate D2E/DX2                !
 ! A10   A(4,5,6)              112.7345         estimate D2E/DX2                !
 ! A11   A(4,5,7)              110.4885         estimate D2E/DX2                !
 ! A12   A(4,5,8)              110.5072         estimate D2E/DX2                !
 ! A13   A(6,5,7)              106.3111         estimate D2E/DX2                !
 ! A14   A(6,5,8)              108.384          estimate D2E/DX2                !
 ! A15   A(7,5,8)              108.2277         estimate D2E/DX2                !
 ! A16   A(4,9,10)             118.2126         estimate D2E/DX2                !
 ! A17   A(4,9,11)             127.9728         estimate D2E/DX2                !
 ! A18   A(10,9,11)            113.6153         estimate D2E/DX2                !
 ! A19   A(9,11,12)            113.6531         estimate D2E/DX2                !
 ! A20   A(9,11,13)            109.0402         estimate D2E/DX2                !
 ! A21   A(9,11,14)            110.1009         estimate D2E/DX2                !
 ! A22   A(12,11,13)           107.1945         estimate D2E/DX2                !
 ! A23   A(12,11,14)           108.583          estimate D2E/DX2                !
 ! A24   A(13,11,14)           108.093          estimate D2E/DX2                !
 ! A25   A(16,15,17)           107.6529         estimate D2E/DX2                !
 ! A26   A(16,15,18)           107.6791         estimate D2E/DX2                !
 ! A27   A(16,15,19)           112.3864         estimate D2E/DX2                !
 ! A28   A(17,15,18)           108.4869         estimate D2E/DX2                !
 ! A29   A(17,15,19)           109.9591         estimate D2E/DX2                !
 ! A30   A(18,15,19)           110.5447         estimate D2E/DX2                !
 ! A31   A(15,19,20)           114.2922         estimate D2E/DX2                !
 ! A32   A(15,19,24)           120.7881         estimate D2E/DX2                !
 ! A33   A(20,19,24)           124.8439         estimate D2E/DX2                !
 ! A34   A(19,20,21)           113.2334         estimate D2E/DX2                !
 ! A35   A(19,20,22)           110.337          estimate D2E/DX2                !
 ! A36   A(19,20,23)           110.0282         estimate D2E/DX2                !
 ! A37   A(21,20,22)           106.5633         estimate D2E/DX2                !
 ! A38   A(21,20,23)           108.3076         estimate D2E/DX2                !
 ! A39   A(22,20,23)           108.1912         estimate D2E/DX2                !
 ! A40   A(19,24,25)           118.424          estimate D2E/DX2                !
 ! A41   A(19,24,26)           127.3638         estimate D2E/DX2                !
 ! A42   A(25,24,26)           114.0873         estimate D2E/DX2                !
 ! A43   A(1,26,24)            112.2864         estimate D2E/DX2                !
 ! A44   A(1,26,27)            108.6784         estimate D2E/DX2                !
 ! A45   A(1,26,28)            110.3326         estimate D2E/DX2                !
 ! A46   A(24,26,27)           107.7088         estimate D2E/DX2                !
 ! A47   A(24,26,28)           112.0271         estimate D2E/DX2                !
 ! A48   A(27,26,28)           105.4896         estimate D2E/DX2                !
 ! D1    D(2,1,4,5)            155.8227         estimate D2E/DX2                !
 ! D2    D(2,1,4,9)            -25.8654         estimate D2E/DX2                !
 ! D3    D(3,1,4,5)             40.454          estimate D2E/DX2                !
 ! D4    D(3,1,4,9)           -141.2341         estimate D2E/DX2                !
 ! D5    D(26,1,4,5)           -81.4691         estimate D2E/DX2                !
 ! D6    D(26,1,4,9)            96.8428         estimate D2E/DX2                !
 ! D7    D(2,1,26,24)           57.8417         estimate D2E/DX2                !
 ! D8    D(2,1,26,27)          -61.208          estimate D2E/DX2                !
 ! D9    D(2,1,26,28)         -176.4167         estimate D2E/DX2                !
 ! D10   D(3,1,26,24)          172.6785         estimate D2E/DX2                !
 ! D11   D(3,1,26,27)           53.6288         estimate D2E/DX2                !
 ! D12   D(3,1,26,28)          -61.5798         estimate D2E/DX2                !
 ! D13   D(4,1,26,24)          -65.3637         estimate D2E/DX2                !
 ! D14   D(4,1,26,27)          175.5866         estimate D2E/DX2                !
 ! D15   D(4,1,26,28)           60.3779         estimate D2E/DX2                !
 ! D16   D(1,4,5,6)           -161.5217         estimate D2E/DX2                !
 ! D17   D(1,4,5,7)            -42.7289         estimate D2E/DX2                !
 ! D18   D(1,4,5,8)             77.0245         estimate D2E/DX2                !
 ! D19   D(9,4,5,6)             20.2548         estimate D2E/DX2                !
 ! D20   D(9,4,5,7)            139.0476         estimate D2E/DX2                !
 ! D21   D(9,4,5,8)           -101.1991         estimate D2E/DX2                !
 ! D22   D(1,4,9,10)             1.708          estimate D2E/DX2                !
 ! D23   D(1,4,9,11)          -172.8028         estimate D2E/DX2                !
 ! D24   D(5,4,9,10)           179.8576         estimate D2E/DX2                !
 ! D25   D(5,4,9,11)             5.3468         estimate D2E/DX2                !
 ! D26   D(4,9,11,12)            1.8797         estimate D2E/DX2                !
 ! D27   D(4,9,11,13)          121.3889         estimate D2E/DX2                !
 ! D28   D(4,9,11,14)         -120.1772         estimate D2E/DX2                !
 ! D29   D(10,9,11,12)        -172.8417         estimate D2E/DX2                !
 ! D30   D(10,9,11,13)         -53.3324         estimate D2E/DX2                !
 ! D31   D(10,9,11,14)          65.1015         estimate D2E/DX2                !
 ! D32   D(16,15,19,20)        178.8581         estimate D2E/DX2                !
 ! D33   D(16,15,19,24)         -4.1593         estimate D2E/DX2                !
 ! D34   D(17,15,19,20)        -61.2406         estimate D2E/DX2                !
 ! D35   D(17,15,19,24)        115.742          estimate D2E/DX2                !
 ! D36   D(18,15,19,20)         58.5194         estimate D2E/DX2                !
 ! D37   D(18,15,19,24)       -124.4981         estimate D2E/DX2                !
 ! D38   D(15,19,20,21)       -164.845          estimate D2E/DX2                !
 ! D39   D(15,19,20,22)        -45.5063         estimate D2E/DX2                !
 ! D40   D(15,19,20,23)         73.8005         estimate D2E/DX2                !
 ! D41   D(24,19,20,21)         18.3136         estimate D2E/DX2                !
 ! D42   D(24,19,20,22)        137.6523         estimate D2E/DX2                !
 ! D43   D(24,19,20,23)       -103.0409         estimate D2E/DX2                !
 ! D44   D(15,19,24,25)          1.6398         estimate D2E/DX2                !
 ! D45   D(15,19,24,26)       -174.0381         estimate D2E/DX2                !
 ! D46   D(20,19,24,25)        178.2883         estimate D2E/DX2                !
 ! D47   D(20,19,24,26)          2.6105         estimate D2E/DX2                !
 ! D48   D(19,24,26,1)          98.2159         estimate D2E/DX2                !
 ! D49   D(19,24,26,27)       -142.1673         estimate D2E/DX2                !
 ! D50   D(19,24,26,28)        -26.5977         estimate D2E/DX2                !
 ! D51   D(25,24,26,1)         -77.6208         estimate D2E/DX2                !
 ! D52   D(25,24,26,27)         41.996          estimate D2E/DX2                !
 ! D53   D(25,24,26,28)        157.5657         estimate D2E/DX2                !
 --------------------------------------------------------------------------------
 Trust Radius=3.00D-01 FncErr=1.00D-07 GrdErr=1.00D-06 EigMax=2.50D+02 EigMin=1.00D-04
 Number of steps in this run=    138 maximum allowed number of steps=    168.
 GradGradGradGradGradGradGradGradGradGradGradGradGradGradGradGradGradGrad

 Leave Link  103 at Mon Jul 19 22:08:07 2021, MaxMem=   524288000 cpu:               0.2 elap:               0.2
 (Enter /opt/gaussian/g16_legacy/l202.exe)
                          Input orientation:                          
 ---------------------------------------------------------------------
 Center     Atomic      Atomic             Coordinates (Angstroms)
 Number     Number       Type             X           Y           Z
 ---------------------------------------------------------------------
      1          6           0        2.147300    1.173600   -9.007400
      2          1           0        1.824800    0.134100   -9.155200
      3          1           0        1.896400    1.691900   -9.940400
      4          6           0        3.651600    1.230700   -8.790400
      5          6           0        4.305800    2.541200   -9.133600
      6          1           0        5.386200    2.450100   -9.274100
      7          1           0        3.905500    2.934800  -10.073800
      8          1           0        4.121200    3.278900   -8.347800
      9          6           0        4.299500    0.161400   -8.287900
     10          1           0        3.721600   -0.737600   -8.074200
     11          6           0        5.730600    0.067500   -7.866700
     12          1           0        6.278800    1.006200   -7.965900
     13          1           0        5.774200   -0.223000   -6.811400
     14          1           0        6.245200   -0.700300   -8.452000
     15          6           0        2.463800    0.354700   -4.376800
     16          1           0        1.777400   -0.496000   -4.451000
     17          1           0        3.482200   -0.043300   -4.335200
     18          1           0        2.253600    0.870500   -3.433400
     19          6           0        2.329700    1.302100   -5.537800
     20          6           0        3.235100    2.502000   -5.465500
     21          1           0        2.950800    3.298300   -6.156200
     22          1           0        3.211100    2.936800   -4.461000
     23          1           0        4.265800    2.207600   -5.685800
     24          6           0        1.501200    1.022800   -6.564500
     25          1           0        0.910700    0.107700   -6.520500
     26          6           0        1.344200    1.795700   -7.850700
     27          1           0        0.279500    1.787200   -8.117500
     28          1           0        1.606700    2.850700   -7.730000
 ---------------------------------------------------------------------
                    Distance matrix (angstroms):
                    1          2          3          4          5
     1  C    0.000000
     2  H    1.098368   0.000000
     3  H    1.096392   1.745969   0.000000
     4  C    1.520943   2.161668   2.148472   0.000000
     5  C    2.558394   3.456871   2.679075   1.504385   0.000000
     6  H    3.491569   4.249890   3.632840   2.174796   1.093299
     7  H    2.707453   3.607916   2.366237   2.148380   1.095051
     8  H    2.960345   3.976822   3.163017   2.147450   1.093508
     9  C    2.484793   2.622422   3.293642   1.347473   2.525608
    10  H    2.646123   2.350802   3.566024   2.095721   3.494874
    11  C    3.919782   4.113386   4.651881   2.555092   3.123185
    12  H    4.264040   4.691813   4.855334   2.762676   2.759072
    13  H    4.464002   4.606374   5.338054   3.245784   3.897385
    14  H    4.540127   4.553092   5.181700   3.251159   3.838382
    15  C    4.713091   4.825981   5.750104   4.653827   5.549855
    16  H    4.866741   4.746448   5.910548   5.032346   6.127327
    17  H    5.009217   5.100083   6.078153   4.636872   5.512041
    18  H    5.583247   5.784907   6.568359   5.548117   6.284508
    19  C    3.476767   3.834675   4.441011   3.511684   4.286038
    20  C    3.936116   4.605408   4.740581   3.583941   3.821373
    21  H    3.645450   4.502670   4.244108   3.421272   3.357698
    22  H    4.991022   5.640254   5.770792   4.674240   4.815398
    23  H    4.073110   4.721718   4.897104   3.312117   3.464132
    24  C    2.531392   2.757940   3.464185   3.101947   4.095314
    25  H    2.974894   2.788892   3.895768   3.731770   4.927161
    26  C    1.539459   2.166474   2.163919   2.554673   3.312503
    27  H    2.158032   2.489480   2.438527   3.483324   4.220434
    28  H    2.176388   3.075496   2.512491   2.816108   3.057944
                    6          7          8          9         10
     6  H    0.000000
     7  H    1.751264   0.000000
     8  H    1.773462   1.773135   0.000000
     9  C    2.718760   3.322111   3.123169   0.000000
    10  H    3.791053   4.185540   4.045591   1.089879   0.000000
    11  C    2.788578   4.052615   3.624185   1.494749   2.174241
    12  H    2.143121   3.714202   3.156937   2.176005   3.097069
    13  H    3.655256   4.909887   4.166082   2.121923   2.464273
    14  H    3.367306   4.617183   4.511792   2.134292   2.551996
    15  C    6.075744   6.418039   5.202573   4.324796   4.055360
    16  H    6.705612   6.922072   5.910019   4.638423   4.118964
    17  H    5.851068   6.479181   5.248456   4.041500   3.810444
    18  H    6.813376   7.147379   5.782702   5.315515   5.126211
    19  C    4.961858   5.071898   3.874701   3.569924   3.539927
    20  C    4.374398   4.676877   3.113904   3.818023   4.187721
    21  H    4.046223   4.048601   2.484617   4.025330   4.534462
    22  H    5.304137   5.655592   4.006561   4.851044   5.178517
    23  H    3.766962   4.462419   2.873123   3.310437   3.830772
    24  C    4.946953   4.663860   3.890314   3.397440   3.210666
    25  H    5.753195   5.439417   4.868557   3.822375   3.321095
    26  C    4.334982   3.577706   3.187275   3.405272   3.481320
    27  H    5.277835   4.276911   4.127574   4.339661   4.269021
    28  H    4.102359   3.284045   2.624451   3.846396   4.179375
                   11         12         13         14         15
    11  C    0.000000
    12  H    1.091568   0.000000
    13  H    1.095422   1.760234   0.000000
    14  H    1.094032   1.774701   1.772350   0.000000
    15  C    4.788932   5.278287   4.149670   5.658557   0.000000
    16  H    5.254743   5.905398   4.649777   6.000915   1.095601
    17  H    4.187967   4.701532   3.378923   5.001386   1.094200
    18  H    5.691088   6.063349   5.000125   6.602017   1.095553
    19  C    4.302805   4.645279   3.976502   5.275728   1.504483
    20  C    4.233211   4.213494   3.960316   5.313625   2.528056
    21  H    4.592512   4.427677   4.560749   5.666795   3.473934
    22  H    5.116596   5.042055   4.698744   6.193734   2.689384
    23  H    3.388509   3.270227   3.074095   4.475016   2.897227
    24  C    4.527267   4.978921   4.457747   5.388624   2.481731
    25  H    5.004529   5.631428   4.883402   5.730658   2.658680
    26  C    4.714598   4.998686   4.977971   5.532755   3.924024
    27  H    5.721430   6.051822   5.994875   6.472181   4.562462
    28  H    4.977092   5.028553   5.259231   5.886133   4.267152
                   16         17         18         19         20
    16  H    0.000000
    17  H    1.767679   0.000000
    18  H    1.769067   1.777001   0.000000
    19  C    2.172403   2.141169   2.149551   0.000000
    20  C    3.484552   2.795924   2.784702   1.504904   0.000000
    21  H    4.322185   3.842488   3.714019   2.180137   1.091781
    22  H    3.720176   2.995049   2.498472   2.146767   1.094828
    23  H    3.876380   2.739471   3.303043   2.142503   1.094324
    24  C    2.617236   3.167129   3.223831   1.348530   2.530265
    25  H    2.323457   3.378010   3.451873   2.099012   3.499790
    26  C    4.122804   4.506851   4.603862   2.562100   3.124667
    27  H    4.571644   5.283352   5.165095   3.330690   4.034800
    28  H    4.688430   4.839153   4.774981   2.779682   2.810914
                   21         22         23         24         25
    21  H    0.000000
    22  H    1.752753   0.000000
    23  H    1.772041   1.773206   0.000000
    24  C    2.728727   3.318413   3.133509   0.000000
    25  H    3.804557   4.187742   4.045121   1.089970   0.000000
    26  C    2.776743   4.034537   3.659536   1.508752   2.192418
    27  H    3.642247   4.825542   4.688335   2.118648   2.401987
    28  H    2.117498   3.642509   3.415135   2.170424   3.077557
                   26         27         28
    26  C    0.000000
    27  H    1.097652   0.000000
    28  H    1.093846   1.744319   0.000000
 Stoichiometry    C10H18
 Framework group  C1[X(C10H18)]
 Deg. of freedom    78
 Full point group                 C1      NOp   1
 Largest Abelian subgroup         C1      NOp   1
 Largest concise Abelian subgroup C1      NOp   1
                         Standard orientation:                         
 ---------------------------------------------------------------------
 Center     Atomic      Atomic             Coordinates (Angstroms)
 Number     Number       Type             X           Y           Z
 ---------------------------------------------------------------------
      1          6           0       -1.020159   -1.588072   -0.711608
      2          1           0       -0.966084   -1.538280   -1.807513
      3          1           0       -1.718498   -2.404043   -0.491179
      4          6           0       -1.576339   -0.286989   -0.153830
      5          6           0       -2.227082   -0.388361    1.198735
      6          1           0       -2.881136    0.459945    1.417582
      7          1           0       -2.855063   -1.283637    1.255815
      8          1           0       -1.469365   -0.451377    1.984645
      9          6           0       -1.436079    0.857710   -0.850732
     10          1           0       -0.944742    0.812377   -1.822519
     11          6           0       -1.775262    2.246875   -0.415475
     12          1           0       -2.153299    2.305470    0.606864
     13          1           0       -0.873252    2.866592   -0.463205
     14          1           0       -2.521167    2.680157   -1.088378
     15          6           0        2.865801    1.066809   -0.458344
     16          1           0        3.159493    0.785121   -1.475565
     17          1           0        2.407470    2.059145   -0.508087
     18          1           0        3.778068    1.135326    0.144410
     19          6           0        1.902049    0.086011    0.152136
     20          6           0        1.490698    0.417616    1.561237
     21          1           0        1.013251   -0.417083    2.078255
     22          1           0        2.365836    0.694816    2.157844
     23          1           0        0.796381    1.263470    1.559761
     24          6           0        1.425501   -0.951357   -0.565710
     25          1           0        1.775948   -1.077983   -1.590009
     26          6           0        0.368145   -1.943890   -0.149524
     27          1           0        0.662696   -2.927711   -0.537051
     28          1           0        0.319828   -2.060419    0.937023
 ---------------------------------------------------------------------
 Rotational constants (GHZ):           1.5168999           0.9354519           0.7603383
 Leave Link  202 at Mon Jul 19 22:08:07 2021, MaxMem=   524288000 cpu:               0.2 elap:               0.2
 (Enter /opt/gaussian/g16_legacy/l301.exe)
 Standard basis: 6-31G(d,p) (6D, 7F)
 Ernie: Thresh=  0.10000D-02 Tol=  0.10000D-05 Strict=F.
 There are   240 symmetry adapted cartesian basis functions of A   symmetry.
 There are   240 symmetry adapted basis functions of A   symmetry.
   240 basis functions,   406 primitive gaussians,   240 cartesian basis functions
    39 alpha electrons       39 beta electrons
       nuclear repulsion energy       542.8721530420 Hartrees.
 IExCor= 4336 DFT=T Ex+Corr=M062X ExCW=0 ScaHFX=  0.540000
 ScaDFX=  1.000000  1.000000  1.000000  1.000000 ScalE2=  1.000000  1.000000
 IRadAn=      5 IRanWt=     -1 IRanGd=            0 ICorTp=0 IEmpDi=  4
 NAtoms=   28 NActive=   28 NUniq=   28 SFac= 1.00D+00 NAtFMM=   60 NAOKFM=F Big=F
 Integral buffers will be    131072 words long.
 Raffenetti 2 integral format.
 Two-electron integral symmetry is turned on.
 Leave Link  301 at Mon Jul 19 22:08:08 2021, MaxMem=   524288000 cpu:               0.7 elap:               0.3
 (Enter /opt/gaussian/g16_legacy/l302.exe)
 NPDir=0 NMtPBC=     1 NCelOv=     1 NCel=       1 NClECP=     1 NCelD=      1
         NCelK=      1 NCelE2=     1 NClLst=     1 CellRange=     0.0.
 One-electron integrals computed using PRISM.
 One-electron integral symmetry used in STVInt
 NBasis=   240 RedAO= T EigKep=  2.36D-03  NBF=   240
 NBsUse=   240 1.00D-06 EigRej= -1.00D+00 NBFU=   240
 Precomputing XC quadrature grid using
 IXCGrd= 4 IRadAn=           5 IRanWt=          -1 IRanGd=           0 AccXCQ= 0.00D+00.
 Generated NRdTot=       0 NPtTot=           0 NUsed=           0 NTot=          32
 NSgBfM=   240   240   240   240   240 MxSgAt=    28 MxSgA2=    28.
 Leave Link  302 at Mon Jul 19 22:08:10 2021, MaxMem=   524288000 cpu:               4.0 elap:               1.8
 (Enter /opt/gaussian/g16_legacy/l303.exe)
 DipDrv:  MaxL=1.
 Leave Link  303 at Mon Jul 19 22:08:10 2021, MaxMem=   524288000 cpu:               0.2 elap:               0.1
 (Enter /opt/gaussian/g16_legacy/l401.exe)
 ExpMin= 1.61D-01 ExpMax= 3.05D+03 ExpMxC= 4.57D+02 IAcc=3 IRadAn=         5 AccDes= 0.00D+00
 Harris functional with IExCor= 1009 and IRadAn=       5 diagonalized for initial guess.
 HarFok:  IExCor= 1009 AccDes= 0.00D+00 IRadAn=         5 IDoV= 1 UseB2=F ITyADJ=14
 ICtDFT=  3500011 ScaDFX=  1.000000  1.000000  1.000000  1.000000
 FoFCou: FMM=F IPFlag=           0 FMFlag=      100000 FMFlg1=           0
         NFxFlg=           0 DoJE=T BraDBF=F KetDBF=T FulRan=T
         wScrn=  0.000000 ICntrl=       500 IOpCl=  0 I1Cent=   200000004 NGrid=           0
         NMat0=    1 NMatS0=      1 NMatT0=    0 NMatD0=    1 NMtDS0=    0 NMtDT0=    0
 Petite list used in FoFCou.
 Harris En= -391.652746984994    
 JPrj=0 DoOrth=F DoCkMO=F.
 Leave Link  401 at Mon Jul 19 22:08:16 2021, MaxMem=   524288000 cpu:              20.7 elap:               5.3
 (Enter /opt/gaussian/g16_legacy/l502.exe)
 Keep R1 ints in memory in canonical form, NReq=425198025.
 FoFCou: FMM=F IPFlag=           0 FMFlag=           0 FMFlg1=           0
         NFxFlg=           0 DoJE=F BraDBF=F KetDBF=F FulRan=T
         wScrn=  0.000000 ICntrl=       600 IOpCl=  0 I1Cent=           0 NGrid=           0
         NMat0=    1 NMatS0=  28920 NMatT0=    0 NMatD0=    1 NMtDS0=    0 NMtDT0=    0
 Symmetry not used in FoFCou.
 Two-electron integral symmetry not used.
 Closed shell SCF:
 Using DIIS extrapolation, IDIIS=  1040.
 NGot=   524288000 LenX=   105970886 LenY=   105912845
 Requested convergence on RMS density matrix=1.00D-08 within 128 cycles.
 Requested convergence on MAX density matrix=1.00D-06.
 Requested convergence on             energy=1.00D-06.
 No special actions if energy rises.
 Integral accuracy reduced to 1.0D-05 until final iterations.

 Cycle   1  Pass 0  IDiag  1:
 E= -391.296130834307    
 DIIS: error= 2.63D-02 at cycle   1 NSaved=   1.
 NSaved= 1 IEnMin= 1 EnMin= -391.296130834307     IErMin= 1 ErrMin= 2.63D-02
 ErrMax= 2.63D-02  0.00D+00 EMaxC= 1.00D-01 BMatC= 3.73D-01 BMatP= 3.73D-01
 IDIUse=3 WtCom= 7.37D-01 WtEn= 2.63D-01
 Coeff-Com:  0.100D+01
 Coeff-En:   0.100D+01
 Coeff:      0.100D+01
 Gap=     0.343 Goal=   None    Shift=    0.000
 GapD=    0.343 DampG=1.000 DampE=0.500 DampFc=0.5000 IDamp=-1.
 Damping current iteration by 5.00D-01
 RMSDP=4.55D-03 MaxDP=1.15D-01              OVMax= 1.45D-01

 Cycle   2  Pass 0  IDiag  1:
 E= -391.504952768250     Delta-E=       -0.208821933943 Rises=F Damp=T
 DIIS: error= 9.16D-03 at cycle   2 NSaved=   2.
 NSaved= 2 IEnMin= 2 EnMin= -391.504952768250     IErMin= 2 ErrMin= 9.16D-03
 ErrMax= 9.16D-03  0.00D+00 EMaxC= 1.00D-01 BMatC= 2.11D-02 BMatP= 3.73D-01
 IDIUse=3 WtCom= 9.08D-01 WtEn= 9.16D-02
 Coeff-Com: -0.137D+00 0.114D+01
 Coeff-En:   0.000D+00 0.100D+01
 Coeff:     -0.125D+00 0.112D+01
 Gap=     0.381 Goal=   None    Shift=    0.000
 RMSDP=9.28D-04 MaxDP=2.74D-02 DE=-2.09D-01 OVMax= 6.48D-02

 Cycle   3  Pass 0  IDiag  1:
 E= -391.687802659750     Delta-E=       -0.182849891500 Rises=F Damp=F
 DIIS: error= 1.59D-03 at cycle   3 NSaved=   3.
 NSaved= 3 IEnMin= 3 EnMin= -391.687802659750     IErMin= 3 ErrMin= 1.59D-03
 ErrMax= 1.59D-03  0.00D+00 EMaxC= 1.00D-01 BMatC= 1.14D-03 BMatP= 2.11D-02
 IDIUse=3 WtCom= 9.84D-01 WtEn= 1.59D-02
 Coeff-Com: -0.360D-01 0.173D+00 0.863D+00
 Coeff-En:   0.000D+00 0.000D+00 0.100D+01
 Coeff:     -0.355D-01 0.170D+00 0.866D+00
 Gap=     0.341 Goal=   None    Shift=    0.000
 RMSDP=2.47D-04 MaxDP=5.80D-03 DE=-1.83D-01 OVMax= 9.41D-03

 Cycle   4  Pass 0  IDiag  1:
 E= -391.688612650736     Delta-E=       -0.000809990986 Rises=F Damp=F
 DIIS: error= 8.26D-04 at cycle   4 NSaved=   4.
 NSaved= 4 IEnMin= 4 EnMin= -391.688612650736     IErMin= 4 ErrMin= 8.26D-04
 ErrMax= 8.26D-04  0.00D+00 EMaxC= 1.00D-01 BMatC= 3.18D-04 BMatP= 1.14D-03
 IDIUse=3 WtCom= 9.92D-01 WtEn= 8.26D-03
 Coeff-Com: -0.806D-02 0.302D-01 0.356D+00 0.621D+00
 Coeff-En:   0.000D+00 0.000D+00 0.116D+00 0.884D+00
 Coeff:     -0.800D-02 0.299D-01 0.354D+00 0.624D+00
 Gap=     0.341 Goal=   None    Shift=    0.000
 RMSDP=9.93D-05 MaxDP=3.68D-03 DE=-8.10D-04 OVMax= 6.64D-03

 Cycle   5  Pass 0  IDiag  1:
 E= -391.688892236775     Delta-E=       -0.000279586039 Rises=F Damp=F
 DIIS: error= 4.89D-04 at cycle   5 NSaved=   5.
 NSaved= 5 IEnMin= 5 EnMin= -391.688892236775     IErMin= 5 ErrMin= 4.89D-04
 ErrMax= 4.89D-04  0.00D+00 EMaxC= 1.00D-01 BMatC= 3.53D-05 BMatP= 3.18D-04
 IDIUse=3 WtCom= 9.95D-01 WtEn= 4.89D-03
 Coeff-Com: -0.629D-03 0.137D-02 0.110D+00 0.306D+00 0.584D+00
 Coeff-En:   0.000D+00 0.000D+00 0.000D+00 0.000D+00 0.100D+01
 Coeff:     -0.626D-03 0.136D-02 0.109D+00 0.305D+00 0.586D+00
 Gap=     0.341 Goal=   None    Shift=    0.000
 RMSDP=2.67D-05 MaxDP=1.34D-03 DE=-2.80D-04 OVMax= 2.69D-03

 Cycle   6  Pass 0  IDiag  1:
 E= -391.688925430699     Delta-E=       -0.000033193925 Rises=F Damp=F
 DIIS: error= 1.03D-04 at cycle   6 NSaved=   6.
 NSaved= 6 IEnMin= 6 EnMin= -391.688925430699     IErMin= 6 ErrMin= 1.03D-04
 ErrMax= 1.03D-04  0.00D+00 EMaxC= 1.00D-01 BMatC= 2.18D-06 BMatP= 3.53D-05
 IDIUse=3 WtCom= 9.99D-01 WtEn= 1.03D-03
 Coeff-Com:  0.754D-03-0.281D-02 0.116D-01 0.706D-01 0.244D+00 0.676D+00
 Coeff-En:   0.000D+00 0.000D+00 0.000D+00 0.000D+00 0.000D+00 0.100D+01
 Coeff:      0.753D-03-0.281D-02 0.116D-01 0.705D-01 0.244D+00 0.676D+00
 Gap=     0.341 Goal=   None    Shift=    0.000
 RMSDP=6.89D-06 MaxDP=3.38D-04 DE=-3.32D-05 OVMax= 5.50D-04

 Initial convergence to 1.0D-05 achieved.  Increase integral accuracy.
 Cycle   7  Pass 1  IDiag  1:
 E= -391.688963681077     Delta-E=       -0.000038250378 Rises=F Damp=F
 DIIS: error= 1.60D-05 at cycle   1 NSaved=   1.
 NSaved= 1 IEnMin= 1 EnMin= -391.688963681077     IErMin= 1 ErrMin= 1.60D-05
 ErrMax= 1.60D-05  0.00D+00 EMaxC= 1.00D-01 BMatC= 2.35D-07 BMatP= 2.35D-07
 IDIUse=1 WtCom= 1.00D+00 WtEn= 0.00D+00
 Coeff-Com:  0.100D+01
 Coeff:      0.100D+01
 Gap=     0.341 Goal=   None    Shift=    0.000
 RMSDP=6.89D-06 MaxDP=3.38D-04 DE=-3.83D-05 OVMax= 2.49D-04

 Cycle   8  Pass 1  IDiag  1:
 E= -391.688963788871     Delta-E=       -0.000000107794 Rises=F Damp=F
 DIIS: error= 2.15D-05 at cycle   2 NSaved=   2.
 NSaved= 2 IEnMin= 2 EnMin= -391.688963788871     IErMin= 1 ErrMin= 1.60D-05
 ErrMax= 2.15D-05  0.00D+00 EMaxC= 1.00D-01 BMatC= 1.69D-07 BMatP= 2.35D-07
 IDIUse=1 WtCom= 1.00D+00 WtEn= 0.00D+00
 Coeff-Com:  0.451D+00 0.549D+00
 Coeff:      0.451D+00 0.549D+00
 Gap=     0.341 Goal=   None    Shift=    0.000
 RMSDP=1.79D-06 MaxDP=7.92D-05 DE=-1.08D-07 OVMax= 1.56D-04

 Cycle   9  Pass 1  IDiag  1:
 E= -391.688963940857     Delta-E=       -0.000000151986 Rises=F Damp=F
 DIIS: error= 7.45D-06 at cycle   3 NSaved=   3.
 NSaved= 3 IEnMin= 3 EnMin= -391.688963940857     IErMin= 3 ErrMin= 7.45D-06
 ErrMax= 7.45D-06  0.00D+00 EMaxC= 1.00D-01 BMatC= 1.36D-08 BMatP= 1.69D-07
 IDIUse=1 WtCom= 1.00D+00 WtEn= 0.00D+00
 Coeff-Com:  0.201D-01 0.209D+00 0.771D+00
 Coeff:      0.201D-01 0.209D+00 0.771D+00
 Gap=     0.341 Goal=   None    Shift=    0.000
 RMSDP=6.49D-07 MaxDP=2.26D-05 DE=-1.52D-07 OVMax= 6.09D-05

 Cycle  10  Pass 1  IDiag  1:
 E= -391.688963952888     Delta-E=       -0.000000012031 Rises=F Damp=F
 DIIS: error= 2.48D-06 at cycle   4 NSaved=   4.
 NSaved= 4 IEnMin= 4 EnMin= -391.688963952888     IErMin= 4 ErrMin= 2.48D-06
 ErrMax= 2.48D-06  0.00D+00 EMaxC= 1.00D-01 BMatC= 2.62D-09 BMatP= 1.36D-08
 IDIUse=1 WtCom= 1.00D+00 WtEn= 0.00D+00
 Coeff-Com: -0.332D-01 0.522D-01 0.400D+00 0.581D+00
 Coeff:     -0.332D-01 0.522D-01 0.400D+00 0.581D+00
 Gap=     0.341 Goal=   None    Shift=    0.000
 RMSDP=2.33D-07 MaxDP=7.20D-06 DE=-1.20D-08 OVMax= 1.49D-05

 Cycle  11  Pass 1  IDiag  1:
 E= -391.688963955609     Delta-E=       -0.000000002721 Rises=F Damp=F
 DIIS: error= 2.22D-07 at cycle   5 NSaved=   5.
 NSaved= 5 IEnMin= 5 EnMin= -391.688963955609     IErMin= 5 ErrMin= 2.22D-07
 ErrMax= 2.22D-07  0.00D+00 EMaxC= 1.00D-01 BMatC= 1.94D-11 BMatP= 2.62D-09
 IDIUse=1 WtCom= 1.00D+00 WtEn= 0.00D+00
 Coeff-Com: -0.468D-02-0.441D-02 0.109D-01 0.657D-01 0.932D+00
 Coeff:     -0.468D-02-0.441D-02 0.109D-01 0.657D-01 0.932D+00
 Gap=     0.341 Goal=   None    Shift=    0.000
 RMSDP=3.85D-08 MaxDP=1.11D-06 DE=-2.72D-09 OVMax= 2.07D-06

 Cycle  12  Pass 1  IDiag  1:
 E= -391.688963955642     Delta-E=       -0.000000000033 Rises=F Damp=F
 DIIS: error= 6.75D-08 at cycle   6 NSaved=   6.
 NSaved= 6 IEnMin= 6 EnMin= -391.688963955642     IErMin= 6 ErrMin= 6.75D-08
 ErrMax= 6.75D-08  0.00D+00 EMaxC= 1.00D-01 BMatC= 3.14D-12 BMatP= 1.94D-11
 IDIUse=1 WtCom= 1.00D+00 WtEn= 0.00D+00
 Coeff-Com:  0.124D-02-0.569D-02-0.291D-01-0.260D-01 0.293D+00 0.767D+00
 Coeff:      0.124D-02-0.569D-02-0.291D-01-0.260D-01 0.293D+00 0.767D+00
 Gap=     0.341 Goal=   None    Shift=    0.000
 RMSDP=1.38D-08 MaxDP=3.57D-07 DE=-3.25D-11 OVMax= 5.49D-07

 Cycle  13  Pass 1  IDiag  1:
 E= -391.688963955649     Delta-E=       -0.000000000007 Rises=F Damp=F
 DIIS: error= 1.75D-08 at cycle   7 NSaved=   7.
 NSaved= 7 IEnMin= 7 EnMin= -391.688963955649     IErMin= 7 ErrMin= 1.75D-08
 ErrMax= 1.75D-08  0.00D+00 EMaxC= 1.00D-01 BMatC= 1.36D-13 BMatP= 3.14D-12
 IDIUse=1 WtCom= 1.00D+00 WtEn= 0.00D+00
 Coeff-Com:  0.526D-03-0.144D-02-0.849D-02-0.985D-02 0.468D-01 0.220D+00
 Coeff-Com:  0.753D+00
 Coeff:      0.526D-03-0.144D-02-0.849D-02-0.985D-02 0.468D-01 0.220D+00
 Coeff:      0.753D+00
 Gap=     0.341 Goal=   None    Shift=    0.000
 RMSDP=2.28D-09 MaxDP=8.11D-08 DE=-7.28D-12 OVMax= 1.89D-07

 SCF Done:  E(RM062X) =  -391.688963956     A.U. after   13 cycles
            NFock= 13  Conv=0.23D-08     -V/T= 2.0093
 KE= 3.880615925080D+02 PE=-1.990863205853D+03 EE= 6.682404963472D+02
 Leave Link  502 at Mon Jul 19 22:10:12 2021, MaxMem=   524288000 cpu:             437.8 elap:             116.5
 (Enter /opt/gaussian/g16_legacy/l601.exe)
 Copying SCF densities to generalized density rwf, IOpCl= 0 IROHF=0.

 **********************************************************************

            Population analysis using the SCF density.

 **********************************************************************

 Orbital symmetries:
       Occupied  (A) (A) (A) (A) (A) (A) (A) (A) (A) (A) (A) (A)
                 (A) (A) (A) (A) (A) (A) (A) (A) (A) (A) (A) (A)
                 (A) (A) (A) (A) (A) (A) (A) (A) (A) (A) (A) (A)
                 (A) (A) (A)
       Virtual   (A) (A) (A) (A) (A) (A) (A) (A) (A) (A) (A) (A)
                 (A) (A) (A) (A) (A) (A) (A) (A) (A) (A) (A) (A)
                 (A) (A) (A) (A) (A) (A) (A) (A) (A) (A) (A) (A)
                 (A) (A) (A) (A) (A) (A) (A) (A) (A) (A) (A) (A)
                 (A) (A) (A) (A) (A) (A) (A) (A) (A) (A) (A) (A)
                 (A) (A) (A) (A) (A) (A) (A) (A) (A) (A) (A) (A)
                 (A) (A) (A) (A) (A) (A) (A) (A) (A) (A) (A) (A)
                 (A) (A) (A) (A) (A) (A) (A) (A) (A) (A) (A) (A)
                 (A) (A) (A) (A) (A) (A) (A) (A) (A) (A) (A) (A)
                 (A) (A) (A) (A) (A) (A) (A) (A) (A) (A) (A) (A)
                 (A) (A) (A) (A) (A) (A) (A) (A) (A) (A) (A) (A)
                 (A) (A) (A) (A) (A) (A) (A) (A) (A) (A) (A) (A)
                 (A) (A) (A) (A) (A) (A) (A) (A) (A) (A) (A) (A)
                 (A) (A) (A) (A) (A) (A) (A) (A) (A) (A) (A) (A)
                 (A) (A) (A) (A) (A) (A) (A) (A) (A) (A) (A) (A)
                 (A) (A) (A) (A) (A) (A) (A) (A) (A) (A) (A) (A)
                 (A) (A) (A) (A) (A) (A) (A) (A) (A)
 The electronic state is 1-A.
 Alpha  occ. eigenvalues --  -10.54415 -10.54013 -10.53854 -10.53760 -10.53328
 Alpha  occ. eigenvalues --  -10.53323 -10.53274 -10.53197 -10.53144 -10.52907
 Alpha  occ. eigenvalues --   -0.91886  -0.89443  -0.84811  -0.80980  -0.77628
 Alpha  occ. eigenvalues --   -0.76194  -0.72628  -0.67328  -0.58444  -0.57985
 Alpha  occ. eigenvalues --   -0.53836  -0.51438  -0.51061  -0.49891  -0.48369
 Alpha  occ. eigenvalues --   -0.47222  -0.46553  -0.45509  -0.44510  -0.44448
 Alpha  occ. eigenvalues --   -0.43421  -0.42006  -0.40892  -0.40499  -0.39550
 Alpha  occ. eigenvalues --   -0.36875  -0.36709  -0.27726  -0.27426
 Alpha virt. eigenvalues --    0.06701   0.07791   0.11832   0.14493   0.15971
 Alpha virt. eigenvalues --    0.16788   0.18190   0.18325   0.19394   0.19779
 Alpha virt. eigenvalues --    0.20461   0.21843   0.22929   0.23317   0.24148
 Alpha virt. eigenvalues --    0.24870   0.25610   0.26801   0.27349   0.27733
 Alpha virt. eigenvalues --    0.28756   0.29489   0.29796   0.30945   0.32480
 Alpha virt. eigenvalues --    0.38381   0.39138   0.47168   0.48353   0.51925
 Alpha virt. eigenvalues --    0.54721   0.55032   0.56574   0.57939   0.60039
 Alpha virt. eigenvalues --    0.60535   0.61548   0.63987   0.64658   0.66131
 Alpha virt. eigenvalues --    0.67356   0.68257   0.69793   0.71754   0.72137
 Alpha virt. eigenvalues --    0.74442   0.77398   0.78326   0.79576   0.80815
 Alpha virt. eigenvalues --    0.81730   0.82470   0.83400   0.85439   0.86777
 Alpha virt. eigenvalues --    0.88522   0.90231   0.91180   0.91736   0.92440
 Alpha virt. eigenvalues --    0.93901   0.94598   0.95484   0.95864   0.96397
 Alpha virt. eigenvalues --    0.97747   0.98249   0.99325   1.00212   1.01213
 Alpha virt. eigenvalues --    1.02331   1.04541   1.06018   1.06632   1.07200
 Alpha virt. eigenvalues --    1.08898   1.10708   1.20681   1.21571   1.25475
 Alpha virt. eigenvalues --    1.26400   1.27002   1.35436   1.36324   1.38274
 Alpha virt. eigenvalues --    1.41731   1.45596   1.47303   1.48921   1.51600
 Alpha virt. eigenvalues --    1.53628   1.55207   1.67478   1.70225   1.72515
 Alpha virt. eigenvalues --    1.75220   1.76760   1.79530   1.82439   1.83305
 Alpha virt. eigenvalues --    1.83580   1.85893   1.88015   1.88536   1.89976
 Alpha virt. eigenvalues --    1.91233   1.93677   1.94882   2.00632   2.02559
 Alpha virt. eigenvalues --    2.03302   2.04353   2.06093   2.08658   2.09740
 Alpha virt. eigenvalues --    2.10032   2.10645   2.11519   2.13699   2.14976
 Alpha virt. eigenvalues --    2.15742   2.16884   2.16985   2.17537   2.18890
 Alpha virt. eigenvalues --    2.19573   2.21706   2.23665   2.24350   2.26041
 Alpha virt. eigenvalues --    2.29629   2.30589   2.31225   2.33604   2.35859
 Alpha virt. eigenvalues --    2.37395   2.40107   2.42338   2.43081   2.45370
 Alpha virt. eigenvalues --    2.46974   2.48503   2.51552   2.53400   2.54928
 Alpha virt. eigenvalues --    2.56060   2.56988   2.60867   2.61805   2.63558
 Alpha virt. eigenvalues --    2.66440   2.67378   2.68294   2.70494   2.72426
 Alpha virt. eigenvalues --    2.73837   2.75089   2.78686   2.80138   2.80693
 Alpha virt. eigenvalues --    2.85043   2.85570   2.86630   2.87221   2.89182
 Alpha virt. eigenvalues --    2.91014   2.91679   2.93195   2.94040   3.03695
 Alpha virt. eigenvalues --    3.04099   3.07746   3.08870   3.17629   3.19233
 Alpha virt. eigenvalues --    3.23805   3.24060   3.28687   3.31732   3.40502
 Alpha virt. eigenvalues --    3.40864   3.42677   3.43266   3.44253   3.44657
 Alpha virt. eigenvalues --    3.46495   3.47665   3.48571   3.51501   3.52847
 Alpha virt. eigenvalues --    3.54389   4.16178   4.25711   4.34823   4.43189
 Alpha virt. eigenvalues --    4.50292   4.53319   4.55462   4.69314   4.70872
 Alpha virt. eigenvalues --    4.74615
          Condensed to atoms (all electrons):
               1          2          3          4          5          6
     1  C    5.024410   0.388668   0.377893   0.376849  -0.071777   0.004285
     2  H    0.388668   0.602965  -0.033735  -0.038450   0.004920  -0.000174
     3  H    0.377893  -0.033735   0.622889  -0.036060  -0.006899   0.000050
     4  C    0.376849  -0.038450  -0.036060   4.767540   0.374693  -0.028348
     5  C   -0.071777   0.004920  -0.006899   0.374693   5.005804   0.385895
     6  H    0.004285  -0.000174   0.000050  -0.028348   0.385895   0.570704
     7  H   -0.006565   0.000107   0.005830  -0.033255   0.383832  -0.029002
     8  H    0.000218  -0.000088  -0.000340  -0.037844   0.380245  -0.027294
     9  C   -0.036625  -0.006289   0.003297   0.708514  -0.054303  -0.006798
    10  H   -0.012856   0.005698   0.000271  -0.035915   0.006099   0.000017
    11  C    0.005505   0.000141  -0.000194  -0.040075  -0.013786   0.000679
    12  H    0.000097   0.000005   0.000001  -0.007327   0.002316   0.003032
    13  H   -0.000132  -0.000017  -0.000002   0.000101   0.000276  -0.000168
    14  H   -0.000159   0.000005   0.000010  -0.000432   0.000366   0.000108
    15  C   -0.000093  -0.000003   0.000003  -0.000137  -0.000002  -0.000000
    16  H   -0.000005   0.000002   0.000000  -0.000002   0.000000  -0.000000
    17  H    0.000035  -0.000000  -0.000000   0.000053   0.000001   0.000000
    18  H   -0.000007   0.000000   0.000000  -0.000001  -0.000000   0.000000
    19  C   -0.003784   0.000113  -0.000058  -0.001146  -0.000008   0.000001
    20  C   -0.000028   0.000009   0.000000   0.001650  -0.001101   0.000006
    21  H   -0.000581   0.000003   0.000024  -0.000317  -0.000883   0.000001
    22  H   -0.000026   0.000000   0.000001   0.000069   0.000034  -0.000001
    23  H    0.000217   0.000002  -0.000007   0.001368   0.000056   0.000005
    24  C   -0.059451  -0.005608   0.005590  -0.004389  -0.000339  -0.000007
    25  H   -0.000099   0.002651  -0.000114  -0.000235   0.000003   0.000000
    26  C    0.341200  -0.037713  -0.039813  -0.056628   0.001097  -0.000002
    27  H   -0.037314  -0.004148  -0.003578   0.005519  -0.000186   0.000002
    28  H   -0.037058   0.005282  -0.003291  -0.007515   0.002504  -0.000056
               7          8          9         10         11         12
     1  C   -0.006565   0.000218  -0.036625  -0.012856   0.005505   0.000097
     2  H    0.000107  -0.000088  -0.006289   0.005698   0.000141   0.000005
     3  H    0.005830  -0.000340   0.003297   0.000271  -0.000194   0.000001
     4  C   -0.033255  -0.037844   0.708514  -0.035915  -0.040075  -0.007327
     5  C    0.383832   0.380245  -0.054303   0.006099  -0.013786   0.002316
     6  H   -0.029002  -0.027294  -0.006798   0.000017   0.000679   0.003032
     7  H    0.584767  -0.033112   0.002767  -0.000145   0.000260  -0.000108
     8  H   -0.033112   0.589138  -0.002949  -0.000184   0.000710  -0.000145
     9  C    0.002767  -0.002949   4.887488   0.380918   0.359090  -0.034728
    10  H   -0.000145  -0.000184   0.380918   0.613408  -0.056144   0.004614
    11  C    0.000260   0.000710   0.359090  -0.056144   4.977175   0.389678
    12  H   -0.000108  -0.000145  -0.034728   0.004614   0.389678   0.580723
    13  H   -0.000017   0.000122  -0.034795  -0.003113   0.385733  -0.029520
    14  H    0.000027  -0.000058  -0.035042  -0.000636   0.383974  -0.028049
    15  C    0.000000   0.000006  -0.000079   0.000052  -0.000068   0.000001
    16  H   -0.000000  -0.000000  -0.000007   0.000013   0.000001  -0.000000
    17  H    0.000000  -0.000003   0.000041  -0.000022   0.000018  -0.000002
    18  H   -0.000000   0.000000   0.000004   0.000002   0.000000  -0.000000
    19  C   -0.000010   0.000104   0.001057   0.000197   0.000035  -0.000022
    20  C    0.000033   0.000563   0.000134   0.000020  -0.000178  -0.000022
    21  H    0.000008   0.002499  -0.000033   0.000003  -0.000000  -0.000001
    22  H   -0.000000  -0.000060   0.000078   0.000001  -0.000006  -0.000001
    23  H    0.000018  -0.000208   0.000237  -0.000033   0.000632   0.000282
    24  C    0.000036   0.000033   0.003892   0.001647  -0.000220   0.000001
    25  H    0.000000  -0.000004   0.000100   0.000186  -0.000000  -0.000000
    26  C   -0.000782   0.001626  -0.008788  -0.000258  -0.000034  -0.000007
    27  H   -0.000016  -0.000025   0.000091  -0.000032   0.000003   0.000000
    28  H    0.000249   0.000292   0.000139   0.000030   0.000010  -0.000002
              13         14         15         16         17         18
     1  C   -0.000132  -0.000159  -0.000093  -0.000005   0.000035  -0.000007
     2  H   -0.000017   0.000005  -0.000003   0.000002  -0.000000   0.000000
     3  H   -0.000002   0.000010   0.000003   0.000000  -0.000000   0.000000
     4  C    0.000101  -0.000432  -0.000137  -0.000002   0.000053  -0.000001
     5  C    0.000276   0.000366  -0.000002   0.000000   0.000001  -0.000000
     6  H   -0.000168   0.000108  -0.000000  -0.000000   0.000000   0.000000
     7  H   -0.000017   0.000027   0.000000  -0.000000   0.000000  -0.000000
     8  H    0.000122  -0.000058   0.000006  -0.000000  -0.000003   0.000000
     9  C   -0.034795  -0.035042  -0.000079  -0.000007   0.000041   0.000004
    10  H   -0.003113  -0.000636   0.000052   0.000013  -0.000022   0.000002
    11  C    0.385733   0.383974  -0.000068   0.000001   0.000018   0.000000
    12  H   -0.029520  -0.028049   0.000001  -0.000000  -0.000002  -0.000000
    13  H    0.583833  -0.032180   0.000042  -0.000002   0.000350  -0.000001
    14  H   -0.032180   0.579624   0.000000  -0.000000  -0.000000  -0.000000
    15  C    0.000042   0.000000   5.002488   0.384780   0.384039   0.378374
    16  H   -0.000002  -0.000000   0.384780   0.574050  -0.027279  -0.027526
    17  H    0.000350  -0.000000   0.384039  -0.027279   0.591309  -0.034847
    18  H   -0.000001  -0.000000   0.378374  -0.027526  -0.034847   0.593227
    19  C    0.000084  -0.000002   0.369464  -0.032996  -0.039390  -0.034517
    20  C   -0.000043   0.000008  -0.078507   0.004781  -0.000067  -0.003065
    21  H    0.000003  -0.000000   0.004690  -0.000172  -0.000019  -0.000018
    22  H   -0.000008   0.000000  -0.005345   0.000058  -0.000914   0.005119
    23  H    0.000154   0.000006  -0.000414  -0.000083   0.003000  -0.000606
    24  C    0.000032  -0.000001  -0.037055  -0.005015  -0.002539   0.000095
    25  H   -0.000000   0.000000  -0.013473   0.006183   0.000178   0.000296
    26  C    0.000036  -0.000009   0.005820   0.000096  -0.000129  -0.000199
    27  H   -0.000000   0.000000  -0.000173  -0.000009  -0.000002   0.000010
    28  H   -0.000000   0.000000   0.000057   0.000010  -0.000008   0.000010
              19         20         21         22         23         24
     1  C   -0.003784  -0.000028  -0.000581  -0.000026   0.000217  -0.059451
     2  H    0.000113   0.000009   0.000003   0.000000   0.000002  -0.005608
     3  H   -0.000058   0.000000   0.000024   0.000001  -0.000007   0.005590
     4  C   -0.001146   0.001650  -0.000317   0.000069   0.001368  -0.004389
     5  C   -0.000008  -0.001101  -0.000883   0.000034   0.000056  -0.000339
     6  H    0.000001   0.000006   0.000001  -0.000001   0.000005  -0.000007
     7  H   -0.000010   0.000033   0.000008  -0.000000   0.000018   0.000036
     8  H    0.000104   0.000563   0.002499  -0.000060  -0.000208   0.000033
     9  C    0.001057   0.000134  -0.000033   0.000078   0.000237   0.003892
    10  H    0.000197   0.000020   0.000003   0.000001  -0.000033   0.001647
    11  C    0.000035  -0.000178  -0.000000  -0.000006   0.000632  -0.000220
    12  H   -0.000022  -0.000022  -0.000001  -0.000001   0.000282   0.000001
    13  H    0.000084  -0.000043   0.000003  -0.000008   0.000154   0.000032
    14  H   -0.000002   0.000008  -0.000000   0.000000   0.000006  -0.000001
    15  C    0.369464  -0.078507   0.004690  -0.005345  -0.000414  -0.037055
    16  H   -0.032996   0.004781  -0.000172   0.000058  -0.000083  -0.005015
    17  H   -0.039390  -0.000067  -0.000019  -0.000914   0.003000  -0.002539
    18  H   -0.034517  -0.003065  -0.000018   0.005119  -0.000606   0.000095
    19  C    4.725343   0.377468  -0.026989  -0.036330  -0.034461   0.711016
    20  C    0.377468   5.004480   0.382256   0.382497   0.381442  -0.051728
    21  H   -0.026989   0.382256   0.578003  -0.029100  -0.028085  -0.007290
    22  H   -0.036330   0.382497  -0.029100   0.591125  -0.032619   0.002920
    23  H   -0.034461   0.381442  -0.028085  -0.032619   0.578726  -0.003112
    24  C    0.711016  -0.051728  -0.007290   0.002920  -0.003112   4.911867
    25  H   -0.032744   0.006181   0.000010  -0.000146  -0.000176   0.376535
    26  C   -0.037553  -0.014392   0.001414   0.000115   0.000823   0.368276
    27  H    0.002538   0.000366  -0.000033   0.000010  -0.000023  -0.034197
    28  H   -0.006189   0.000679   0.003874   0.000045  -0.000411  -0.039582
              25         26         27         28
     1  C   -0.000099   0.341200  -0.037314  -0.037058
     2  H    0.002651  -0.037713  -0.004148   0.005282
     3  H   -0.000114  -0.039813  -0.003578  -0.003291
     4  C   -0.000235  -0.056628   0.005519  -0.007515
     5  C    0.000003   0.001097  -0.000186   0.002504
     6  H    0.000000  -0.000002   0.000002  -0.000056
     7  H    0.000000  -0.000782  -0.000016   0.000249
     8  H   -0.000004   0.001626  -0.000025   0.000292
     9  C    0.000100  -0.008788   0.000091   0.000139
    10  H    0.000186  -0.000258  -0.000032   0.000030
    11  C   -0.000000  -0.000034   0.000003   0.000010
    12  H   -0.000000  -0.000007   0.000000  -0.000002
    13  H   -0.000000   0.000036  -0.000000  -0.000000
    14  H    0.000000  -0.000009   0.000000   0.000000
    15  C   -0.013473   0.005820  -0.000173   0.000057
    16  H    0.006183   0.000096  -0.000009   0.000010
    17  H    0.000178  -0.000129  -0.000002  -0.000008
    18  H    0.000296  -0.000199   0.000010   0.000010
    19  C   -0.032744  -0.037553   0.002538  -0.006189
    20  C    0.006181  -0.014392   0.000366   0.000679
    21  H    0.000010   0.001414  -0.000033   0.003874
    22  H   -0.000146   0.000115   0.000010   0.000045
    23  H   -0.000176   0.000823  -0.000023  -0.000411
    24  C    0.376535   0.368276  -0.034197  -0.039582
    25  H    0.617491  -0.054889  -0.005082   0.004828
    26  C   -0.054889   5.008128   0.382831   0.389629
    27  H   -0.005082   0.382831   0.607877  -0.033407
    28  H    0.004828   0.389629  -0.033407   0.609698
 Mulliken charges:
               1
     1  C   -0.252818
     2  H    0.115654
     3  H    0.108231
     4  C    0.091720
     5  C   -0.398856
     6  H    0.127065
     7  H    0.125078
     8  H    0.126757
     9  C   -0.127411
    10  H    0.096162
    11  C   -0.392941
    12  H    0.119183
    13  H    0.129235
    14  H    0.132438
    15  C   -0.394467
    16  H    0.123122
    17  H    0.126198
    18  H    0.123648
    19  C    0.098779
    20  C   -0.393441
    21  H    0.120734
    22  H    0.122483
    23  H    0.133269
    24  C   -0.131408
    25  H    0.092322
    26  C   -0.249895
    27  H    0.118978
    28  H    0.110183
 Sum of Mulliken charges =  -0.00000
 Mulliken charges with hydrogens summed into heavy atoms:
               1
     1  C   -0.028933
     4  C    0.091720
     5  C   -0.019956
     9  C   -0.031249
    11  C   -0.012085
    15  C   -0.021499
    19  C    0.098779
    20  C   -0.016956
    24  C   -0.039086
    26  C   -0.020734
 Electronic spatial extent (au):  <R**2>=           1806.5740
 Charge=              0.0000 electrons
 Dipole moment (field-independent basis, Debye):
    X=             -0.0176    Y=              0.2638    Z=              0.2738  Tot=              0.3806
 Quadrupole moment (field-independent basis, Debye-Ang):
   XX=            -65.8160   YY=            -63.2165   ZZ=            -63.3943
   XY=              1.0815   XZ=             -1.1151   YZ=              0.1723
 Traceless Quadrupole moment (field-independent basis, Debye-Ang):
   XX=             -1.6737   YY=              0.9258   ZZ=              0.7479
   XY=              1.0815   XZ=             -1.1151   YZ=              0.1723
 Octapole moment (field-independent basis, Debye-Ang**2):
  XXX=              1.1894  YYY=              0.1706  ZZZ=             -2.1834  XYY=             -3.7259
  XXY=              4.6491  XXZ=              3.6102  XZZ=              2.6720  YZZ=             -0.4381
  YYZ=             -1.5018  XYZ=              1.7927
 Hexadecapole moment (field-independent basis, Debye-Ang**3):
 XXXX=          -1344.8316 YYYY=           -761.0995 ZZZZ=           -401.0984 XXXY=              9.6574
 XXXZ=             -5.7519 YYYX=              1.5289 YYYZ=             -0.1131 ZZZX=             -1.1627
 ZZZY=             -0.1086 XXYY=           -349.5890 XXZZ=           -285.7518 YYZZ=           -192.8896
 XXYZ=              1.9463 YYXZ=             -0.5515 ZZXY=             -4.0524
 N-N= 5.428721530420D+02 E-N=-1.990863199343D+03  KE= 3.880615925080D+02
 No NMR shielding tensors so no spin-rotation constants.
 Leave Link  601 at Mon Jul 19 22:10:13 2021, MaxMem=   524288000 cpu:               1.6 elap:               0.6
 (Enter /opt/gaussian/g16_legacy/l701.exe)
 ... and contract with generalized density number  0.
 Compute integral first derivatives.
 Leave Link  701 at Mon Jul 19 22:10:13 2021, MaxMem=   524288000 cpu:               0.9 elap:               0.2
 (Enter /opt/gaussian/g16_legacy/l702.exe)
 L702 exits ... SP integral derivatives will be done elsewhere.
 Leave Link  702 at Mon Jul 19 22:10:13 2021, MaxMem=   524288000 cpu:               0.1 elap:               0.0
 (Enter /opt/gaussian/g16_legacy/l703.exe)
 Integral derivatives from FoFJK, PRISM(SPDF).
 Compute integral first derivatives, UseDBF=F ICtDFT=           0.
 Calling FoFJK, ICntrl=      2127 FMM=F ISym2X=0 I1Cent= 0 IOpClX= 0 NMat=1 NMatS=1 NMatT=0.
 FoFJK:  IHMeth= 1 ICntrl=    2127 DoSepK=F KAlg= 0 I1Cent=           0 FoldK=F
 IRaf=         0 NMat=       1 IRICut=       1 DoRegI=T DoRafI=F ISym2E= 0 IDoP0=0 IntGTp=1.
 FoFCou: FMM=F IPFlag=           0 FMFlag=      100000 FMFlg1=         800
         NFxFlg=           0 DoJE=F BraDBF=F KetDBF=F FulRan=T
         wScrn=  0.000000 ICntrl=      2127 IOpCl=  0 I1Cent=           0 NGrid=           0
         NMat0=    1 NMatS0=      1 NMatT0=    0 NMatD0=    1 NMtDS0=    0 NMtDT0=    0
 Symmetry not used in FoFCou.
 Leave Link  703 at Mon Jul 19 22:10:35 2021, MaxMem=   524288000 cpu:              86.2 elap:              21.6
 (Enter /opt/gaussian/g16_legacy/l716.exe)
 Dipole        =-6.92880340D-03 1.03782792D-01 1.07721162D-01
 ***** Axes restored to original set *****
 -------------------------------------------------------------------
 Center     Atomic                   Forces (Hartrees/Bohr)
 Number     Number              X              Y              Z
 -------------------------------------------------------------------
      1        6           0.005819189   -0.003477202   -0.004536250
      2        1           0.001432055    0.000604207    0.003263454
      3        1          -0.000660367    0.001793092    0.000266041
      4        6          -0.001221995   -0.014203242    0.001473509
      5        6           0.003483255   -0.001595817   -0.001209297
      6        1          -0.000704185   -0.000122339    0.002822421
      7        1          -0.001806788    0.000803589    0.001446681
      8        1          -0.000073284    0.003282680   -0.000199520
      9        6          -0.008177639    0.012430148   -0.000447443
     10        1          -0.002621937    0.000985284   -0.001778840
     11        6           0.001335004    0.001217534   -0.001415456
     12        1          -0.000453941    0.000254122   -0.001338088
     13        1           0.001634593   -0.001571965   -0.000350332
     14        1           0.002698347   -0.000861018    0.001767668
     15        6          -0.005112777   -0.001532436   -0.000177967
     16        1           0.000934474    0.001872777   -0.001363368
     17        1           0.001772687    0.000642718    0.002476222
     18        1           0.002476532   -0.000631466    0.001123511
     19        6          -0.009646084   -0.006136337   -0.011894899
     20        6          -0.003978288    0.002034957   -0.001147606
     21        1           0.000391718   -0.001456893   -0.002164613
     22        1           0.001760221   -0.001224212    0.001031329
     23        1           0.001919277    0.000330919    0.000280324
     24        6           0.009598507    0.007229502    0.005467936
     25        1           0.001168080   -0.001016668    0.001878384
     26        6          -0.005878407   -0.000243725    0.006096864
     27        1           0.000943239    0.000288301   -0.001943817
     28        1           0.002968518    0.000303489    0.000573152
 -------------------------------------------------------------------
 Cartesian Forces:  Max     0.014203242 RMS     0.003802719
 Leave Link  716 at Mon Jul 19 22:10:35 2021, MaxMem=   524288000 cpu:               0.1 elap:               0.1
 (Enter /opt/gaussian/g16_legacy/l103.exe)

 GradGradGradGradGradGradGradGradGradGradGradGradGradGradGradGradGradGrad
 Berny optimization.
 FormGI is forming the generalized inverse of G from B-inverse, IUseBI=4.
 Internal  Forces:  Max     0.016100677 RMS     0.002521099
 Search for a local minimum.
 Step number   1 out of a maximum of  138
 All quantities printed in internal units (Hartrees-Bohrs-Radians)
 RMS Force = .25211D-02 SwitMx=.10000D-02 MixMth= 1
 Mixed Optimization -- RFO/linear search
 Second derivative matrix not updated -- first step.
 ITU=  0
     Eigenvalues ---    0.00244   0.00489   0.00650   0.00701   0.00707
     Eigenvalues ---    0.00708   0.00835   0.01206   0.01290   0.01544
     Eigenvalues ---    0.01663   0.02770   0.02784   0.03885   0.03975
     Eigenvalues ---    0.05310   0.05391   0.06984   0.07019   0.07026
     Eigenvalues ---    0.07094   0.07278   0.07321   0.07325   0.07538
     Eigenvalues ---    0.09345   0.09425   0.12854   0.12907   0.15965
     Eigenvalues ---    0.15977   0.16000   0.16000   0.16000   0.16000
     Eigenvalues ---    0.16000   0.16000   0.16000   0.16000   0.16000
     Eigenvalues ---    0.16000   0.16000   0.16000   0.21890   0.21904
     Eigenvalues ---    0.22007   0.22012   0.24956   0.24978   0.24987
     Eigenvalues ---    0.24993   0.28567   0.30276   0.31476   0.31868
     Eigenvalues ---    0.31911   0.31922   0.32935   0.33863   0.33943
     Eigenvalues ---    0.34084   0.34173   0.34179   0.34194   0.34235
     Eigenvalues ---    0.34261   0.34318   0.34332   0.34351   0.34372
     Eigenvalues ---    0.34410   0.34434   0.34608   0.34632   0.34816
     Eigenvalues ---    0.34827   0.55335   0.55563
 RFO step:  Lambda=-4.34097932D-03 EMin= 2.43985341D-03
 Linear search not attempted -- first point.
 Iteration  1 RMS(Cart)=  0.13988943 RMS(Int)=  0.00418153
 Iteration  2 RMS(Cart)=  0.00763493 RMS(Int)=  0.00015101
 Iteration  3 RMS(Cart)=  0.00001951 RMS(Int)=  0.00015063
 Iteration  4 RMS(Cart)=  0.00000000 RMS(Int)=  0.00015063
 ITry= 1 IFail=0 DXMaxC= 5.23D-01 DCOld= 1.00D+10 DXMaxT= 3.00D-01 DXLimC= 3.00D+00 Rises=F
 Variable       Old X    -DE/DX   Delta X   Delta X   Delta X     New X
                                 (Linear)    (Quad)   (Total)
    R1        2.07561  -0.00143   0.00000  -0.00418  -0.00418   2.07144
    R2        2.07188   0.00077   0.00000   0.00224   0.00224   2.07412
    R3        2.87417  -0.00571   0.00000  -0.01860  -0.01860   2.85557
    R4        2.90916   0.00072   0.00000   0.00248   0.00248   2.91164
    R5        2.84288   0.00180   0.00000   0.00557   0.00557   2.84844
    R6        2.54635  -0.01390   0.00000  -0.02482  -0.02482   2.52154
    R7        2.06604  -0.00105   0.00000  -0.00301  -0.00301   2.06303
    R8        2.06935  -0.00029   0.00000  -0.00085  -0.00085   2.06850
    R9        2.06643   0.00208   0.00000   0.00598   0.00598   2.07241
   R10        2.05957   0.00023   0.00000   0.00065   0.00065   2.06022
   R11        2.82467   0.00467   0.00000   0.01401   0.01401   2.83867
   R12        2.06277   0.00011   0.00000   0.00032   0.00032   2.06308
   R13        2.07005   0.00014   0.00000   0.00042   0.00042   2.07046
   R14        2.06742   0.00093   0.00000   0.00267   0.00267   2.07009
   R15        2.07039  -0.00195   0.00000  -0.00563  -0.00563   2.06476
   R16        2.06774   0.00151   0.00000   0.00434   0.00434   2.07208
   R17        2.07030   0.00019   0.00000   0.00056   0.00056   2.07086
   R18        2.84306   0.00137   0.00000   0.00425   0.00425   2.84731
   R19        2.84386  -0.00029   0.00000  -0.00090  -0.00090   2.84296
   R20        2.54835  -0.01610   0.00000  -0.02887  -0.02887   2.51948
   R21        2.06317   0.00020   0.00000   0.00058   0.00058   2.06375
   R22        2.06892   0.00042   0.00000   0.00121   0.00121   2.07014
   R23        2.06797   0.00166   0.00000   0.00478   0.00478   2.07276
   R24        2.05974   0.00030   0.00000   0.00084   0.00084   2.06058
   R25        2.85113  -0.00375   0.00000  -0.01176  -0.01176   2.83937
   R26        2.07426  -0.00044   0.00000  -0.00129  -0.00129   2.07297
   R27        2.06707   0.00107   0.00000   0.00307   0.00307   2.07014
    A1        1.83972   0.00095   0.00000   0.02663   0.02659   1.86631
    A2        1.92318   0.00107   0.00000   0.00108   0.00088   1.92406
    A3        1.90750   0.00074   0.00000  -0.00139  -0.00149   1.90601
    A4        1.90710   0.00179   0.00000   0.00799   0.00779   1.91489
    A5        1.90602   0.00001   0.00000  -0.00553  -0.00555   1.90047
    A6        1.97534  -0.00419   0.00000  -0.02512  -0.02529   1.95005
    A7        2.01558   0.00063   0.00000   0.00214   0.00183   2.01741
    A8        2.09322   0.00140   0.00000   0.00509   0.00478   2.09799
    A9        2.17398  -0.00204   0.00000  -0.00845  -0.00873   2.16525
   A10        1.96759  -0.00104   0.00000  -0.00343  -0.00343   1.96416
   A11        1.92839  -0.00063   0.00000  -0.00279  -0.00278   1.92561
   A12        1.92871   0.00285   0.00000   0.01345   0.01347   1.94218
   A13        1.85548   0.00221   0.00000   0.02082   0.02081   1.87629
   A14        1.89166  -0.00134   0.00000  -0.00987  -0.00986   1.88180
   A15        1.88893  -0.00219   0.00000  -0.01898  -0.01896   1.86997
   A16        2.06320  -0.00260   0.00000  -0.01553  -0.01595   2.04725
   A17        2.23355  -0.00149   0.00000  -0.00576  -0.00617   2.22737
   A18        1.98296   0.00418   0.00000   0.02543   0.02503   2.00800
   A19        1.98362  -0.00234   0.00000  -0.01360  -0.01354   1.97008
   A20        1.90311   0.00200   0.00000   0.01261   0.01257   1.91568
   A21        1.92162   0.00399   0.00000   0.02322   0.02320   1.94483
   A22        1.87090   0.00047   0.00000   0.00492   0.00497   1.87586
   A23        1.89513  -0.00114   0.00000  -0.00764  -0.00757   1.88756
   A24        1.88658  -0.00320   0.00000  -0.02085  -0.02097   1.86561
   A25        1.87890   0.00081   0.00000   0.00699   0.00701   1.88591
   A26        1.87935   0.00088   0.00000   0.00974   0.00976   1.88911
   A27        1.96151  -0.00227   0.00000  -0.01038  -0.01037   1.95115
   A28        1.89345  -0.00302   0.00000  -0.02508  -0.02507   1.86839
   A29        1.91915   0.00141   0.00000   0.00624   0.00626   1.92541
   A30        1.92937   0.00207   0.00000   0.01160   0.01162   1.94099
   A31        1.99478   0.00212   0.00000   0.00833   0.00832   2.00310
   A32        2.10815   0.00231   0.00000   0.00906   0.00906   2.11721
   A33        2.17894  -0.00443   0.00000  -0.01749  -0.01749   2.16145
   A34        1.97630  -0.00161   0.00000  -0.00775  -0.00778   1.96851
   A35        1.92574   0.00044   0.00000   0.00542   0.00542   1.93116
   A36        1.92035   0.00090   0.00000   0.00069   0.00067   1.92102
   A37        1.85988   0.00218   0.00000   0.02205   0.02203   1.88192
   A38        1.89032  -0.00048   0.00000  -0.00768  -0.00772   1.88261
   A39        1.88829  -0.00144   0.00000  -0.01284  -0.01284   1.87546
   A40        2.06689  -0.00146   0.00000  -0.01090  -0.01092   2.05597
   A41        2.22292  -0.00210   0.00000  -0.00953  -0.00956   2.21336
   A42        1.99120   0.00354   0.00000   0.01961   0.01958   2.01078
   A43        1.95977  -0.00245   0.00000  -0.01505  -0.01542   1.94435
   A44        1.89680   0.00025   0.00000   0.00846   0.00859   1.90538
   A45        1.92567  -0.00084   0.00000  -0.02245  -0.02291   1.90276
   A46        1.87987   0.00227   0.00000   0.02891   0.02897   1.90884
   A47        1.95524   0.00048   0.00000  -0.01142  -0.01210   1.94314
   A48        1.84114   0.00057   0.00000   0.01577   0.01589   1.85703
    D1        2.71962   0.00206   0.00000   0.07849   0.07861   2.79823
    D2       -0.45144   0.00131   0.00000   0.03477   0.03467  -0.41676
    D3        0.70606  -0.00071   0.00000   0.04124   0.04129   0.74735
    D4       -2.46500  -0.00146   0.00000  -0.00248  -0.00265  -2.46765
    D5       -1.42190   0.00083   0.00000   0.05961   0.05976  -1.36215
    D6        1.69023   0.00008   0.00000   0.01588   0.01582   1.70604
    D7        1.00953  -0.00016   0.00000  -0.05320  -0.05332   0.95621
    D8       -1.06828  -0.00165   0.00000  -0.08546  -0.08543  -1.15372
    D9       -3.07905  -0.00202   0.00000  -0.09687  -0.09664   3.10749
   D10        3.01381   0.00138   0.00000  -0.02524  -0.02547   2.98834
   D11        0.93600  -0.00011   0.00000  -0.05750  -0.05758   0.87842
   D12       -1.07477  -0.00048   0.00000  -0.06891  -0.06879  -1.14356
   D13       -1.14081   0.00084   0.00000  -0.03602  -0.03617  -1.17698
   D14        3.06456  -0.00065   0.00000  -0.06828  -0.06828   2.99628
   D15        1.05379  -0.00102   0.00000  -0.07969  -0.07949   0.97430
   D16       -2.81908  -0.00147   0.00000  -0.06834  -0.06827  -2.88735
   D17       -0.74576   0.00022   0.00000  -0.04611  -0.04602  -0.79178
   D18        1.34433  -0.00108   0.00000  -0.06292  -0.06284   1.28149
   D19        0.35351  -0.00075   0.00000  -0.02260  -0.02269   0.33082
   D20        2.42684   0.00095   0.00000  -0.00037  -0.00045   2.42639
   D21       -1.76626  -0.00036   0.00000  -0.01718  -0.01727  -1.78353
   D22        0.02981   0.00004   0.00000   0.02071   0.02035   0.05016
   D23       -3.01598  -0.00134   0.00000  -0.03746  -0.03718  -3.05315
   D24        3.13911  -0.00073   0.00000  -0.02699  -0.02728   3.11183
   D25        0.09332  -0.00211   0.00000  -0.08517  -0.08480   0.00851
   D26        0.03281   0.00013   0.00000   0.01074   0.01096   0.04377
   D27        2.11864   0.00061   0.00000   0.01703   0.01719   2.13583
   D28       -2.09749   0.00029   0.00000   0.01296   0.01326  -2.08423
   D29       -3.01666  -0.00090   0.00000  -0.04339  -0.04362  -3.06028
   D30       -0.93083  -0.00041   0.00000  -0.03710  -0.03739  -0.96822
   D31        1.13623  -0.00074   0.00000  -0.04117  -0.04132   1.09491
   D32        3.12166   0.00042   0.00000   0.01667   0.01668   3.13834
   D33       -0.07259   0.00024   0.00000   0.01416   0.01416  -0.05844
   D34       -1.06885   0.00092   0.00000   0.02298   0.02298  -1.04587
   D35        2.02008   0.00074   0.00000   0.02047   0.02046   2.04054
   D36        1.02136  -0.00062   0.00000   0.00318   0.00319   1.02454
   D37       -2.17290  -0.00080   0.00000   0.00067   0.00066  -2.17224
   D38       -2.87709  -0.00115   0.00000  -0.02769  -0.02768  -2.90477
   D39       -0.79423   0.00087   0.00000  -0.00092  -0.00091  -0.79514
   D40        1.28806  -0.00008   0.00000  -0.01297  -0.01298   1.27509
   D41        0.31963  -0.00121   0.00000  -0.02604  -0.02603   0.29360
   D42        2.40249   0.00081   0.00000   0.00074   0.00074   2.40323
   D43       -1.79840  -0.00013   0.00000  -0.01131  -0.01133  -1.80973
   D44        0.02862  -0.00138   0.00000  -0.04549  -0.04543  -0.01681
   D45       -3.03754  -0.00120   0.00000  -0.03203  -0.03210  -3.06964
   D46        3.11172  -0.00134   0.00000  -0.04734  -0.04728   3.06444
   D47        0.04556  -0.00117   0.00000  -0.03389  -0.03395   0.01161
   D48        1.71419  -0.00189   0.00000  -0.09767  -0.09762   1.61657
   D49       -2.48129  -0.00156   0.00000  -0.07736  -0.07742  -2.55871
   D50       -0.46422   0.00076   0.00000  -0.04716  -0.04728  -0.51150
   D51       -1.35474  -0.00155   0.00000  -0.08364  -0.08350  -1.43824
   D52        0.73297  -0.00122   0.00000  -0.06334  -0.06331   0.66966
   D53        2.75004   0.00110   0.00000  -0.03313  -0.03317   2.71687
         Item               Value     Threshold  Converged?
 Maximum Force            0.016101     0.002500     NO 
 RMS     Force            0.002521     0.001667     NO 
 Maximum Displacement     0.523413     0.010000     NO 
 RMS     Displacement     0.141292     0.006667     NO 
 Predicted change in Energy=-2.451850D-03
 Lowest energy point so far.  Saving SCF results.
 GradGradGradGradGradGradGradGradGradGradGradGradGradGradGradGradGradGrad

 Leave Link  103 at Mon Jul 19 22:10:35 2021, MaxMem=   524288000 cpu:               0.2 elap:               0.1
 (Enter /opt/gaussian/g16_legacy/l202.exe)
                          Input orientation:                          
 ---------------------------------------------------------------------
 Center     Atomic      Atomic             Coordinates (Angstroms)
 Number     Number       Type             X           Y           Z
 ---------------------------------------------------------------------
      1          6           0        2.132674    1.142213   -8.992362
      2          1           0        1.833374    0.092101   -9.088516
      3          1           0        1.882851    1.633969   -9.941276
      4          6           0        3.619754    1.241233   -8.742933
      5          6           0        4.242791    2.580158   -9.044849
      6          1           0        5.332345    2.533018   -9.094632
      7          1           0        3.885228    2.957431  -10.008161
      8          1           0        3.973416    3.324664   -8.286008
      9          6           0        4.280357    0.213527   -8.206379
[...]
                 (A) (A) (A) (A) (A) (A) (A) (A) (A) (A) (A) (A)
                 (A) (A) (A) (A) (A) (A) (A) (A) (A) (A) (A) (A)
                 (A) (A) (A) (A) (A) (A) (A) (A) (A) (A) (A) (A)
                 (A) (A) (A) (A) (A) (A) (A) (A) (A) (A) (A) (A)
                 (A) (A) (A) (A) (A) (A) (A) (A) (A) (A) (A) (A)
                 (A) (A) (A) (A) (A) (A) (A) (A) (A) (A) (A) (A)
                 (A) (A) (A) (A) (A) (A) (A) (A) (A) (A) (A) (A)
                 (A) (A) (A) (A) (A) (A) (A) (A) (A) (A) (A) (A)
                 (A) (A) (A) (A) (A) (A) (A) (A) (A) (A) (A) (A)
                 (A) (A) (A) (A) (A) (A) (A) (A) (A) (A) (A) (A)
                 (A) (A) (A) (A) (A) (A) (A) (A) (A) (A) (A) (A)
                 (A) (A) (A) (A) (A) (A) (A) (A) (A) (A) (A) (A)
                 (A) (A) (A) (A) (A) (A) (A) (A) (A) (A) (A) (A)
                 (A) (A) (A) (A) (A) (A) (A) (A) (A)
 The electronic state is 1-A.
 Alpha  occ. eigenvalues --  -10.54222 -10.53935 -10.53868 -10.53767 -10.53468
 Alpha  occ. eigenvalues --  -10.53392 -10.53162 -10.53124 -10.53085 -10.52696
 Alpha  occ. eigenvalues --   -0.92203  -0.89544  -0.84764  -0.80922  -0.77486
 Alpha  occ. eigenvalues --   -0.76331  -0.72904  -0.67527  -0.58390  -0.57902
 Alpha  occ. eigenvalues --   -0.54061  -0.51783  -0.51159  -0.49766  -0.48222
 Alpha  occ. eigenvalues --   -0.47413  -0.46293  -0.45059  -0.44713  -0.43894
 Alpha  occ. eigenvalues --   -0.43578  -0.41879  -0.41193  -0.40839  -0.39612
 Alpha  occ. eigenvalues --   -0.36957  -0.36798  -0.27867  -0.27686
 Alpha virt. eigenvalues --    0.06997   0.08005   0.12077   0.14323   0.16076
 Alpha virt. eigenvalues --    0.16753   0.17613   0.18937   0.19717   0.19820
 Alpha virt. eigenvalues --    0.20609   0.22114   0.22591   0.23445   0.24095
 Alpha virt. eigenvalues --    0.25604   0.25851   0.27285   0.27774   0.28263
 Alpha virt. eigenvalues --    0.28719   0.29346   0.29915   0.30866   0.32315
 Alpha virt. eigenvalues --    0.38888   0.39431   0.47872   0.48994   0.50534
 Alpha virt. eigenvalues --    0.54365   0.55361   0.57085   0.57896   0.59258
 Alpha virt. eigenvalues --    0.60709   0.62076   0.64513   0.65589   0.66097
 Alpha virt. eigenvalues --    0.68098   0.70494   0.70873   0.71041   0.72288
 Alpha virt. eigenvalues --    0.74718   0.77194   0.77576   0.78950   0.80328
 Alpha virt. eigenvalues --    0.81121   0.82989   0.84110   0.86115   0.87587
 Alpha virt. eigenvalues --    0.88372   0.89816   0.91389   0.91943   0.93160
 Alpha virt. eigenvalues --    0.93752   0.95409   0.95948   0.96177   0.96654
 Alpha virt. eigenvalues --    0.98125   0.98471   0.99805   1.00248   1.01731
 Alpha virt. eigenvalues --    1.02881   1.03879   1.06741   1.07738   1.08025
 Alpha virt. eigenvalues --    1.09300   1.12161   1.21193   1.21581   1.25794
 Alpha virt. eigenvalues --    1.27080   1.31789   1.35285   1.37998   1.39102
 Alpha virt. eigenvalues --    1.42200   1.45858   1.46867   1.49578   1.52373
 Alpha virt. eigenvalues --    1.53793   1.56295   1.68276   1.69153   1.72865
 Alpha virt. eigenvalues --    1.75067   1.78457   1.80613   1.81813   1.83427
 Alpha virt. eigenvalues --    1.84550   1.84944   1.87580   1.89104   1.90102
 Alpha virt. eigenvalues --    1.91618   1.92612   1.94616   2.00775   2.02664
 Alpha virt. eigenvalues --    2.03867   2.05009   2.07115   2.09076   2.09976
 Alpha virt. eigenvalues --    2.10227   2.10464   2.12058   2.13372   2.15344
 Alpha virt. eigenvalues --    2.15913   2.17092   2.17384   2.18263   2.19527
 Alpha virt. eigenvalues --    2.20708   2.22104   2.23579   2.25141   2.26467
 Alpha virt. eigenvalues --    2.30572   2.31239   2.32647   2.35205   2.36431
 Alpha virt. eigenvalues --    2.38613   2.41795   2.42067   2.43605   2.43960
 Alpha virt. eigenvalues --    2.46601   2.48132   2.51359   2.52114   2.54530
 Alpha virt. eigenvalues --    2.55937   2.57218   2.60930   2.61785   2.64067
 Alpha virt. eigenvalues --    2.67043   2.67907   2.68934   2.70233   2.72665
 Alpha virt. eigenvalues --    2.74337   2.75393   2.79327   2.80474   2.81791
 Alpha virt. eigenvalues --    2.85318   2.86173   2.86786   2.87185   2.88237
 Alpha virt. eigenvalues --    2.91255   2.91942   2.93243   2.94574   3.03638
 Alpha virt. eigenvalues --    3.04670   3.08188   3.09931   3.17494   3.18819
 Alpha virt. eigenvalues --    3.24387   3.24907   3.29195   3.31692   3.40276
 Alpha virt. eigenvalues --    3.41656   3.42709   3.43498   3.44554   3.45318
 Alpha virt. eigenvalues --    3.45595   3.47325   3.49191   3.51652   3.52654
 Alpha virt. eigenvalues --    3.55236   4.17409   4.27001   4.34342   4.43887
 Alpha virt. eigenvalues --    4.50252   4.54755   4.55984   4.71036   4.71692
 Alpha virt. eigenvalues --    4.75142
          Condensed to atoms (all electrons):
               1          2          3          4          5          6
     1  C    5.028831   0.387520   0.380962   0.376235  -0.071286   0.004839
     2  H    0.387520   0.600695  -0.031862  -0.038108   0.004897  -0.000171
     3  H    0.380962  -0.031862   0.620563  -0.040548  -0.003629   0.000075
     4  C    0.376235  -0.038108  -0.040548   4.748367   0.377344  -0.028723
     5  C   -0.071286   0.004897  -0.003629   0.377344   5.005689   0.383986
     6  H    0.004839  -0.000171   0.000075  -0.028723   0.383986   0.575777
     7  H   -0.003068  -0.000066   0.003444  -0.031790   0.381764  -0.027568
     8  H   -0.003784   0.000084  -0.000618  -0.038839   0.381438  -0.028160
     9  C   -0.038840  -0.006286   0.002723   0.717135  -0.053531  -0.007346
    10  H   -0.014318   0.006439   0.000231  -0.036177   0.006478  -0.000015
    11  C    0.005698   0.000125  -0.000188  -0.037866  -0.015331   0.000868
    12  H    0.000079   0.000010  -0.000001  -0.006169   0.001282   0.003812
    13  H   -0.000126  -0.000014  -0.000002  -0.000346   0.000384  -0.000008
    14  H   -0.000155   0.000002   0.000010  -0.000668   0.000387  -0.000209
    15  C   -0.000082  -0.000015   0.000003  -0.000131  -0.000000   0.000000
    16  H   -0.000004   0.000004   0.000000  -0.000001   0.000000  -0.000000
    17  H    0.000030  -0.000000  -0.000000   0.000049   0.000000  -0.000000
    18  H   -0.000007   0.000000   0.000000  -0.000001  -0.000000   0.000000
    19  C   -0.004396   0.000132  -0.000047  -0.001655   0.000149   0.000018
    20  C   -0.000358   0.000020  -0.000001   0.002178  -0.001227   0.000020
    21  H   -0.001188   0.000001   0.000031  -0.001058   0.000693   0.000083
    22  H   -0.000034   0.000001   0.000002   0.000198  -0.000006  -0.000002
    23  H    0.000250   0.000002  -0.000007   0.000698   0.000229   0.000050
    24  C   -0.057830  -0.005720   0.005592  -0.005694  -0.000166  -0.000005
    25  H   -0.000074   0.002402  -0.000109  -0.000061  -0.000011  -0.000000
    26  C    0.338664  -0.038786  -0.039794  -0.050165  -0.003810   0.000015
    27  H   -0.036477  -0.002729  -0.004550   0.005144  -0.000008   0.000004
    28  H   -0.040474   0.005392  -0.002215  -0.007545   0.000515  -0.000227
               7          8          9         10         11         12
     1  C   -0.003068  -0.003784  -0.038840  -0.014318   0.005698   0.000079
     2  H   -0.000066   0.000084  -0.006286   0.006439   0.000125   0.000010
     3  H    0.003444  -0.000618   0.002723   0.000231  -0.000188  -0.000001
     4  C   -0.031790  -0.038839   0.717135  -0.036177  -0.037866  -0.006169
     5  C    0.381764   0.381438  -0.053531   0.006478  -0.015331   0.001282
     6  H   -0.027568  -0.028160  -0.007346  -0.000015   0.000868   0.003812
     7  H    0.578363  -0.034519  -0.000700  -0.000152   0.000496  -0.000169
     8  H   -0.034519   0.598970   0.001680  -0.000174   0.000340  -0.000133
     9  C   -0.000700   0.001680   4.882077   0.379696   0.358220  -0.036082
    10  H   -0.000152  -0.000174   0.379696   0.612450  -0.054220   0.004495
    11  C    0.000496   0.000340   0.358220  -0.054220   4.978395   0.389384
    12  H   -0.000169  -0.000133  -0.036082   0.004495   0.389384   0.579841
    13  H   -0.000035   0.000038  -0.034089  -0.001925   0.382796  -0.028768
    14  H    0.000077  -0.000022  -0.032314  -0.001199   0.384760  -0.027876
    15  C    0.000000   0.000000  -0.000098   0.000043  -0.000041   0.000001
    16  H   -0.000000   0.000000  -0.000003   0.000006   0.000000  -0.000000
    17  H    0.000000  -0.000000   0.000015  -0.000007  -0.000004  -0.000000
    18  H   -0.000000   0.000000   0.000006   0.000003   0.000000  -0.000000
    19  C   -0.000011   0.000139   0.000832   0.000492   0.000090  -0.000011
    20  C    0.000068  -0.001074   0.000474  -0.000055  -0.000531  -0.000023
    21  H   -0.000002   0.001989  -0.000475   0.000024   0.000026  -0.000005
    22  H   -0.000000  -0.000027   0.000240   0.000004  -0.000010  -0.000001
    23  H    0.000006  -0.000108  -0.001109  -0.000116   0.000953   0.000108
    24  C    0.000004   0.000033   0.003542   0.001867  -0.000138   0.000001
    25  H    0.000000   0.000000   0.000103   0.000103  -0.000001   0.000000
    26  C   -0.000265   0.002063  -0.007126  -0.000165  -0.000056  -0.000004
    27  H   -0.000001  -0.000175   0.000040  -0.000033   0.000003  -0.000000
    28  H    0.000067   0.003280   0.000350   0.000065   0.000004  -0.000000
              13         14         15         16         17         18
     1  C   -0.000126  -0.000155  -0.000082  -0.000004   0.000030  -0.000007
     2  H   -0.000014   0.000002  -0.000015   0.000004  -0.000000   0.000000
     3  H   -0.000002   0.000010   0.000003   0.000000  -0.000000   0.000000
     4  C   -0.000346  -0.000668  -0.000131  -0.000001   0.000049  -0.000001
     5  C    0.000384   0.000387  -0.000000   0.000000   0.000000  -0.000000
     6  H   -0.000008  -0.000209   0.000000  -0.000000  -0.000000   0.000000
     7  H   -0.000035   0.000077   0.000000  -0.000000   0.000000  -0.000000
     8  H    0.000038  -0.000022   0.000000   0.000000  -0.000000   0.000000
     9  C   -0.034089  -0.032314  -0.000098  -0.000003   0.000015   0.000006
    10  H   -0.001925  -0.001199   0.000043   0.000006  -0.000007   0.000003
    11  C    0.382796   0.384760  -0.000041   0.000000  -0.000004   0.000000
    12  H   -0.028768  -0.027876   0.000001  -0.000000  -0.000000  -0.000000
    13  H    0.588144  -0.034196   0.000016  -0.000001   0.000187  -0.000001
    14  H   -0.034196   0.578368   0.000000  -0.000000   0.000000  -0.000000
    15  C    0.000016   0.000000   5.006600   0.384459   0.381630   0.379758
    16  H   -0.000001  -0.000000   0.384459   0.572463  -0.026634  -0.026493
    17  H    0.000187   0.000000   0.381630  -0.026634   0.595158  -0.037165
    18  H   -0.000001  -0.000000   0.379758  -0.026493  -0.037165   0.592365
    19  C    0.000060  -0.000004   0.368375  -0.033353  -0.037016  -0.034632
    20  C   -0.000286   0.000027  -0.078618   0.004788  -0.001150  -0.001700
    21  H    0.000006  -0.000001   0.004999  -0.000179  -0.000039  -0.000022
    22  H   -0.000026   0.000000  -0.003764  -0.000001  -0.000848   0.004492
    23  H    0.001106   0.000004  -0.001938  -0.000041   0.003742  -0.000717
    24  C    0.000026  -0.000003  -0.037500  -0.005007  -0.001428  -0.000940
    25  H    0.000000   0.000000  -0.014551   0.006683   0.000215   0.000284
    26  C    0.000031  -0.000007   0.005986   0.000088  -0.000125  -0.000199
    27  H   -0.000000   0.000000  -0.000168  -0.000010  -0.000001   0.000009
    28  H    0.000000  -0.000000   0.000024   0.000012  -0.000008   0.000012
              19         20         21         22         23         24
     1  C   -0.004396  -0.000358  -0.001188  -0.000034   0.000250  -0.057830
     2  H    0.000132   0.000020   0.000001   0.000001   0.000002  -0.005720
     3  H   -0.000047  -0.000001   0.000031   0.000002  -0.000007   0.005592
     4  C   -0.001655   0.002178  -0.001058   0.000198   0.000698  -0.005694
     5  C    0.000149  -0.001227   0.000693  -0.000006   0.000229  -0.000166
     6  H    0.000018   0.000020   0.000083  -0.000002   0.000050  -0.000005
     7  H   -0.000011   0.000068  -0.000002  -0.000000   0.000006   0.000004
     8  H    0.000139  -0.001074   0.001989  -0.000027  -0.000108   0.000033
     9  C    0.000832   0.000474  -0.000475   0.000240  -0.001109   0.003542
    10  H    0.000492  -0.000055   0.000024   0.000004  -0.000116   0.001867
    11  C    0.000090  -0.000531   0.000026  -0.000010   0.000953  -0.000138
    12  H   -0.000011  -0.000023  -0.000005  -0.000001   0.000108   0.000001
    13  H    0.000060  -0.000286   0.000006  -0.000026   0.001106   0.000026
    14  H   -0.000004   0.000027  -0.000001   0.000000   0.000004  -0.000003
    15  C    0.368375  -0.078618   0.004999  -0.003764  -0.001938  -0.037500
    16  H   -0.033353   0.004788  -0.000179  -0.000001  -0.000041  -0.005007
    17  H   -0.037016  -0.001150  -0.000039  -0.000848   0.003742  -0.001428
    18  H   -0.034632  -0.001700  -0.000022   0.004492  -0.000717  -0.000940
    19  C    4.707505   0.381978  -0.027032  -0.036742  -0.034434   0.717790
    20  C    0.381978   4.993256   0.382089   0.380875   0.381629  -0.053124
    21  H   -0.027032   0.382089   0.587842  -0.027883  -0.028750  -0.009052
    22  H   -0.036742   0.380875  -0.027883   0.594512  -0.034649   0.001894
    23  H   -0.034434   0.381629  -0.028750  -0.034649   0.587167  -0.001089
    24  C    0.717790  -0.053124  -0.009052   0.001894  -0.001089   4.912050
    25  H   -0.033664   0.006535  -0.000005  -0.000156  -0.000180   0.377181
    26  C   -0.038444  -0.014534   0.002518   0.000100   0.000673   0.366692
    27  H    0.002893   0.000370  -0.000041   0.000015  -0.000018  -0.031987
    28  H   -0.006500   0.000136   0.002497   0.000138  -0.000279  -0.039391
              25         26         27         28
     1  C   -0.000074   0.338664  -0.036477  -0.040474
     2  H    0.002402  -0.038786  -0.002729   0.005392
     3  H   -0.000109  -0.039794  -0.004550  -0.002215
     4  C   -0.000061  -0.050165   0.005144  -0.007545
     5  C   -0.000011  -0.003810  -0.000008   0.000515
     6  H   -0.000000   0.000015   0.000004  -0.000227
     7  H    0.000000  -0.000265  -0.000001   0.000067
     8  H    0.000000   0.002063  -0.000175   0.003280
     9  C    0.000103  -0.007126   0.000040   0.000350
    10  H    0.000103  -0.000165  -0.000033   0.000065
    11  C   -0.000001  -0.000056   0.000003   0.000004
    12  H    0.000000  -0.000004  -0.000000  -0.000000
    13  H    0.000000   0.000031  -0.000000   0.000000
    14  H    0.000000  -0.000007   0.000000  -0.000000
    15  C   -0.014551   0.005986  -0.000168   0.000024
    16  H    0.006683   0.000088  -0.000010   0.000012
    17  H    0.000215  -0.000125  -0.000001  -0.000008
    18  H    0.000284  -0.000199   0.000009   0.000012
    19  C   -0.033664  -0.038444   0.002893  -0.006500
    20  C    0.006535  -0.014534   0.000370   0.000136
    21  H   -0.000005   0.002518  -0.000041   0.002497
    22  H   -0.000156   0.000100   0.000015   0.000138
    23  H   -0.000180   0.000673  -0.000018  -0.000279
    24  C    0.377181   0.366692  -0.031987  -0.039391
    25  H    0.617831  -0.053586  -0.005302   0.004685
    26  C   -0.053586   5.010487   0.383234   0.390214
    27  H   -0.005302   0.383234   0.602880  -0.032454
    28  H    0.004685   0.390214  -0.032454   0.610578
 Mulliken charges:
               1
     1  C   -0.250606
     2  H    0.116034
     3  H    0.109936
     4  C    0.098200
     5  C   -0.396232
     6  H    0.122887
     7  H    0.134058
     8  H    0.117579
     9  C   -0.129133
    10  H    0.096159
    11  C   -0.393772
    12  H    0.120229
    13  H    0.127029
    14  H    0.133018
    15  C   -0.394986
    16  H    0.123224
    17  H    0.123402
    18  H    0.124947
    19  C    0.107488
    20  C   -0.381760
    21  H    0.112936
    22  H    0.121676
    23  H    0.126819
    24  C   -0.137597
    25  H    0.091676
    26  C   -0.253698
    27  H    0.119363
    28  H    0.111123
 Sum of Mulliken charges =  -0.00000
 Mulliken charges with hydrogens summed into heavy atoms:
               1
     1  C   -0.024636
     4  C    0.098200
     5  C   -0.021707
     9  C   -0.032974
    11  C   -0.013495
    15  C   -0.023414
    19  C    0.107488
    20  C   -0.020329
    24  C   -0.045922
    26  C   -0.023212
 Electronic spatial extent (au):  <R**2>=           1784.2269
 Charge=              0.0000 electrons
 Dipole moment (field-independent basis, Debye):
    X=             -0.1426    Y=              0.2319    Z=              0.1873  Tot=              0.3304
 Quadrupole moment (field-independent basis, Debye-Ang):
   XX=            -65.3631   YY=            -62.9269   ZZ=            -63.9660
   XY=              1.0476   XZ=             -1.4448   YZ=              0.3209
 Traceless Quadrupole moment (field-independent basis, Debye-Ang):
   XX=             -1.2778   YY=              1.1585   ZZ=              0.1194
   XY=              1.0476   XZ=             -1.4448   YZ=              0.3209
 Octapole moment (field-independent basis, Debye-Ang**2):
  XXX=              0.1104  YYY=              0.5603  ZZZ=             -1.6256  XYY=             -3.1186
  XXY=              3.6902  XXZ=              2.2434  XZZ=              2.2373  YZZ=             -0.0275
  YYZ=             -1.8646  XYZ=              2.6090
 Hexadecapole moment (field-independent basis, Debye-Ang**3):
 XXXX=          -1334.9794 YYYY=           -762.0692 ZZZZ=           -371.1976 XXXY=             11.1097
 XXXZ=             -7.5218 YYYX=             -0.2345 YYYZ=             -0.1334 ZZZX=             -1.0370
 ZZZY=             -0.3396 XXYY=           -349.0391 XXZZ=           -280.2823 YYZZ=           -189.0016
 XXYZ=              4.6451 YYXZ=             -0.6787 ZZXY=             -4.2063
 N-N= 5.462823371513D+02 E-N=-1.997729502395D+03  KE= 3.881298087413D+02
 No NMR shielding tensors so no spin-rotation constants.
 Leave Link  601 at Mon Jul 19 22:38:27 2021, MaxMem=   524288000 cpu:               1.7 elap:               0.6
 (Enter /opt/gaussian/g16_legacy/l9999.exe)
 1\1\GINC-TRUENO91\FOpt\RM062X\6-31G(d,p)\C10H18\JRAMOS\19-Jul-2021\0\\
 #p opt=loose m062x/6-31g(d,p)\\Conformer number 036. Energy MM = 25.90
 2 kcal/mol\\0,1\C,2.1369001124,1.1653529263,-8.9690838945\H,1.83879568
 38,0.11393328,-9.0435401564\H,1.8620995406,1.6480332183,-9.9156146389\
 C,3.6292301099,1.2669015344,-8.7585238267\C,4.2323487364,2.5920312477,
 -9.1458840675\H,5.2551634258,2.7212052048,-8.7905079083\H,4.2345823759
 ,2.705689222,-10.2362404713\H,3.6344070548,3.4205594915,-8.7483768125\
 C,4.307325291,0.2448895395,-8.2263415842\H,3.738715997,-0.6558957559,-
 7.9941706776\C,5.7657002592,0.1804638412,-7.8820274865\H,6.2978247932,
 1.1059830433,-8.1070038805\H,5.8980721506,-0.0332180769,-6.8149780754\
 H,6.2603454418,-0.6303647484,-8.4276504612\C,2.37383411,0.3142183418,-
 4.3614643612\H,1.600511073,-0.4551765923,-4.4150232844\H,3.3487530734,
 -0.182222912,-4.2843791018\H,2.2349745459,0.8798766628,-3.4327362182\C
 ,2.3388183498,1.2269661804,-5.5585713245\C,3.3872266412,2.3069027023,-
 5.5482228209\H,3.2908923877,3.0037016598,-6.3816447582\H,3.3431192625,
 2.8768312434,-4.6128985617\H,4.3872923411,1.8602246446,-5.6061429371\C
 ,1.4483430089,1.047688415,-6.5394575433\H,0.7566601438,0.2100569993,-6
 .4424563835\C,1.3370492636,1.8266195806,-7.8199009572\H,0.2843281871,1
 .885970824,-8.1168495909\H,1.6771866395,2.8590782824,-7.6870082154\\Ve
 rsion=EM64L-G16RevA.03\State=1-A\HF=-391.6918118\RMSD=7.554e-09\RMSF=2
 .954e-05\Dipole=0.1222351,0.0429291,0.010798\Quadrupole=0.0664898,0.20
 9165,-0.2756548,0.5302536,1.0802861,-1.0645536\PG=C01 [X(C10H18)]\\@


 YOU ARE IN A MAZE OF TWISTY LITTLE PASSAGES.
 Job cpu time:       0 days  1 hours 55 minutes 18.7 seconds.
 Elapsed time:       0 days  0 hours 30 minutes 17.1 seconds.
 File lengths (MBytes):  RWF=     33 Int=      0 D2E=      0 Chk=      6 Scr=      1
 Normal termination of Gaussian 16 at Mon Jul 19 22:38:28 2021.
