 Entering Gaussian System, Link 0=/opt/gaussian/g16_legacy/g16
 Input=IsoP_pybabel_01_008_gaussian.com
 Output=IsoP_pybabel_01_008_gaussian.log
 Initial command:
 /opt/gaussian/g16_legacy/l1.exe "/scratch-local/jramos/2644945/Gau-13617.inp" -scrdir="/scratch-local/jramos/2644945/"
 Entering Link 1 = /opt/gaussian/g16_legacy/l1.exe PID=     13618.
  
 Copyright (c) 1988,1990,1992,1993,1995,1998,2003,2009,2016,
            Gaussian, Inc.  All Rights Reserved.
  
 This is part of the Gaussian(R) 16 program.  It is based on
 the Gaussian(R) 09 system (copyright 2009, Gaussian, Inc.),
 the Gaussian(R) 03 system (copyright 2003, Gaussian, Inc.),
 the Gaussian(R) 98 system (copyright 1998, Gaussian, Inc.),
 the Gaussian(R) 94 system (copyright 1995, Gaussian, Inc.),
 the Gaussian 92(TM) system (copyright 1992, Gaussian, Inc.),
 the Gaussian 90(TM) system (copyright 1990, Gaussian, Inc.),
 the Gaussian 88(TM) system (copyright 1988, Gaussian, Inc.),
 the Gaussian 86(TM) system (copyright 1986, Carnegie Mellon
 University), and the Gaussian 82(TM) system (copyright 1983,
 Carnegie Mellon University). Gaussian is a federally registered
 trademark of Gaussian, Inc.
  
 This software contains proprietary and confidential information,
 including trade secrets, belonging to Gaussian, Inc.
  
 This software is provided under written license and may be
 used, copied, transmitted, or stored only in accord with that
 written license.
  
 The following legend is applicable only to US Government
 contracts under FAR:
  
                    RESTRICTED RIGHTS LEGEND
  
 Use, reproduction and disclosure by the US Government is
 subject to restrictions as set forth in subparagraphs (a)
 and (c) of the Commercial Computer Software - Restricted
 Rights clause in FAR 52.227-19.
  
 Gaussian, Inc.
 340 Quinnipiac St., Bldg. 40, Wallingford CT 06492
  
  
 ---------------------------------------------------------------
 Warning -- This program may not be used in any manner that
 competes with the business of Gaussian, Inc. or will provide
 assistance to any competitor of Gaussian, Inc.  The licensee
 of this program is prohibited from giving any competitor of
 Gaussian, Inc. access to this program.  By using this program,
 the user acknowledges that Gaussian, Inc. is engaged in the
 business of creating and licensing software in the field of
 computational chemistry and represents and warrants to the
 licensee that it is not a competitor of Gaussian, Inc. and that
 it will not use this program in any manner prohibited above.
 ---------------------------------------------------------------
  

 Cite this work as:
 Gaussian 16, Revision A.03,
 M. J. Frisch, G. W. Trucks, H. B. Schlegel, G. E. Scuseria, 
 M. A. Robb, J. R. Cheeseman, G. Scalmani, V. Barone, 
 G. A. Petersson, H. Nakatsuji, X. Li, M. Caricato, A. V. Marenich, 
 J. Bloino, B. G. Janesko, R. Gomperts, B. Mennucci, H. P. Hratchian, 
 J. V. Ortiz, A. F. Izmaylov, J. L. Sonnenberg, D. Williams-Young, 
 F. Ding, F. Lipparini, F. Egidi, J. Goings, B. Peng, A. Petrone, 
 T. Henderson, D. Ranasinghe, V. G. Zakrzewski, J. Gao, N. Rega, 
 G. Zheng, W. Liang, M. Hada, M. Ehara, K. Toyota, R. Fukuda, 
 J. Hasegawa, M. Ishida, T. Nakajima, Y. Honda, O. Kitao, H. Nakai, 
 T. Vreven, K. Throssell, J. A. Montgomery, Jr., J. E. Peralta, 
 F. Ogliaro, M. J. Bearpark, J. J. Heyd, E. N. Brothers, K. N. Kudin, 
 V. N. Staroverov, T. A. Keith, R. Kobayashi, J. Normand, 
 K. Raghavachari, A. P. Rendell, J. C. Burant, S. S. Iyengar, 
 J. Tomasi, M. Cossi, J. M. Millam, M. Klene, C. Adamo, R. Cammi, 
 J. W. Ochterski, R. L. Martin, K. Morokuma, O. Farkas, 
 J. B. Foresman, and D. J. Fox, Gaussian, Inc., Wallingford CT, 2016.
 
 ******************************************
 Gaussian 16:  EM64L-G16RevA.03 25-Dec-2016
                19-Jul-2021 
 ******************************************
 %chk=IsoP_pybabel_01_008_gaussian.chk
 %nproc=4
 Will use up to    4 processors via shared memory.
 %mem=4000Mb
 -----------------------------
 #p opt=loose m062x/6-31g(d,p)
 -----------------------------
 1/7=-1,18=20,19=15,26=3,38=1/1,3;
 2/9=110,12=2,17=6,18=5,40=1/2;
 3/5=1,6=6,7=101,11=2,25=1,30=1,71=1,74=-55/1,2,3;
 4//1;
 5/5=2,38=5/2;
 6/7=2,8=2,9=2,10=2,28=1/1;
 7//1,2,3,16;
 1/7=-1,18=20,19=15,26=3/3(2);
 2/9=110/2;
 99//99;
 2/9=110/2;
 3/5=1,6=6,7=101,11=2,25=1,30=1,71=1,74=-55/1,2,3;
 4/5=5,16=3,69=1/1;
 5/5=2,38=5/2;
 7//1,2,3,16;
 1/7=-1,18=20,19=15,26=3/3(-5);
 2/9=110/2;
 6/7=2,8=2,9=2,10=2,19=2,28=1/1;
 99/9=1/99;
 Leave Link    1 at Mon Jul 19 20:39:00 2021, MaxMem=   524288000 cpu:               0.2 elap:               0.1
 (Enter /opt/gaussian/g16_legacy/l101.exe)
 -------------------------------------------------
 Conformer number 008. Energy MM = 26.045 kcal/mol
 -------------------------------------------------
 Symbolic Z-matrix:
 Charge =  0 Multiplicity = 1
 C                     2.2117    1.2943   -8.9475 
 H                     1.9036    0.3005   -9.2973 
 H                     2.0571    1.9619   -9.8056 
 C                     3.6854    1.271    -8.5885 
 C                     4.2131   -0.0221   -8.0256 
 H                     4.9444    0.1488   -7.2301 
 H                     3.416    -0.6288   -7.5859 
 H                     4.676    -0.617    -8.8189 
 C                     4.4525    2.3604   -8.7974 
 H                     3.9866    3.2528   -9.2147 
 C                     5.9153    2.4997   -8.5264 
 H                     6.3741    1.5894   -8.1333 
 H                     6.4373    2.7622   -9.4526 
 H                     6.0813    3.3027   -7.8017 
 C                     0.7098   -1.0211   -5.1205 
 H                     1.5182   -0.6467   -4.4831 
 H                    -0.2088   -1.0326   -4.5264 
 H                     0.9611   -2.0506   -5.3976 
 C                     0.5264   -0.1844   -6.3576 
 C                    -0.5661   -0.6456   -7.2823 
 H                    -0.4136   -0.3117   -8.3125 
 H                    -0.6091   -1.7396   -7.3122 
 H                    -1.5344   -0.2721   -6.9355 
 C                     1.3291    0.8674   -6.6025 
 H                     2.1094    1.1141   -5.8823 
 C                     1.2948    1.7673   -7.8078 
 H                     0.27      1.8605   -8.1859 
 H                     1.5817    2.7791   -7.4922 
 
 ITRead=  0  0  0  0  0  0  0  0  0  0  0  0  0  0  0  0  0  0  0  0
 ITRead=  0  0  0  0  0  0  0  0
 MicOpt= -1 -1 -1 -1 -1 -1 -1 -1 -1 -1 -1 -1 -1 -1 -1 -1 -1 -1 -1 -1
 MicOpt= -1 -1 -1 -1 -1 -1 -1 -1
 NAtoms=     28 NQM=       28 NQMF=       0 NMMI=      0 NMMIF=      0
                NMic=       0 NMicF=      0.
                    Isotopes and Nuclear Properties:
 (Nuclear quadrupole moments (NQMom) in fm**2, nuclear magnetic moments (NMagM)
  in nuclear magnetons)

  Atom         1           2           3           4           5           6           7           8           9          10
 IAtWgt=          12           1           1          12          12           1           1           1          12           1
 AtmWgt=  12.0000000   1.0078250   1.0078250  12.0000000  12.0000000   1.0078250   1.0078250   1.0078250  12.0000000   1.0078250
 NucSpn=           0           1           1           0           0           1           1           1           0           1
 AtZEff=  -0.0000000  -0.0000000  -0.0000000  -0.0000000  -0.0000000  -0.0000000  -0.0000000  -0.0000000  -0.0000000  -0.0000000
 NQMom=    0.0000000   0.0000000   0.0000000   0.0000000   0.0000000   0.0000000   0.0000000   0.0000000   0.0000000   0.0000000
 NMagM=    0.0000000   2.7928460   2.7928460   0.0000000   0.0000000   2.7928460   2.7928460   2.7928460   0.0000000   2.7928460
 AtZNuc=   6.0000000   1.0000000   1.0000000   6.0000000   6.0000000   1.0000000   1.0000000   1.0000000   6.0000000   1.0000000

  Atom        11          12          13          14          15          16          17          18          19          20
 IAtWgt=          12           1           1           1          12           1           1           1          12          12
 AtmWgt=  12.0000000   1.0078250   1.0078250   1.0078250  12.0000000   1.0078250   1.0078250   1.0078250  12.0000000  12.0000000
 NucSpn=           0           1           1           1           0           1           1           1           0           0
 AtZEff=  -0.0000000  -0.0000000  -0.0000000  -0.0000000  -0.0000000  -0.0000000  -0.0000000  -0.0000000  -0.0000000  -0.0000000
 NQMom=    0.0000000   0.0000000   0.0000000   0.0000000   0.0000000   0.0000000   0.0000000   0.0000000   0.0000000   0.0000000
 NMagM=    0.0000000   2.7928460   2.7928460   2.7928460   0.0000000   2.7928460   2.7928460   2.7928460   0.0000000   0.0000000
 AtZNuc=   6.0000000   1.0000000   1.0000000   1.0000000   6.0000000   1.0000000   1.0000000   1.0000000   6.0000000   6.0000000

  Atom        21          22          23          24          25          26          27          28
 IAtWgt=           1           1           1          12           1          12           1           1
 AtmWgt=   1.0078250   1.0078250   1.0078250  12.0000000   1.0078250  12.0000000   1.0078250   1.0078250
 NucSpn=           1           1           1           0           1           0           1           1
 AtZEff=  -0.0000000  -0.0000000  -0.0000000  -0.0000000  -0.0000000  -0.0000000  -0.0000000  -0.0000000
 NQMom=    0.0000000   0.0000000   0.0000000   0.0000000   0.0000000   0.0000000   0.0000000   0.0000000
 NMagM=    2.7928460   2.7928460   2.7928460   0.0000000   2.7928460   0.0000000   2.7928460   2.7928460
 AtZNuc=   1.0000000   1.0000000   1.0000000   6.0000000   1.0000000   6.0000000   1.0000000   1.0000000
 Leave Link  101 at Mon Jul 19 20:39:01 2021, MaxMem=   524288000 cpu:               1.1 elap:               0.3
 (Enter /opt/gaussian/g16_legacy/l103.exe)

 GradGradGradGradGradGradGradGradGradGradGradGradGradGradGradGradGradGrad
 Berny optimization.
 Initialization pass.
                           ----------------------------
                           !    Initial Parameters    !
                           ! (Angstroms and Degrees)  !
 --------------------------                            --------------------------
 ! Name  Definition              Value          Derivative Info.                !
 --------------------------------------------------------------------------------
 ! R1    R(1,2)                  1.0977         estimate D2E/DX2                !
 ! R2    R(1,3)                  1.0981         estimate D2E/DX2                !
 ! R3    R(1,4)                  1.517          estimate D2E/DX2                !
 ! R4    R(1,26)                 1.5373         estimate D2E/DX2                !
 ! R5    R(4,5)                  1.5058         estimate D2E/DX2                !
 ! R6    R(4,9)                  1.3487         estimate D2E/DX2                !
 ! R7    R(5,6)                  1.094          estimate D2E/DX2                !
 ! R8    R(5,7)                  1.094          estimate D2E/DX2                !
 ! R9    R(5,8)                  1.0943         estimate D2E/DX2                !
 ! R10   R(9,10)                 1.0898         estimate D2E/DX2                !
 ! R11   R(9,11)                 1.4942         estimate D2E/DX2                !
 ! R12   R(11,12)                1.0926         estimate D2E/DX2                !
 ! R13   R(11,13)                1.0951         estimate D2E/DX2                !
 ! R14   R(11,14)                1.0943         estimate D2E/DX2                !
 ! R15   R(15,16)                1.0954         estimate D2E/DX2                !
 ! R16   R(15,17)                1.094          estimate D2E/DX2                !
 ! R17   R(15,18)                1.0954         estimate D2E/DX2                !
 ! R18   R(15,19)                1.5047         estimate D2E/DX2                !
 ! R19   R(19,20)                1.5038         estimate D2E/DX2                !
 ! R20   R(19,24)                1.3456         estimate D2E/DX2                !
 ! R21   R(20,21)                1.0936         estimate D2E/DX2                !
 ! R22   R(20,22)                1.0953         estimate D2E/DX2                !
 ! R23   R(20,23)                1.0942         estimate D2E/DX2                !
 ! R24   R(24,25)                1.0901         estimate D2E/DX2                !
 ! R25   R(24,26)                1.5046         estimate D2E/DX2                !
 ! R26   R(26,27)                1.0963         estimate D2E/DX2                !
 ! R27   R(26,28)                1.098          estimate D2E/DX2                !
 ! A1    A(2,1,3)              105.1811         estimate D2E/DX2                !
 ! A2    A(2,1,4)              109.5228         estimate D2E/DX2                !
 ! A3    A(2,1,26)             110.3284         estimate D2E/DX2                !
 ! A4    A(3,1,4)              109.3312         estimate D2E/DX2                !
 ! A5    A(3,1,26)             107.956          estimate D2E/DX2                !
 ! A6    A(4,1,26)             114.1228         estimate D2E/DX2                !
 ! A7    A(1,4,5)              116.2382         estimate D2E/DX2                !
 ! A8    A(1,4,9)              120.2317         estimate D2E/DX2                !
 ! A9    A(5,4,9)              123.5209         estimate D2E/DX2                !
 ! A10   A(4,5,6)              111.835          estimate D2E/DX2                !
 ! A11   A(4,5,7)              111.7866         estimate D2E/DX2                !
 ! A12   A(4,5,8)              110.1261         estimate D2E/DX2                !
 ! A13   A(6,5,7)              106.3458         estimate D2E/DX2                !
 ! A14   A(6,5,8)              109.2259         estimate D2E/DX2                !
 ! A15   A(7,5,8)              107.3433         estimate D2E/DX2                !
 ! A16   A(4,9,10)             118.53           estimate D2E/DX2                !
 ! A17   A(4,9,11)             127.1604         estimate D2E/DX2                !
 ! A18   A(10,9,11)            114.3084         estimate D2E/DX2                !
 ! A19   A(9,11,12)            113.4963         estimate D2E/DX2                !
 ! A20   A(9,11,13)            109.6093         estimate D2E/DX2                !
 ! A21   A(9,11,14)            109.6954         estimate D2E/DX2                !
 ! A22   A(12,11,13)           107.6894         estimate D2E/DX2                !
 ! A23   A(12,11,14)           108.0235         estimate D2E/DX2                !
 ! A24   A(13,11,14)           108.1737         estimate D2E/DX2                !
 ! A25   A(16,15,17)           107.8937         estimate D2E/DX2                !
 ! A26   A(16,15,18)           107.4051         estimate D2E/DX2                !
 ! A27   A(16,15,19)           112.2276         estimate D2E/DX2                !
 ! A28   A(17,15,18)           108.6708         estimate D2E/DX2                !
 ! A29   A(17,15,19)           110.4852         estimate D2E/DX2                !
 ! A30   A(18,15,19)           110.0355         estimate D2E/DX2                !
 ! A31   A(15,19,20)           115.0603         estimate D2E/DX2                !
 ! A32   A(15,19,24)           120.7691         estimate D2E/DX2                !
 ! A33   A(20,19,24)           124.1396         estimate D2E/DX2                !
 ! A34   A(19,20,21)           112.6006         estimate D2E/DX2                !
 ! A35   A(19,20,22)           110.5885         estimate D2E/DX2                !
 ! A36   A(19,20,23)           110.0789         estimate D2E/DX2                !
 ! A37   A(21,20,22)           106.542          estimate D2E/DX2                !
 ! A38   A(21,20,23)           108.5254         estimate D2E/DX2                !
 ! A39   A(22,20,23)           108.3518         estimate D2E/DX2                !
 ! A40   A(19,24,25)           118.9238         estimate D2E/DX2                !
 ! A41   A(19,24,26)           126.8503         estimate D2E/DX2                !
 ! A42   A(25,24,26)           114.2175         estimate D2E/DX2                !
 ! A43   A(1,26,24)            113.3452         estimate D2E/DX2                !
 ! A44   A(1,26,27)            109.1476         estimate D2E/DX2                !
 ! A45   A(1,26,28)            109.9234         estimate D2E/DX2                !
 ! A46   A(24,26,27)           110.3923         estimate D2E/DX2                !
 ! A47   A(24,26,28)           108.3567         estimate D2E/DX2                !
 ! A48   A(27,26,28)           105.3693         estimate D2E/DX2                !
 ! D1    D(2,1,4,5)            -33.1593         estimate D2E/DX2                !
 ! D2    D(2,1,4,9)            145.779          estimate D2E/DX2                !
 ! D3    D(3,1,4,5)           -147.9199         estimate D2E/DX2                !
 ! D4    D(3,1,4,9)             31.0183         estimate D2E/DX2                !
 ! D5    D(26,1,4,5)            91.0788         estimate D2E/DX2                !
 ! D6    D(26,1,4,9)           -89.9829         estimate D2E/DX2                !
 ! D7    D(2,1,26,24)           60.9933         estimate D2E/DX2                !
 ! D8    D(2,1,26,27)          -62.4834         estimate D2E/DX2                !
 ! D9    D(2,1,26,28)         -177.588          estimate D2E/DX2                !
 ! D10   D(3,1,26,24)          175.4259         estimate D2E/DX2                !
 ! D11   D(3,1,26,27)           51.9491         estimate D2E/DX2                !
 ! D12   D(3,1,26,28)          -63.1555         estimate D2E/DX2                !
 ! D13   D(4,1,26,24)          -62.8122         estimate D2E/DX2                !
 ! D14   D(4,1,26,27)          173.711          estimate D2E/DX2                !
 ! D15   D(4,1,26,28)           58.6064         estimate D2E/DX2                !
 ! D16   D(1,4,5,6)           -141.8369         estimate D2E/DX2                !
 ! D17   D(1,4,5,7)            -22.7157         estimate D2E/DX2                !
 ! D18   D(1,4,5,8)             96.5184         estimate D2E/DX2                !
 ! D19   D(9,4,5,6)             39.2634         estimate D2E/DX2                !
 ! D20   D(9,4,5,7)            158.3846         estimate D2E/DX2                !
 ! D21   D(9,4,5,8)            -82.3812         estimate D2E/DX2                !
 ! D22   D(1,4,9,10)             0.7793         estimate D2E/DX2                !
 ! D23   D(1,4,9,11)          -178.8075         estimate D2E/DX2                !
 ! D24   D(5,4,9,10)           179.637          estimate D2E/DX2                !
 ! D25   D(5,4,9,11)             0.0502         estimate D2E/DX2                !
 ! D26   D(4,9,11,12)            1.1316         estimate D2E/DX2                !
 ! D27   D(4,9,11,13)          121.5699         estimate D2E/DX2                !
 ! D28   D(4,9,11,14)         -119.7966         estimate D2E/DX2                !
 ! D29   D(10,9,11,12)        -178.4701         estimate D2E/DX2                !
 ! D30   D(10,9,11,13)         -58.0318         estimate D2E/DX2                !
 ! D31   D(10,9,11,14)          60.6017         estimate D2E/DX2                !
 ! D32   D(16,15,19,20)        179.7902         estimate D2E/DX2                !
 ! D33   D(16,15,19,24)          1.7353         estimate D2E/DX2                !
 ! D34   D(17,15,19,20)        -59.746          estimate D2E/DX2                !
 ! D35   D(17,15,19,24)        122.1991         estimate D2E/DX2                !
 ! D36   D(18,15,19,20)         60.2535         estimate D2E/DX2                !
 ! D37   D(18,15,19,24)       -117.8014         estimate D2E/DX2                !
 ! D38   D(15,19,20,21)       -156.0776         estimate D2E/DX2                !
 ! D39   D(15,19,20,22)        -37.0117         estimate D2E/DX2                !
 ! D40   D(15,19,20,23)         82.6849         estimate D2E/DX2                !
 ! D41   D(24,19,20,21)         21.9031         estimate D2E/DX2                !
 ! D42   D(24,19,20,22)        140.969          estimate D2E/DX2                !
 ! D43   D(24,19,20,23)        -99.3344         estimate D2E/DX2                !
 ! D44   D(15,19,24,25)         -0.803          estimate D2E/DX2                !
 ! D45   D(15,19,24,26)        178.0748         estimate D2E/DX2                !
 ! D46   D(20,19,24,25)       -178.674          estimate D2E/DX2                !
 ! D47   D(20,19,24,26)          0.2038         estimate D2E/DX2                !
 ! D48   D(19,24,26,1)         -90.9802         estimate D2E/DX2                !
 ! D49   D(19,24,26,27)         31.8112         estimate D2E/DX2                !
 ! D50   D(19,24,26,28)        146.726          estimate D2E/DX2                !
 ! D51   D(25,24,26,1)          87.9427         estimate D2E/DX2                !
 ! D52   D(25,24,26,27)       -149.2659         estimate D2E/DX2                !
 ! D53   D(25,24,26,28)        -34.351          estimate D2E/DX2                !
 --------------------------------------------------------------------------------
 Trust Radius=3.00D-01 FncErr=1.00D-07 GrdErr=1.00D-06 EigMax=2.50D+02 EigMin=1.00D-04
 Number of steps in this run=    138 maximum allowed number of steps=    168.
 GradGradGradGradGradGradGradGradGradGradGradGradGradGradGradGradGradGrad

 Leave Link  103 at Mon Jul 19 20:39:01 2021, MaxMem=   524288000 cpu:               0.2 elap:               0.2
 (Enter /opt/gaussian/g16_legacy/l202.exe)
                          Input orientation:                          
 ---------------------------------------------------------------------
 Center     Atomic      Atomic             Coordinates (Angstroms)
 Number     Number       Type             X           Y           Z
 ---------------------------------------------------------------------
      1          6           0        2.211700    1.294300   -8.947500
      2          1           0        1.903600    0.300500   -9.297300
      3          1           0        2.057100    1.961900   -9.805600
      4          6           0        3.685400    1.271000   -8.588500
      5          6           0        4.213100   -0.022100   -8.025600
      6          1           0        4.944400    0.148800   -7.230100
      7          1           0        3.416000   -0.628800   -7.585900
      8          1           0        4.676000   -0.617000   -8.818900
      9          6           0        4.452500    2.360400   -8.797400
     10          1           0        3.986600    3.252800   -9.214700
     11          6           0        5.915300    2.499700   -8.526400
     12          1           0        6.374100    1.589400   -8.133300
     13          1           0        6.437300    2.762200   -9.452600
     14          1           0        6.081300    3.302700   -7.801700
     15          6           0        0.709800   -1.021100   -5.120500
     16          1           0        1.518200   -0.646700   -4.483100
     17          1           0       -0.208800   -1.032600   -4.526400
     18          1           0        0.961100   -2.050600   -5.397600
     19          6           0        0.526400   -0.184400   -6.357600
     20          6           0       -0.566100   -0.645600   -7.282300
     21          1           0       -0.413600   -0.311700   -8.312500
     22          1           0       -0.609100   -1.739600   -7.312200
     23          1           0       -1.534400   -0.272100   -6.935500
     24          6           0        1.329100    0.867400   -6.602500
     25          1           0        2.109400    1.114100   -5.882300
     26          6           0        1.294800    1.767300   -7.807800
     27          1           0        0.270000    1.860500   -8.185900
     28          1           0        1.581700    2.779100   -7.492200
 ---------------------------------------------------------------------
                    Distance matrix (angstroms):
                    1          2          3          4          5
     1  C    0.000000
     2  H    1.097690   0.000000
     3  H    1.098147   1.744185   0.000000
     4  C    1.516976   2.149204   2.147099   0.000000
     5  C    2.566790   2.656140   3.428264   1.505799   0.000000
     6  H    3.424804   3.680053   4.272825   2.165563   1.093996
     7  H    2.646244   2.465734   3.672248   2.164953   1.093979
     8  H    3.121279   2.959202   3.805646   2.144508   1.094307
     9  C    2.486018   3.315114   2.629299   1.348656   2.515809
    10  H    2.656575   3.614109   2.395528   2.100090   3.491451
    11  C    3.917521   4.639451   4.100157   2.546765   3.083466
    12  H    4.251538   4.795991   4.644549   2.745486   2.697861
    13  H    4.501728   5.161252   4.466681   3.247045   3.838713
    14  H    4.507808   5.357537   4.691220   3.238394   3.820288
    15  C    4.718338   4.540643   5.715214   5.112235   4.659476
    16  H    4.917244   4.921610   5.951824   5.022812   4.494654
    17  H    5.551523   5.385246   6.478525   6.080462   5.728762
    18  H    5.035290   4.650122   6.060680   5.351325   4.647225
    19  C    3.425547   3.282323   4.340317   4.132116   4.049731
    20  C    3.775219   3.324868   4.477419   4.843012   4.876679
    21  H    3.142397   2.591146   3.674638   4.402603   4.644624
    22  H    4.453725   3.796879   5.198728   5.397720   5.168400
    23  H    4.531558   4.210204   5.111468   5.688574   5.855303
    24  C    2.541702   2.813072   3.462335   3.107932   3.336747
    25  H    3.072196   3.516607   4.014198   3.135588   3.210956
    26  C    1.537319   2.177326   2.147132   2.563352   3.430141
    27  H    2.161207   2.517431   2.414008   3.489205   4.372404
    28  H    2.172425   3.083093   2.499128   2.811013   3.880142
                    6          7          8          9         10
     6  H    0.000000
     7  H    1.751360   0.000000
     8  H    1.784033   1.762960   0.000000
     9  C    2.754917   3.387828   2.985854   0.000000
    10  H    3.806683   4.247987   3.950605   1.089761   0.000000
    11  C    2.854780   4.113217   3.366785   1.494199   2.181926
    12  H    2.221518   3.737702   2.867367   2.174400   3.104268
    13  H    3.741406   4.910367   3.862997   2.128418   2.510620
    14  H    3.400934   4.754691   4.286445   2.128929   2.527217
    15  C    4.873491   3.681795   5.438033   6.241950   6.765066
    16  H    4.462922   3.637215   5.363930   6.022122   6.609625
    17  H    5.938112   4.760543   6.516099   7.175068   7.612240
    18  H    4.905313   3.582835   5.249856   6.573084   7.200691
    19  C    4.515640   3.171120   4.843998   5.276636   5.652464
    20  C    5.567711   3.993692   5.462744   6.043005   6.297521
    21  H    5.485601   3.910797   5.123834   5.572627   5.734229
    22  H    5.866358   4.184521   5.609158   6.680989   7.047271
    23  H    6.499138   5.005668   6.498863   6.799978   6.935497
    24  C    3.739072   2.749698   4.279908   4.099056   4.424481
    25  H    3.284143   2.765349   4.267055   3.942232   4.382101
    26  C    4.033963   3.207807   4.259075   3.361866   3.381104
    27  H    5.068874   4.056344   5.094265   4.256423   4.100005
    28  H    4.277257   3.871333   4.782083   3.181250   2.995821
                   11         12         13         14         15
    11  C    0.000000
    12  H    1.092553   0.000000
    13  H    1.095097   1.766354   0.000000
    14  H    1.094329   1.769488   1.773231   0.000000
    15  C    7.147966   6.926469   8.116939   7.398452   0.000000
    16  H    6.751488   6.473320   7.779079   6.887144   1.095429
    17  H    8.122915   7.951049   9.101571   8.311906   1.094035
    18  H    7.418808   7.073487   8.342352   7.788066   1.095357
    19  C    6.399088   6.363574   7.293848   6.715818   1.504699
    20  C    7.310899   7.340695   8.085228   7.748985   2.538169
    21  H    6.928542   7.051182   7.594967   7.450405   3.457476
    22  H    7.874880   7.779558   8.631296   8.392011   2.656932
    23  H    8.106286   8.212447   8.893299   8.457445   2.981889
    24  C    5.234408   5.321340   6.148743   5.472858   2.479171
    25  H    4.836944   4.845676   5.847563   4.924435   2.664263
    26  C    4.733056   5.092827   5.490036   5.026736   3.916501
    27  H    5.691566   6.110344   6.360282   5.999897   4.230097
    28  H    4.464048   4.979306   5.236440   4.540523   4.563627
                   16         17         18         19         20
    16  H    0.000000
    17  H    1.770119   0.000000
    18  H    1.765674   1.778758   0.000000
    19  C    2.170516   2.147849   2.143191   0.000000
    20  C    3.489961   2.805783   2.803294   1.503773   0.000000
    21  H    4.302137   3.859559   3.661996   2.172887   1.093644
    22  H    3.704543   2.901856   2.495585   2.149248   1.095253
    23  H    3.933568   2.852953   3.428661   2.142092   1.094247
    24  C    2.611535   3.207075   3.178354   1.345580   2.518547
    25  H    2.325445   3.438144   3.401302   2.101880   3.494974
    26  C    4.114722   4.568133   4.527337   2.550030   3.092117
    27  H    4.642713   4.689479   4.852725   2.755002   2.792149
    28  H    4.560134   5.150817   5.300801   3.344145   4.047922
                   21         22         23         24         25
    21  H    0.000000
    22  H    1.754343   0.000000
    23  H    1.775919   1.775286   0.000000
    24  C    2.711343   3.325168   3.099836   0.000000
    25  H    3.782103   4.192667   4.038324   1.090145   0.000000
    26  C    2.737808   4.021045   3.595057   1.504575   2.190387
    27  H    2.280743   3.807478   3.060611   2.148277   3.040901
    28  H    3.769238   5.025003   4.396569   2.123669   2.375388
                   26         27         28
    26  C    0.000000
    27  H    1.096294   0.000000
    28  H    1.098023   1.745165   0.000000
 Stoichiometry    C10H18
 Framework group  C1[X(C10H18)]
 Deg. of freedom    78
 Full point group                 C1      NOp   1
 Largest Abelian subgroup         C1      NOp   1
 Largest concise Abelian subgroup C1      NOp   1
                         Standard orientation:                         
 ---------------------------------------------------------------------
 Center     Atomic      Atomic             Coordinates (Angstroms)
 Number     Number       Type             X           Y           Z
 ---------------------------------------------------------------------
      1          6           0        0.615970   -1.221796    0.508619
      2          1           0        0.080021   -1.110327    1.460070
      3          1           0        1.116964   -2.196860    0.573291
      4          6           0        1.659826   -0.128197    0.383632
      5          6           0        1.311708    1.198542    1.004928
      6          1           0        1.662294    2.037328    0.396360
      7          1           0        0.230368    1.325946    1.111054
      8          1           0        1.748583    1.271945    2.005558
      9          6           0        2.831414   -0.375485   -0.236936
     10          1           0        3.000529   -1.368316   -0.653189
     11          6           0        3.970913    0.572576   -0.424951
     12          1           0        3.798001    1.555209    0.020252
     13          1           0        4.875144    0.155329    0.030581
     14          1           0        4.160889    0.713618   -1.493394
     15          6           0       -3.114622    1.515193   -0.415656
     16          1           0       -2.551591    2.194173   -1.065232
     17          1           0       -4.101539    1.363516   -0.862759
     18          1           0       -3.240544    2.015438    0.550629
     19          6           0       -2.414059    0.197055   -0.226336
     20          6           0       -3.130654   -0.783552    0.660362
     21          1           0       -2.454562   -1.517550    1.107803
     22          1           0       -3.621367   -0.264705    1.490770
     23          1           0       -3.895028   -1.318282    0.088371
     24          6           0       -1.215330   -0.032983   -0.792655
     25          1           0       -0.762621    0.747676   -1.404246
     26          6           0       -0.379333   -1.277052   -0.661710
     27          1           0       -1.021242   -2.158272   -0.546542
     28          1           0        0.160694   -1.431679   -1.605169
 ---------------------------------------------------------------------
 Rotational constants (GHZ):           2.5469636           0.5799994           0.5339947
 Leave Link  202 at Mon Jul 19 20:39:01 2021, MaxMem=   524288000 cpu:               0.2 elap:               0.1
 (Enter /opt/gaussian/g16_legacy/l301.exe)
 Standard basis: 6-31G(d,p) (6D, 7F)
 Ernie: Thresh=  0.10000D-02 Tol=  0.10000D-05 Strict=F.
 There are   240 symmetry adapted cartesian basis functions of A   symmetry.
 There are   240 symmetry adapted basis functions of A   symmetry.
   240 basis functions,   406 primitive gaussians,   240 cartesian basis functions
    39 alpha electrons       39 beta electrons
       nuclear repulsion energy       523.6667374816 Hartrees.
 IExCor= 4336 DFT=T Ex+Corr=M062X ExCW=0 ScaHFX=  0.540000
 ScaDFX=  1.000000  1.000000  1.000000  1.000000 ScalE2=  1.000000  1.000000
 IRadAn=      5 IRanWt=     -1 IRanGd=            0 ICorTp=0 IEmpDi=  4
 NAtoms=   28 NActive=   28 NUniq=   28 SFac= 1.00D+00 NAtFMM=   60 NAOKFM=F Big=F
 Integral buffers will be    131072 words long.
 Raffenetti 2 integral format.
 Two-electron integral symmetry is turned on.
 Leave Link  301 at Mon Jul 19 20:39:02 2021, MaxMem=   524288000 cpu:               0.5 elap:               0.2
 (Enter /opt/gaussian/g16_legacy/l302.exe)
 NPDir=0 NMtPBC=     1 NCelOv=     1 NCel=       1 NClECP=     1 NCelD=      1
         NCelK=      1 NCelE2=     1 NClLst=     1 CellRange=     0.0.
 One-electron integrals computed using PRISM.
 One-electron integral symmetry used in STVInt
 NBasis=   240 RedAO= T EigKep=  2.30D-03  NBF=   240
 NBsUse=   240 1.00D-06 EigRej= -1.00D+00 NBFU=   240
 Precomputing XC quadrature grid using
 IXCGrd= 4 IRadAn=           5 IRanWt=          -1 IRanGd=           0 AccXCQ= 0.00D+00.
 Generated NRdTot=       0 NPtTot=           0 NUsed=           0 NTot=          32
 NSgBfM=   240   240   240   240   240 MxSgAt=    28 MxSgA2=    28.
 Leave Link  302 at Mon Jul 19 20:39:03 2021, MaxMem=   524288000 cpu:               3.5 elap:               1.1
 (Enter /opt/gaussian/g16_legacy/l303.exe)
 DipDrv:  MaxL=1.
 Leave Link  303 at Mon Jul 19 20:39:03 2021, MaxMem=   524288000 cpu:               0.3 elap:               0.1
 (Enter /opt/gaussian/g16_legacy/l401.exe)
 ExpMin= 1.61D-01 ExpMax= 3.05D+03 ExpMxC= 4.57D+02 IAcc=3 IRadAn=         5 AccDes= 0.00D+00
 Harris functional with IExCor= 1009 and IRadAn=       5 diagonalized for initial guess.
 HarFok:  IExCor= 1009 AccDes= 0.00D+00 IRadAn=         5 IDoV= 1 UseB2=F ITyADJ=14
 ICtDFT=  3500011 ScaDFX=  1.000000  1.000000  1.000000  1.000000
 FoFCou: FMM=F IPFlag=           0 FMFlag=      100000 FMFlg1=           0
         NFxFlg=           0 DoJE=T BraDBF=F KetDBF=T FulRan=T
         wScrn=  0.000000 ICntrl=       500 IOpCl=  0 I1Cent=   200000004 NGrid=           0
         NMat0=    1 NMatS0=      1 NMatT0=    0 NMatD0=    1 NMtDS0=    0 NMtDT0=    0
 Petite list used in FoFCou.
 Harris En= -391.653791008008    
 JPrj=0 DoOrth=F DoCkMO=F.
 Leave Link  401 at Mon Jul 19 20:39:09 2021, MaxMem=   524288000 cpu:              19.4 elap:               5.0
 (Enter /opt/gaussian/g16_legacy/l502.exe)
 Keep R1 ints in memory in canonical form, NReq=425198025.
 FoFCou: FMM=F IPFlag=           0 FMFlag=           0 FMFlg1=           0
         NFxFlg=           0 DoJE=F BraDBF=F KetDBF=F FulRan=T
         wScrn=  0.000000 ICntrl=       600 IOpCl=  0 I1Cent=           0 NGrid=           0
         NMat0=    1 NMatS0=  28920 NMatT0=    0 NMatD0=    1 NMtDS0=    0 NMtDT0=    0
 Symmetry not used in FoFCou.
 Two-electron integral symmetry not used.
 Closed shell SCF:
 Using DIIS extrapolation, IDIIS=  1040.
 NGot=   524288000 LenX=   105970886 LenY=   105912845
 Requested convergence on RMS density matrix=1.00D-08 within 128 cycles.
 Requested convergence on MAX density matrix=1.00D-06.
 Requested convergence on             energy=1.00D-06.
 No special actions if energy rises.
 Integral accuracy reduced to 1.0D-05 until final iterations.

 Cycle   1  Pass 0  IDiag  1:
 E= -391.294525178626    
 DIIS: error= 2.78D-02 at cycle   1 NSaved=   1.
 NSaved= 1 IEnMin= 1 EnMin= -391.294525178626     IErMin= 1 ErrMin= 2.78D-02
 ErrMax= 2.78D-02  0.00D+00 EMaxC= 1.00D-01 BMatC= 3.72D-01 BMatP= 3.72D-01
 IDIUse=3 WtCom= 7.22D-01 WtEn= 2.78D-01
 Coeff-Com:  0.100D+01
 Coeff-En:   0.100D+01
 Coeff:      0.100D+01
 Gap=     0.342 Goal=   None    Shift=    0.000
 GapD=    0.342 DampG=1.000 DampE=0.500 DampFc=0.5000 IDamp=-1.
 Damping current iteration by 5.00D-01
 RMSDP=4.43D-03 MaxDP=1.14D-01              OVMax= 1.41D-01

 Cycle   2  Pass 0  IDiag  1:
 E= -391.503603180918     Delta-E=       -0.209078002292 Rises=F Damp=T
 DIIS: error= 1.10D-02 at cycle   2 NSaved=   2.
 NSaved= 2 IEnMin= 2 EnMin= -391.503603180918     IErMin= 2 ErrMin= 1.10D-02
 ErrMax= 1.10D-02  0.00D+00 EMaxC= 1.00D-01 BMatC= 2.13D-02 BMatP= 3.72D-01
 IDIUse=3 WtCom= 8.90D-01 WtEn= 1.10D-01
 Coeff-Com: -0.146D+00 0.115D+01
 Coeff-En:   0.000D+00 0.100D+01
 Coeff:     -0.130D+00 0.113D+01
 Gap=     0.350 Goal=   None    Shift=    0.000
 RMSDP=8.93D-04 MaxDP=2.60D-02 DE=-2.09D-01 OVMax= 6.52D-02

 Cycle   3  Pass 0  IDiag  1:
 E= -391.684796109976     Delta-E=       -0.181192929058 Rises=F Damp=F
 DIIS: error= 1.72D-03 at cycle   3 NSaved=   3.
 NSaved= 3 IEnMin= 3 EnMin= -391.684796109976     IErMin= 3 ErrMin= 1.72D-03
 ErrMax= 1.72D-03  0.00D+00 EMaxC= 1.00D-01 BMatC= 1.22D-03 BMatP= 2.13D-02
 IDIUse=3 WtCom= 9.83D-01 WtEn= 1.72D-02
 Coeff-Com: -0.345D-01 0.176D+00 0.859D+00
 Coeff-En:   0.000D+00 0.000D+00 0.100D+01
 Coeff:     -0.339D-01 0.172D+00 0.861D+00
 Gap=     0.334 Goal=   None    Shift=    0.000
 RMSDP=2.74D-04 MaxDP=7.14D-03 DE=-1.81D-01 OVMax= 1.76D-02

 Cycle   4  Pass 0  IDiag  1:
 E= -391.685221685139     Delta-E=       -0.000425575163 Rises=F Damp=F
 DIIS: error= 1.12D-03 at cycle   4 NSaved=   4.
 NSaved= 4 IEnMin= 4 EnMin= -391.685221685139     IErMin= 4 ErrMin= 1.12D-03
 ErrMax= 1.12D-03  0.00D+00 EMaxC= 1.00D-01 BMatC= 7.86D-04 BMatP= 1.22D-03
 IDIUse=3 WtCom= 9.89D-01 WtEn= 1.12D-02
 Coeff-Com: -0.996D-02 0.413D-01 0.454D+00 0.514D+00
 Coeff-En:   0.000D+00 0.000D+00 0.389D+00 0.611D+00
 Coeff:     -0.985D-02 0.408D-01 0.454D+00 0.515D+00
 Gap=     0.333 Goal=   None    Shift=    0.000
 RMSDP=1.30D-04 MaxDP=4.77D-03 DE=-4.26D-04 OVMax= 1.13D-02

 Cycle   5  Pass 0  IDiag  1:
 E= -391.685977168659     Delta-E=       -0.000755483520 Rises=F Damp=F
 DIIS: error= 3.00D-04 at cycle   5 NSaved=   5.
 NSaved= 5 IEnMin= 5 EnMin= -391.685977168659     IErMin= 5 ErrMin= 3.00D-04
 ErrMax= 3.00D-04  0.00D+00 EMaxC= 1.00D-01 BMatC= 3.79D-05 BMatP= 7.86D-04
 IDIUse=3 WtCom= 9.97D-01 WtEn= 3.00D-03
 Coeff-Com:  0.135D-04-0.278D-03 0.110D+00 0.225D+00 0.665D+00
 Coeff-En:   0.000D+00 0.000D+00 0.000D+00 0.000D+00 0.100D+01
 Coeff:      0.135D-04-0.277D-03 0.110D+00 0.225D+00 0.666D+00
 Gap=     0.334 Goal=   None    Shift=    0.000
 RMSDP=2.74D-05 MaxDP=9.71D-04 DE=-7.55D-04 OVMax= 2.18D-03

 Cycle   6  Pass 0  IDiag  1:
 E= -391.686014396469     Delta-E=       -0.000037227811 Rises=F Damp=F
 DIIS: error= 3.79D-05 at cycle   6 NSaved=   6.
 NSaved= 6 IEnMin= 6 EnMin= -391.686014396469     IErMin= 6 ErrMin= 3.79D-05
 ErrMax= 3.79D-05  0.00D+00 EMaxC= 1.00D-01 BMatC= 9.23D-07 BMatP= 3.79D-05
 IDIUse=1 WtCom= 1.00D+00 WtEn= 0.00D+00
 Coeff-Com:  0.836D-03-0.291D-02 0.316D-02 0.306D-01 0.171D+00 0.798D+00
 Coeff:      0.836D-03-0.291D-02 0.316D-02 0.306D-01 0.171D+00 0.798D+00
 Gap=     0.334 Goal=   None    Shift=    0.000
 RMSDP=5.25D-06 MaxDP=1.90D-04 DE=-3.72D-05 OVMax= 2.64D-04

 Initial convergence to 1.0D-05 achieved.  Increase integral accuracy.
 Cycle   7  Pass 1  IDiag  1:
 E= -391.685983256659     Delta-E=        0.000031139810 Rises=F Damp=F
 DIIS: error= 1.78D-05 at cycle   1 NSaved=   1.
 NSaved= 1 IEnMin= 1 EnMin= -391.685983256659     IErMin= 1 ErrMin= 1.78D-05
 ErrMax= 1.78D-05  0.00D+00 EMaxC= 1.00D-01 BMatC= 2.02D-07 BMatP= 2.02D-07
 IDIUse=1 WtCom= 1.00D+00 WtEn= 0.00D+00
 Coeff-Com:  0.100D+01
 Coeff:      0.100D+01
 Gap=     0.334 Goal=   None    Shift=    0.000
 RMSDP=5.25D-06 MaxDP=1.90D-04 DE= 3.11D-05 OVMax= 1.48D-04

 Cycle   8  Pass 1  IDiag  1:
 E= -391.685983383841     Delta-E=       -0.000000127181 Rises=F Damp=F
 DIIS: error= 1.09D-05 at cycle   2 NSaved=   2.
 NSaved= 2 IEnMin= 2 EnMin= -391.685983383841     IErMin= 2 ErrMin= 1.09D-05
 ErrMax= 1.09D-05  0.00D+00 EMaxC= 1.00D-01 BMatC= 9.28D-08 BMatP= 2.02D-07
 IDIUse=1 WtCom= 1.00D+00 WtEn= 0.00D+00
 Coeff-Com:  0.385D+00 0.615D+00
 Coeff:      0.385D+00 0.615D+00
 Gap=     0.334 Goal=   None    Shift=    0.000
 RMSDP=1.26D-06 MaxDP=6.73D-05 DE=-1.27D-07 OVMax= 5.73D-05

 Cycle   9  Pass 1  IDiag  1:
 E= -391.685983467789     Delta-E=       -0.000000083949 Rises=F Damp=F
 DIIS: error= 2.76D-06 at cycle   3 NSaved=   3.
 NSaved= 3 IEnMin= 3 EnMin= -391.685983467789     IErMin= 3 ErrMin= 2.76D-06
 ErrMax= 2.76D-06  0.00D+00 EMaxC= 1.00D-01 BMatC= 4.27D-09 BMatP= 9.28D-08
 IDIUse=1 WtCom= 1.00D+00 WtEn= 0.00D+00
 Coeff-Com: -0.209D-01 0.148D+00 0.873D+00
 Coeff:     -0.209D-01 0.148D+00 0.873D+00
 Gap=     0.334 Goal=   None    Shift=    0.000
 RMSDP=4.12D-07 MaxDP=1.83D-05 DE=-8.39D-08 OVMax= 3.42D-05

 Cycle  10  Pass 1  IDiag  1:
 E= -391.685983471516     Delta-E=       -0.000000003727 Rises=F Damp=F
 DIIS: error= 1.72D-06 at cycle   4 NSaved=   4.
 NSaved= 4 IEnMin= 4 EnMin= -391.685983471516     IErMin= 4 ErrMin= 1.72D-06
 ErrMax= 1.72D-06  0.00D+00 EMaxC= 1.00D-01 BMatC= 1.07D-09 BMatP= 4.27D-09
 IDIUse=1 WtCom= 1.00D+00 WtEn= 0.00D+00
 Coeff-Com: -0.270D-01 0.561D-01 0.489D+00 0.482D+00
 Coeff:     -0.270D-01 0.561D-01 0.489D+00 0.482D+00
 Gap=     0.334 Goal=   None    Shift=    0.000
 RMSDP=1.39D-07 MaxDP=5.50D-06 DE=-3.73D-09 OVMax= 1.06D-05

 Cycle  11  Pass 1  IDiag  1:
 E= -391.685983472567     Delta-E=       -0.000000001051 Rises=F Damp=F
 DIIS: error= 1.62D-07 at cycle   5 NSaved=   5.
 NSaved= 5 IEnMin= 5 EnMin= -391.685983472567     IErMin= 5 ErrMin= 1.62D-07
 ErrMax= 1.62D-07  0.00D+00 EMaxC= 1.00D-01 BMatC= 1.71D-11 BMatP= 1.07D-09
 IDIUse=1 WtCom= 1.00D+00 WtEn= 0.00D+00
 Coeff-Com: -0.327D-02-0.587D-02 0.120D-01 0.848D-01 0.912D+00
 Coeff:     -0.327D-02-0.587D-02 0.120D-01 0.848D-01 0.912D+00
 Gap=     0.334 Goal=   None    Shift=    0.000
 RMSDP=3.63D-08 MaxDP=1.04D-06 DE=-1.05D-09 OVMax= 2.59D-06

 Cycle  12  Pass 1  IDiag  1:
 E= -391.685983472599     Delta-E=       -0.000000000032 Rises=F Damp=F
 DIIS: error= 7.81D-08 at cycle   6 NSaved=   6.
 NSaved= 6 IEnMin= 6 EnMin= -391.685983472599     IErMin= 6 ErrMin= 7.81D-08
 ErrMax= 7.81D-08  0.00D+00 EMaxC= 1.00D-01 BMatC= 4.52D-12 BMatP= 1.71D-11
 IDIUse=1 WtCom= 1.00D+00 WtEn= 0.00D+00
 Coeff-Com:  0.970D-03-0.734D-02-0.350D-01-0.128D-01 0.383D+00 0.671D+00
 Coeff:      0.970D-03-0.734D-02-0.350D-01-0.128D-01 0.383D+00 0.671D+00
 Gap=     0.334 Goal=   None    Shift=    0.000
 RMSDP=1.29D-08 MaxDP=5.10D-07 DE=-3.19D-11 OVMax= 1.05D-06

 Cycle  13  Pass 1  IDiag  1:
 E= -391.685983472602     Delta-E=       -0.000000000003 Rises=F Damp=F
 DIIS: error= 3.18D-08 at cycle   7 NSaved=   7.
 NSaved= 7 IEnMin= 7 EnMin= -391.685983472602     IErMin= 7 ErrMin= 3.18D-08
 ErrMax= 3.18D-08  0.00D+00 EMaxC= 1.00D-01 BMatC= 4.68D-13 BMatP= 4.52D-12
 IDIUse=1 WtCom= 1.00D+00 WtEn= 0.00D+00
 Coeff-Com:  0.767D-03-0.326D-02-0.186D-01-0.166D-01 0.104D+00 0.304D+00
 Coeff-Com:  0.630D+00
 Coeff:      0.767D-03-0.326D-02-0.186D-01-0.166D-01 0.104D+00 0.304D+00
 Coeff:      0.630D+00
 Gap=     0.334 Goal=   None    Shift=    0.000
 RMSDP=3.51D-09 MaxDP=1.28D-07 DE=-3.07D-12 OVMax= 1.85D-07

 SCF Done:  E(RM062X) =  -391.685983473     A.U. after   13 cycles
            NFock= 13  Conv=0.35D-08     -V/T= 2.0092
 KE= 3.880985283077D+02 PE=-1.952481168203D+03 EE= 6.490299189410D+02
 Leave Link  502 at Mon Jul 19 20:40:58 2021, MaxMem=   524288000 cpu:             408.2 elap:             109.1
 (Enter /opt/gaussian/g16_legacy/l601.exe)
 Copying SCF densities to generalized density rwf, IOpCl= 0 IROHF=0.

 **********************************************************************

            Population analysis using the SCF density.

 **********************************************************************

 Orbital symmetries:
       Occupied  (A) (A) (A) (A) (A) (A) (A) (A) (A) (A) (A) (A)
                 (A) (A) (A) (A) (A) (A) (A) (A) (A) (A) (A) (A)
                 (A) (A) (A) (A) (A) (A) (A) (A) (A) (A) (A) (A)
                 (A) (A) (A)
       Virtual   (A) (A) (A) (A) (A) (A) (A) (A) (A) (A) (A) (A)
                 (A) (A) (A) (A) (A) (A) (A) (A) (A) (A) (A) (A)
                 (A) (A) (A) (A) (A) (A) (A) (A) (A) (A) (A) (A)
                 (A) (A) (A) (A) (A) (A) (A) (A) (A) (A) (A) (A)
                 (A) (A) (A) (A) (A) (A) (A) (A) (A) (A) (A) (A)
                 (A) (A) (A) (A) (A) (A) (A) (A) (A) (A) (A) (A)
                 (A) (A) (A) (A) (A) (A) (A) (A) (A) (A) (A) (A)
                 (A) (A) (A) (A) (A) (A) (A) (A) (A) (A) (A) (A)
                 (A) (A) (A) (A) (A) (A) (A) (A) (A) (A) (A) (A)
                 (A) (A) (A) (A) (A) (A) (A) (A) (A) (A) (A) (A)
                 (A) (A) (A) (A) (A) (A) (A) (A) (A) (A) (A) (A)
                 (A) (A) (A) (A) (A) (A) (A) (A) (A) (A) (A) (A)
                 (A) (A) (A) (A) (A) (A) (A) (A) (A) (A) (A) (A)
                 (A) (A) (A) (A) (A) (A) (A) (A) (A) (A) (A) (A)
                 (A) (A) (A) (A) (A) (A) (A) (A) (A) (A) (A) (A)
                 (A) (A) (A) (A) (A) (A) (A) (A) (A) (A) (A) (A)
                 (A) (A) (A) (A) (A) (A) (A) (A) (A)
 The electronic state is 1-A.
 Alpha  occ. eigenvalues --  -10.54544 -10.54015 -10.53731 -10.53695 -10.53572
 Alpha  occ. eigenvalues --  -10.53334 -10.53143 -10.53038 -10.52980 -10.52874
 Alpha  occ. eigenvalues --   -0.91921  -0.89744  -0.84716  -0.80676  -0.77886
 Alpha  occ. eigenvalues --   -0.76588  -0.72058  -0.67690  -0.59024  -0.57165
 Alpha  occ. eigenvalues --   -0.53503  -0.52357  -0.50302  -0.49453  -0.48636
 Alpha  occ. eigenvalues --   -0.48007  -0.46265  -0.44934  -0.44737  -0.43941
 Alpha  occ. eigenvalues --   -0.43626  -0.42195  -0.41842  -0.40684  -0.38827
 Alpha  occ. eigenvalues --   -0.37470  -0.36053  -0.28686  -0.26622
 Alpha virt. eigenvalues --    0.06746   0.07306   0.13037   0.15501   0.16471
 Alpha virt. eigenvalues --    0.16942   0.17406   0.19082   0.19813   0.20576
 Alpha virt. eigenvalues --    0.21068   0.21960   0.22154   0.22924   0.23365
 Alpha virt. eigenvalues --    0.23647   0.24362   0.25401   0.26242   0.27057
 Alpha virt. eigenvalues --    0.27793   0.29207   0.30671   0.30721   0.34086
 Alpha virt. eigenvalues --    0.38139   0.39595   0.46249   0.47006   0.54007
 Alpha virt. eigenvalues --    0.55133   0.56289   0.57670   0.58128   0.60341
 Alpha virt. eigenvalues --    0.61074   0.62681   0.63259   0.64624   0.65432
 Alpha virt. eigenvalues --    0.66193   0.67760   0.70622   0.71540   0.73044
 Alpha virt. eigenvalues --    0.73667   0.76342   0.77585   0.79648   0.79993
 Alpha virt. eigenvalues --    0.81165   0.82769   0.83975   0.84700   0.86158
 Alpha virt. eigenvalues --    0.87701   0.88787   0.90780   0.91384   0.93409
 Alpha virt. eigenvalues --    0.94171   0.94644   0.95041   0.95272   0.95366
 Alpha virt. eigenvalues --    0.96561   0.97707   0.98552   0.98602   1.00281
 Alpha virt. eigenvalues --    1.01342   1.01980   1.03838   1.05399   1.05987
 Alpha virt. eigenvalues --    1.08428   1.11818   1.20505   1.20941   1.26026
 Alpha virt. eigenvalues --    1.27155   1.32892   1.34071   1.36194   1.37917
 Alpha virt. eigenvalues --    1.40047   1.46171   1.46840   1.47798   1.50409
 Alpha virt. eigenvalues --    1.54423   1.57493   1.68589   1.70407   1.72408
 Alpha virt. eigenvalues --    1.75952   1.77302   1.79637   1.80586   1.82961
 Alpha virt. eigenvalues --    1.85385   1.86611   1.86840   1.87798   1.88716
 Alpha virt. eigenvalues --    1.93054   1.93246   1.94654   2.01952   2.02256
 Alpha virt. eigenvalues --    2.03583   2.05366   2.08323   2.09617   2.10136
 Alpha virt. eigenvalues --    2.10513   2.10744   2.12276   2.13525   2.13853
 Alpha virt. eigenvalues --    2.14934   2.15353   2.16081   2.17629   2.18677
 Alpha virt. eigenvalues --    2.19983   2.21118   2.22318   2.24944   2.26105
 Alpha virt. eigenvalues --    2.28039   2.30602   2.32178   2.33906   2.35810
 Alpha virt. eigenvalues --    2.37445   2.40257   2.41754   2.43617   2.44741
 Alpha virt. eigenvalues --    2.46241   2.47530   2.48873   2.53424   2.55689
 Alpha virt. eigenvalues --    2.57346   2.58164   2.59353   2.60708   2.63062
 Alpha virt. eigenvalues --    2.65541   2.67813   2.68908   2.71588   2.72139
 Alpha virt. eigenvalues --    2.73887   2.75525   2.78533   2.78961   2.79803
 Alpha virt. eigenvalues --    2.84352   2.85619   2.87116   2.88510   2.88932
 Alpha virt. eigenvalues --    2.89948   2.91854   2.92483   2.94815   3.01992
 Alpha virt. eigenvalues --    3.04187   3.09278   3.09664   3.17796   3.18699
 Alpha virt. eigenvalues --    3.22611   3.24500   3.30322   3.31248   3.40178
 Alpha virt. eigenvalues --    3.41479   3.42312   3.43115   3.43538   3.43796
 Alpha virt. eigenvalues --    3.44680   3.46837   3.48394   3.50217   3.52986
 Alpha virt. eigenvalues --    3.55956   4.18800   4.21876   4.33919   4.44923
 Alpha virt. eigenvalues --    4.51778   4.51902   4.52254   4.67735   4.71606
 Alpha virt. eigenvalues --    4.75588
          Condensed to atoms (all electrons):
               1          2          3          4          5          6
     1  C    5.012354   0.384123   0.381480   0.368421  -0.063243   0.004342
     2  H    0.384123   0.616806  -0.034796  -0.038490  -0.004919   0.000101
     3  H    0.381480  -0.034796   0.610697  -0.037836   0.005045  -0.000154
     4  C    0.368421  -0.038490  -0.037836   4.782382   0.368342  -0.030418
     5  C   -0.063243  -0.004919   0.005045   0.368342   5.022469   0.383797
     6  H    0.004342   0.000101  -0.000154  -0.030418   0.383797   0.576483
     7  H   -0.005465   0.001741   0.000249  -0.033679   0.383442  -0.028880
     8  H    0.000060   0.001286  -0.000177  -0.031941   0.379673  -0.026890
     9  C   -0.040490   0.003165  -0.008198   0.706085  -0.061385  -0.007406
    10  H   -0.011253   0.000190   0.004784  -0.036662   0.005939  -0.000046
    11  C    0.005316  -0.000187   0.000104  -0.043058  -0.012399   0.000180
    12  H    0.000138   0.000000   0.000003  -0.009161   0.003601   0.002015
    13  H   -0.000167   0.000010   0.000011  -0.000388   0.000320  -0.000189
    14  H   -0.000103  -0.000001  -0.000016   0.000630   0.000242   0.000368
    15  C   -0.000120  -0.000072   0.000003   0.000005   0.000006  -0.000003
    16  H   -0.000002  -0.000001  -0.000000  -0.000001   0.000005   0.000002
    17  H   -0.000006   0.000001   0.000000  -0.000000  -0.000001   0.000000
    18  H    0.000029  -0.000000  -0.000000   0.000001   0.000053  -0.000002
    19  C   -0.004112   0.002780   0.000081  -0.000367  -0.001488   0.000016
    20  C   -0.000609  -0.000055  -0.000029   0.000083   0.000018  -0.000000
    21  H    0.000541   0.001638  -0.000043  -0.000002   0.000016  -0.000000
    22  H    0.000080  -0.000069  -0.000003  -0.000000   0.000011  -0.000000
    23  H   -0.000081   0.000022   0.000005  -0.000001  -0.000001   0.000000
    24  C   -0.054815  -0.005779   0.006031  -0.005480  -0.001858  -0.000020
    25  H   -0.000708   0.000021  -0.000163   0.003892  -0.000694   0.000204
    26  C    0.353045  -0.039796  -0.035064  -0.048276  -0.001806  -0.000020
    27  H   -0.035914  -0.003507  -0.004453   0.005812  -0.000184   0.000005
    28  H   -0.038954   0.005520  -0.003151  -0.004442  -0.000010   0.000010
               7          8          9         10         11         12
     1  C   -0.005465   0.000060  -0.040490  -0.011253   0.005316   0.000138
     2  H    0.001741   0.001286   0.003165   0.000190  -0.000187   0.000000
     3  H    0.000249  -0.000177  -0.008198   0.004784   0.000104   0.000003
     4  C   -0.033679  -0.031941   0.706085  -0.036662  -0.043058  -0.009161
     5  C    0.383442   0.379673  -0.061385   0.005939  -0.012399   0.003601
     6  H   -0.028880  -0.026890  -0.007406  -0.000046   0.000180   0.002015
     7  H    0.571193  -0.028746   0.003743  -0.000154   0.000281  -0.000096
     8  H   -0.028746   0.573423  -0.004290  -0.000134   0.000912   0.000012
     9  C    0.003743  -0.004290   4.908187   0.379794   0.363847  -0.033569
    10  H   -0.000154  -0.000134   0.379794   0.615191  -0.054813   0.004540
    11  C    0.000281   0.000912   0.363847  -0.054813   4.971522   0.390666
    12  H   -0.000096   0.000012  -0.033569   0.004540   0.390666   0.577861
    13  H   -0.000011   0.000230  -0.034848  -0.001826   0.386650  -0.028672
    14  H    0.000004  -0.000088  -0.035710  -0.001673   0.384588  -0.028830
    15  C    0.000167  -0.000001   0.000000  -0.000000   0.000000  -0.000000
    16  H    0.000038   0.000000  -0.000000   0.000000   0.000000   0.000000
    17  H    0.000011   0.000000   0.000000  -0.000000   0.000000  -0.000000
    18  H   -0.000067  -0.000002  -0.000000  -0.000000  -0.000000  -0.000000
    19  C    0.002961   0.000049   0.000012   0.000001  -0.000000  -0.000000
    20  C   -0.000041  -0.000001  -0.000001   0.000000   0.000000   0.000000
    21  H   -0.000014  -0.000001   0.000001   0.000000  -0.000000   0.000000
    22  H   -0.000042  -0.000001   0.000000  -0.000000   0.000000   0.000000
    23  H    0.000007   0.000000   0.000000   0.000000  -0.000000  -0.000000
    24  C    0.007648   0.000163  -0.000346   0.000104  -0.000000   0.000001
    25  H   -0.000533   0.000048   0.000339  -0.000002  -0.000006  -0.000000
    26  C   -0.001053   0.000005  -0.006240   0.000204  -0.000051  -0.000007
    27  H   -0.000061   0.000009   0.000140  -0.000080   0.000003   0.000000
    28  H    0.000089   0.000005   0.003238   0.000854  -0.000132   0.000001
              13         14         15         16         17         18
     1  C   -0.000167  -0.000103  -0.000120  -0.000002  -0.000006   0.000029
     2  H    0.000010  -0.000001  -0.000072  -0.000001   0.000001  -0.000000
     3  H    0.000011  -0.000016   0.000003  -0.000000   0.000000  -0.000000
     4  C   -0.000388   0.000630   0.000005  -0.000001  -0.000000   0.000001
     5  C    0.000320   0.000242   0.000006   0.000005  -0.000001   0.000053
     6  H   -0.000189   0.000368  -0.000003   0.000002   0.000000  -0.000002
     7  H   -0.000011   0.000004   0.000167   0.000038   0.000011  -0.000067
     8  H    0.000230  -0.000088  -0.000001   0.000000   0.000000  -0.000002
     9  C   -0.034848  -0.035710   0.000000  -0.000000   0.000000  -0.000000
    10  H   -0.001826  -0.001673  -0.000000   0.000000  -0.000000  -0.000000
    11  C    0.386650   0.384588   0.000000   0.000000   0.000000  -0.000000
    12  H   -0.028672  -0.028830  -0.000000   0.000000  -0.000000  -0.000000
    13  H    0.578518  -0.031946   0.000000  -0.000000   0.000000  -0.000000
    14  H   -0.031946   0.581264  -0.000000   0.000000  -0.000000   0.000000
    15  C    0.000000  -0.000000   4.998505   0.385795   0.383259   0.380067
    16  H   -0.000000   0.000000   0.385795   0.572563  -0.027039  -0.027775
    17  H    0.000000  -0.000000   0.383259  -0.027039   0.588718  -0.034042
    18  H   -0.000000   0.000000   0.380067  -0.027775  -0.034042   0.590687
    19  C    0.000000  -0.000000   0.371033  -0.033832  -0.039008  -0.034617
    20  C   -0.000000   0.000000  -0.076311   0.004812   0.000731  -0.003586
    21  H    0.000000   0.000000   0.004544  -0.000170  -0.000034  -0.000008
    22  H    0.000000  -0.000000  -0.004825   0.000105  -0.000815   0.004528
    23  H    0.000000  -0.000000  -0.000194  -0.000132   0.002320  -0.000378
    24  C    0.000000   0.000000  -0.039336  -0.005075  -0.001311  -0.000583
    25  H    0.000000  -0.000003  -0.013162   0.005940   0.000224   0.000261
    26  C   -0.000007   0.000028   0.005728   0.000126  -0.000207  -0.000123
    27  H    0.000000  -0.000001   0.000075   0.000005   0.000014  -0.000010
    28  H    0.000003  -0.000003  -0.000164  -0.000012   0.000009  -0.000001
              19         20         21         22         23         24
     1  C   -0.004112  -0.000609   0.000541   0.000080  -0.000081  -0.054815
     2  H    0.002780  -0.000055   0.001638  -0.000069   0.000022  -0.005779
     3  H    0.000081  -0.000029  -0.000043  -0.000003   0.000005   0.006031
     4  C   -0.000367   0.000083  -0.000002  -0.000000  -0.000001  -0.005480
     5  C   -0.001488   0.000018   0.000016   0.000011  -0.000001  -0.001858
     6  H    0.000016  -0.000000  -0.000000  -0.000000   0.000000  -0.000020
     7  H    0.002961  -0.000041  -0.000014  -0.000042   0.000007   0.007648
     8  H    0.000049  -0.000001  -0.000001  -0.000001   0.000000   0.000163
     9  C    0.000012  -0.000001   0.000001   0.000000   0.000000  -0.000346
    10  H    0.000001   0.000000   0.000000  -0.000000   0.000000   0.000104
    11  C   -0.000000   0.000000  -0.000000   0.000000  -0.000000  -0.000000
    12  H   -0.000000   0.000000   0.000000   0.000000  -0.000000   0.000001
    13  H    0.000000  -0.000000   0.000000   0.000000   0.000000   0.000000
    14  H   -0.000000   0.000000   0.000000  -0.000000  -0.000000   0.000000
    15  C    0.371033  -0.076311   0.004544  -0.004825  -0.000194  -0.039336
    16  H   -0.033832   0.004812  -0.000170   0.000105  -0.000132  -0.005075
    17  H   -0.039008   0.000731  -0.000034  -0.000815   0.002320  -0.001311
    18  H   -0.034617  -0.003586  -0.000008   0.004528  -0.000378  -0.000583
    19  C    4.754556   0.372736  -0.026931  -0.035683  -0.034754   0.707660
    20  C    0.372736   5.009199   0.383998   0.386626   0.382943  -0.056866
    21  H   -0.026931   0.383998   0.573878  -0.029842  -0.026678  -0.009548
    22  H   -0.035683   0.386626  -0.029842   0.582717  -0.030796   0.002940
    23  H   -0.034754   0.382943  -0.026678  -0.030796   0.570538  -0.002032
    24  C    0.707660  -0.056866  -0.009548   0.002940  -0.002032   4.925725
    25  H   -0.035084   0.006009   0.000022  -0.000149  -0.000148   0.378199
    26  C   -0.044682  -0.010596   0.002317   0.000263   0.000104   0.364449
    27  H   -0.010022   0.002293   0.000018  -0.000109   0.000640  -0.038766
    28  H    0.004025   0.000174  -0.000020  -0.000009   0.000037  -0.032053
              25         26         27         28
     1  C   -0.000708   0.353045  -0.035914  -0.038954
     2  H    0.000021  -0.039796  -0.003507   0.005520
     3  H   -0.000163  -0.035064  -0.004453  -0.003151
     4  C    0.003892  -0.048276   0.005812  -0.004442
     5  C   -0.000694  -0.001806  -0.000184  -0.000010
     6  H    0.000204  -0.000020   0.000005   0.000010
     7  H   -0.000533  -0.001053  -0.000061   0.000089
     8  H    0.000048   0.000005   0.000009   0.000005
     9  C    0.000339  -0.006240   0.000140   0.003238
    10  H   -0.000002   0.000204  -0.000080   0.000854
    11  C   -0.000006  -0.000051   0.000003  -0.000132
    12  H   -0.000000  -0.000007   0.000000   0.000001
    13  H    0.000000  -0.000007   0.000000   0.000003
    14  H   -0.000003   0.000028  -0.000001  -0.000003
    15  C   -0.013162   0.005728   0.000075  -0.000164
    16  H    0.005940   0.000126   0.000005  -0.000012
    17  H    0.000224  -0.000207   0.000014   0.000009
    18  H    0.000261  -0.000123  -0.000010  -0.000001
    19  C   -0.035084  -0.044682  -0.010022   0.004025
    20  C    0.006009  -0.010596   0.002293   0.000174
    21  H    0.000022   0.002317   0.000018  -0.000020
    22  H   -0.000149   0.000263  -0.000109  -0.000009
    23  H   -0.000148   0.000104   0.000640   0.000037
    24  C    0.378199   0.364449  -0.038766  -0.032053
    25  H    0.608234  -0.051372   0.004967  -0.006015
    26  C   -0.051372   4.985603   0.383324   0.384716
    27  H    0.004967   0.383324   0.617367  -0.034117
    28  H   -0.006015   0.384716  -0.034117   0.600776
 Mulliken charges:
               1
     1  C   -0.253889
     2  H    0.110265
     3  H    0.115590
     4  C    0.084548
     5  C   -0.404991
     6  H    0.126506
     7  H    0.127267
     8  H    0.136397
     9  C   -0.136066
    10  H    0.095041
    11  C   -0.393423
    12  H    0.121498
    13  H    0.132312
    14  H    0.131247
    15  C   -0.395000
    16  H    0.124647
    17  H    0.127176
    18  H    0.125569
    19  C    0.084671
    20  C   -0.401529
    21  H    0.126316
    22  H    0.125075
    23  H    0.138579
    24  C   -0.139051
    25  H    0.099679
    26  C   -0.240614
    27  H    0.112551
    28  H    0.119626
 Sum of Mulliken charges =  -0.00000
 Mulliken charges with hydrogens summed into heavy atoms:
               1
     1  C   -0.028033
     4  C    0.084548
     5  C   -0.014821
     9  C   -0.041025
    11  C   -0.008366
    15  C   -0.017608
    19  C    0.084671
    20  C   -0.011559
    24  C   -0.039371
    26  C   -0.008436
 Electronic spatial extent (au):  <R**2>=           2301.5960
 Charge=             -0.0000 electrons
 Dipole moment (field-independent basis, Debye):
    X=             -0.3246    Y=              0.0834    Z=              0.2163  Tot=              0.3989
 Quadrupole moment (field-independent basis, Debye-Ang):
   XX=            -62.2856   YY=            -63.4824   ZZ=            -65.1726
   XY=              0.2389   XZ=             -1.7515   YZ=              0.0866
 Traceless Quadrupole moment (field-independent basis, Debye-Ang):
   XX=              1.3613   YY=              0.1644   ZZ=             -1.5257
   XY=              0.2389   XZ=             -1.7515   YZ=              0.0866
 Octapole moment (field-independent basis, Debye-Ang**2):
  XXX=             -3.5734  YYY=             -0.8068  ZZZ=              1.7441  XYY=              0.6280
  XXY=              0.4699  XXZ=             -0.7050  XZZ=              0.8400  YZZ=              1.7835
  YYZ=             -1.0779  XYZ=              1.5595
 Hexadecapole moment (field-independent basis, Debye-Ang**3):
 XXXX=          -2363.6702 YYYY=           -498.0793 ZZZZ=           -265.1522 XXXY=             -1.4904
 XXXZ=             -7.9183 YYYX=              2.0122 YYYZ=             -1.3379 ZZZX=             -7.9082
 ZZZY=              0.7500 XXYY=           -484.8473 XXZZ=           -449.4854 YYZZ=           -127.6444
 XXYZ=              6.3613 YYXZ=             -1.1041 ZZXY=             -1.0268
 N-N= 5.236667374816D+02 E-N=-1.952481164756D+03  KE= 3.880985283077D+02
 No NMR shielding tensors so no spin-rotation constants.
 Leave Link  601 at Mon Jul 19 20:40:59 2021, MaxMem=   524288000 cpu:               2.5 elap:               1.0
 (Enter /opt/gaussian/g16_legacy/l701.exe)
 ... and contract with generalized density number  0.
 Compute integral first derivatives.
 Leave Link  701 at Mon Jul 19 20:40:59 2021, MaxMem=   524288000 cpu:               0.9 elap:               0.2
 (Enter /opt/gaussian/g16_legacy/l702.exe)
 L702 exits ... SP integral derivatives will be done elsewhere.
 Leave Link  702 at Mon Jul 19 20:40:59 2021, MaxMem=   524288000 cpu:               0.1 elap:               0.0
 (Enter /opt/gaussian/g16_legacy/l703.exe)
 Integral derivatives from FoFJK, PRISM(SPDF).
 Compute integral first derivatives, UseDBF=F ICtDFT=           0.
 Calling FoFJK, ICntrl=      2127 FMM=F ISym2X=0 I1Cent= 0 IOpClX= 0 NMat=1 NMatS=1 NMatT=0.
 FoFJK:  IHMeth= 1 ICntrl=    2127 DoSepK=F KAlg= 0 I1Cent=           0 FoldK=F
 IRaf=         0 NMat=       1 IRICut=       1 DoRegI=T DoRafI=F ISym2E= 0 IDoP0=0 IntGTp=1.
 FoFCou: FMM=F IPFlag=           0 FMFlag=      100000 FMFlg1=         800
         NFxFlg=           0 DoJE=F BraDBF=F KetDBF=F FulRan=T
         wScrn=  0.000000 ICntrl=      2127 IOpCl=  0 I1Cent=           0 NGrid=           0
         NMat0=    1 NMatS0=      1 NMatT0=    0 NMatD0=    1 NMtDS0=    0 NMtDT0=    0
 Symmetry not used in FoFCou.
 Leave Link  703 at Mon Jul 19 20:41:19 2021, MaxMem=   524288000 cpu:              77.7 elap:              19.4
 (Enter /opt/gaussian/g16_legacy/l716.exe)
 Dipole        =-1.27697814D-01 3.28181446D-02 8.51186183D-02
 ***** Axes restored to original set *****
 -------------------------------------------------------------------
 Center     Atomic                   Forces (Hartrees/Bohr)
 Number     Number              X              Y              Z
 -------------------------------------------------------------------
      1        6           0.002869279    0.006445498   -0.008348853
      2        1          -0.000961330   -0.000872054    0.003675027
      3        1           0.001265978    0.000846221    0.001575601
      4        6           0.002271324    0.012692845   -0.003293208
      5        6           0.001156276   -0.001089976    0.004738512
      6        1           0.002192750   -0.001015565   -0.002572655
      7        1          -0.001563150    0.001769298   -0.001584603
      8        1           0.002083466   -0.001463411    0.000699874
      9        6          -0.009994172   -0.013140365    0.002653520
     10        1          -0.002525439   -0.001061371   -0.001052475
     11        6           0.001083462   -0.001064400    0.001429050
     12        1          -0.001408972   -0.000078023   -0.000298153
     13        1           0.001647052    0.001390302    0.001290847
     14        1           0.002948008    0.001189218   -0.000716478
     15        6           0.003004677    0.002717412    0.001425115
     16        1          -0.001623450    0.000929308   -0.001693459
     17        1          -0.001176916   -0.003044733    0.000657020
     18        1          -0.002554036   -0.001340743    0.001194201
     19        6           0.014122140    0.006863110   -0.000788401
     20        6           0.001453764    0.001241091   -0.004018015
     21        1          -0.000957504    0.002147507    0.001411341
     22        1          -0.001345610    0.000591348    0.002039433
     23        1          -0.002294460   -0.001835297   -0.000704216
     24        6          -0.005250723   -0.004912020    0.001548782
     25        1          -0.000597384   -0.003154253    0.001767357
     26        6          -0.006672200   -0.001321262    0.002679846
     27        1           0.000120937   -0.001858951   -0.000916695
     28        1           0.002706232   -0.001570734   -0.002798315
 -------------------------------------------------------------------
 Cartesian Forces:  Max     0.014122140 RMS     0.003714704
 Leave Link  716 at Mon Jul 19 20:41:19 2021, MaxMem=   524288000 cpu:               0.2 elap:               0.1
 (Enter /opt/gaussian/g16_legacy/l103.exe)

 GradGradGradGradGradGradGradGradGradGradGradGradGradGradGradGradGradGrad
 Berny optimization.
 FormGI is forming the generalized inverse of G from B-inverse, IUseBI=4.
 Internal  Forces:  Max     0.015516161 RMS     0.002421233
 Search for a local minimum.
 Step number   1 out of a maximum of  138
 All quantities printed in internal units (Hartrees-Bohrs-Radians)
 RMS Force = .24212D-02 SwitMx=.10000D-02 MixMth= 1
 Mixed Optimization -- RFO/linear search
 Second derivative matrix not updated -- first step.
 ITU=  0
     Eigenvalues ---    0.00272   0.00541   0.00689   0.00704   0.00705
     Eigenvalues ---    0.00716   0.00843   0.01202   0.01295   0.01589
     Eigenvalues ---    0.01647   0.02768   0.02809   0.03807   0.03942
     Eigenvalues ---    0.05316   0.05340   0.07060   0.07068   0.07073
     Eigenvalues ---    0.07115   0.07210   0.07307   0.07316   0.07510
     Eigenvalues ---    0.09544   0.09601   0.12955   0.13020   0.15998
     Eigenvalues ---    0.16000   0.16000   0.16000   0.16000   0.16000
     Eigenvalues ---    0.16000   0.16000   0.16000   0.16000   0.16000
     Eigenvalues ---    0.16000   0.16000   0.16000   0.21905   0.21916
     Eigenvalues ---    0.22000   0.22000   0.24982   0.24991   0.24995
     Eigenvalues ---    0.24997   0.28758   0.30660   0.31776   0.31889
     Eigenvalues ---    0.31902   0.31985   0.32994   0.33888   0.33902
     Eigenvalues ---    0.33939   0.34095   0.34193   0.34201   0.34213
     Eigenvalues ---    0.34230   0.34317   0.34320   0.34326   0.34350
     Eigenvalues ---    0.34355   0.34357   0.34395   0.34519   0.34796
     Eigenvalues ---    0.34840   0.55308   0.55972
 RFO step:  Lambda=-3.98906317D-03 EMin= 2.72284432D-03
 Linear search not attempted -- first point.
 Iteration  1 RMS(Cart)=  0.07129577 RMS(Int)=  0.00164787
 Iteration  2 RMS(Cart)=  0.00239577 RMS(Int)=  0.00017453
 Iteration  3 RMS(Cart)=  0.00000278 RMS(Int)=  0.00017452
 Iteration  4 RMS(Cart)=  0.00000000 RMS(Int)=  0.00017452
 ITry= 1 IFail=0 DXMaxC= 2.09D-01 DCOld= 1.00D+10 DXMaxT= 3.00D-01 DXLimC= 3.00D+00 Rises=F
 Variable       Old X    -DE/DX   Delta X   Delta X   Delta X     New X
                                 (Linear)    (Quad)   (Total)
    R1        2.07433  -0.00011   0.00000  -0.00033  -0.00033   2.07401
    R2        2.07520  -0.00089   0.00000  -0.00261  -0.00261   2.07259
    R3        2.86667  -0.00172   0.00000  -0.00555  -0.00555   2.86112
    R4        2.90511   0.00058   0.00000   0.00198   0.00198   2.90709
    R5        2.84555   0.00338   0.00000   0.01050   0.01050   2.85604
    R6        2.54859  -0.01552   0.00000  -0.02785  -0.02785   2.52074
    R7        2.06735  -0.00057   0.00000  -0.00163  -0.00163   2.06573
    R8        2.06732  -0.00048   0.00000  -0.00138  -0.00138   2.06594
    R9        2.06794   0.00117   0.00000   0.00337   0.00337   2.07131
   R10        2.05935   0.00061   0.00000   0.00174   0.00174   2.06109
   R11        2.82363   0.00462   0.00000   0.01384   0.01384   2.83747
   R12        2.06463  -0.00063   0.00000  -0.00182  -0.00182   2.06281
   R13        2.06943   0.00003   0.00000   0.00008   0.00008   2.06951
   R14        2.06798   0.00084   0.00000   0.00243   0.00243   2.07041
   R15        2.07006  -0.00187   0.00000  -0.00539  -0.00539   2.06467
   R16        2.06743   0.00138   0.00000   0.00396   0.00396   2.07139
   R17        2.06992   0.00037   0.00000   0.00108   0.00108   2.07100
   R18        2.84347   0.00143   0.00000   0.00443   0.00443   2.84790
   R19        2.84172   0.00240   0.00000   0.00743   0.00743   2.84914
   R20        2.54278  -0.01170   0.00000  -0.02075  -0.02075   2.52203
   R21        2.06669  -0.00081   0.00000  -0.00232  -0.00232   2.06436
   R22        2.06973  -0.00059   0.00000  -0.00172  -0.00172   2.06801
   R23        2.06783   0.00118   0.00000   0.00340   0.00340   2.07123
   R24        2.06008   0.00003   0.00000   0.00008   0.00008   2.06015
   R25        2.84323   0.00223   0.00000   0.00689   0.00689   2.85012
   R26        2.07170   0.00004   0.00000   0.00013   0.00013   2.07182
   R27        2.07496  -0.00154   0.00000  -0.00450  -0.00450   2.07046
    A1        1.83576   0.00134   0.00000   0.02911   0.02935   1.86511
    A2        1.91153   0.00153   0.00000  -0.00569  -0.00669   1.90484
    A3        1.92559  -0.00223   0.00000  -0.03219  -0.03267   1.89293
    A4        1.90819   0.00049   0.00000   0.01182   0.01192   1.92011
    A5        1.88419   0.00182   0.00000   0.02011   0.02035   1.90453
    A6        1.99182  -0.00262   0.00000  -0.01833  -0.01878   1.97304
    A7        2.02874   0.00203   0.00000   0.00811   0.00800   2.03674
    A8        2.09844  -0.00067   0.00000  -0.00247  -0.00258   2.09586
    A9        2.15585  -0.00136   0.00000  -0.00518  -0.00529   2.15056
   A10        1.95189   0.00157   0.00000   0.01015   0.01018   1.96207
   A11        1.95104  -0.00405   0.00000  -0.02231  -0.02224   1.92880
   A12        1.92206   0.00264   0.00000   0.01319   0.01322   1.93528
   A13        1.85608   0.00229   0.00000   0.01938   0.01945   1.87554
   A14        1.90635  -0.00306   0.00000  -0.02307  -0.02308   1.88328
   A15        1.87349   0.00049   0.00000   0.00200   0.00206   1.87555
   A16        2.06874  -0.00242   0.00000  -0.01544  -0.01544   2.05330
   A17        2.21937  -0.00084   0.00000  -0.00377  -0.00377   2.21560
   A18        1.99506   0.00326   0.00000   0.01921   0.01921   2.01427
   A19        1.98088  -0.00288   0.00000  -0.01704  -0.01697   1.96392
   A20        1.91304   0.00262   0.00000   0.01511   0.01506   1.92811
   A21        1.91455   0.00382   0.00000   0.02366   0.02363   1.93818
   A22        1.87953  -0.00006   0.00000  -0.00094  -0.00088   1.87865
   A23        1.88537  -0.00033   0.00000  -0.00044  -0.00036   1.88501
   A24        1.88799  -0.00338   0.00000  -0.02168  -0.02183   1.86616
   A25        1.88310   0.00044   0.00000   0.00468   0.00470   1.88780
   A26        1.87457   0.00124   0.00000   0.01304   0.01305   1.88762
   A27        1.95874  -0.00226   0.00000  -0.00989  -0.00987   1.94887
   A28        1.89666  -0.00337   0.00000  -0.02823  -0.02821   1.86845
   A29        1.92833   0.00207   0.00000   0.00976   0.00978   1.93811
   A30        1.92048   0.00176   0.00000   0.00972   0.00973   1.93021
   A31        2.00818   0.00104   0.00000   0.00458   0.00411   2.01229
   A32        2.10782   0.00293   0.00000   0.01214   0.01166   2.11948
   A33        2.16664  -0.00395   0.00000  -0.01497  -0.01543   2.15121
   A34        1.96525  -0.00080   0.00000  -0.00158  -0.00158   1.96367
   A35        1.93013  -0.00065   0.00000  -0.00343  -0.00342   1.92671
   A36        1.92124   0.00298   0.00000   0.01432   0.01433   1.93557
   A37        1.85951   0.00208   0.00000   0.01991   0.01990   1.87941
   A38        1.89413  -0.00136   0.00000  -0.00910  -0.00909   1.88503
   A39        1.89110  -0.00240   0.00000  -0.02117  -0.02115   1.86995
   A40        2.07561  -0.00219   0.00000  -0.01591  -0.01593   2.05968
   A41        2.21395  -0.00303   0.00000  -0.01355  -0.01357   2.20038
   A42        1.99347   0.00521   0.00000   0.02925   0.02923   2.02270
   A43        1.97825   0.00058   0.00000  -0.00088  -0.00095   1.97730
   A44        1.90499  -0.00010   0.00000   0.00107   0.00109   1.90608
   A45        1.91852  -0.00364   0.00000  -0.03587  -0.03589   1.88263
   A46        1.92671  -0.00003   0.00000   0.00792   0.00787   1.93458
   A47        1.89118   0.00169   0.00000   0.00896   0.00869   1.89987
   A48        1.83904   0.00155   0.00000   0.01997   0.01985   1.85889
    D1       -0.57874   0.00149   0.00000  -0.02637  -0.02643  -0.60517
    D2        2.54432   0.00190   0.00000   0.00004   0.00005   2.54437
    D3       -2.58169  -0.00123   0.00000  -0.06455  -0.06463  -2.64632
    D4        0.54137  -0.00082   0.00000  -0.03815  -0.03815   0.50322
    D5        1.58963  -0.00217   0.00000  -0.08671  -0.08669   1.50294
    D6       -1.57050  -0.00176   0.00000  -0.06031  -0.06021  -1.63071
    D7        1.06453  -0.00067   0.00000   0.01979   0.02003   1.08457
    D8       -1.09054  -0.00096   0.00000   0.00934   0.00966  -1.08088
    D9       -3.09950  -0.00075   0.00000   0.00465   0.00505  -3.09445
   D10        3.06176   0.00077   0.00000   0.04865   0.04852   3.11028
   D11        0.90668   0.00048   0.00000   0.03821   0.03815   0.94483
   D12       -1.10227   0.00069   0.00000   0.03351   0.03353  -1.06874
   D13       -1.09628   0.00100   0.00000   0.06633   0.06599  -1.03029
   D14        3.03183   0.00071   0.00000   0.05588   0.05561   3.08744
   D15        1.02288   0.00092   0.00000   0.05119   0.05100   1.07387
   D16       -2.47552  -0.00090   0.00000  -0.03068  -0.03064  -2.50616
   D17       -0.39646   0.00033   0.00000  -0.01428  -0.01427  -0.41074
   D18        1.68456   0.00010   0.00000  -0.01739  -0.01741   1.66716
   D19        0.68528  -0.00133   0.00000  -0.05809  -0.05807   0.62721
   D20        2.76433  -0.00011   0.00000  -0.04168  -0.04170   2.72264
   D21       -1.43782  -0.00034   0.00000  -0.04479  -0.04483  -1.48265
   D22        0.01360  -0.00102   0.00000  -0.03897  -0.03891  -0.02531
   D23       -3.12078  -0.00103   0.00000  -0.03915  -0.03908   3.12333
   D24        3.13526  -0.00054   0.00000  -0.01042  -0.01048   3.12477
   D25        0.00088  -0.00055   0.00000  -0.01059  -0.01066  -0.00978
   D26        0.01975   0.00012   0.00000  -0.00101  -0.00102   0.01873
   D27        2.12179  -0.00000   0.00000  -0.00282  -0.00290   2.11889
   D28       -2.09085  -0.00025   0.00000  -0.00596  -0.00586  -2.09671
   D29       -3.11489   0.00013   0.00000  -0.00105  -0.00106  -3.11595
   D30       -1.01285   0.00000   0.00000  -0.00287  -0.00295  -1.01580
   D31        1.05770  -0.00025   0.00000  -0.00600  -0.00591   1.05179
   D32        3.13793   0.00084   0.00000   0.04458   0.04486  -3.10040
   D33        0.03029  -0.00000   0.00000  -0.01012  -0.01038   0.01990
   D34       -1.04277   0.00131   0.00000   0.05064   0.05091  -0.99185
   D35        2.13278   0.00047   0.00000  -0.00405  -0.00433   2.12845
   D36        1.05162  -0.00043   0.00000   0.02801   0.02828   1.07990
   D37       -2.05602  -0.00128   0.00000  -0.02669  -0.02697  -2.08299
   D38       -2.72407  -0.00161   0.00000  -0.08019  -0.07998  -2.80404
   D39       -0.64598   0.00005   0.00000  -0.05831  -0.05808  -0.70406
   D40        1.44312  -0.00144   0.00000  -0.07763  -0.07742   1.36570
   D41        0.38228  -0.00058   0.00000  -0.02279  -0.02301   0.35927
   D42        2.46037   0.00108   0.00000  -0.00091  -0.00111   2.45926
   D43       -1.73371  -0.00041   0.00000  -0.02023  -0.02045  -1.75416
   D44       -0.01401   0.00041   0.00000   0.02971   0.02955   0.01553
   D45        3.10799   0.00018   0.00000   0.01648   0.01650   3.12449
   D46       -3.11845  -0.00063   0.00000  -0.03062  -0.03063   3.13410
   D47        0.00356  -0.00086   0.00000  -0.04385  -0.04368  -0.04013
   D48       -1.58790  -0.00133   0.00000  -0.04268  -0.04267  -1.63057
   D49        0.55521  -0.00107   0.00000  -0.03596  -0.03595   0.51926
   D50        2.56085   0.00172   0.00000  -0.00277  -0.00261   2.55825
   D51        1.53489  -0.00162   0.00000  -0.05579  -0.05590   1.47899
   D52       -2.60518  -0.00136   0.00000  -0.04906  -0.04919  -2.65437
   D53       -0.59954   0.00143   0.00000  -0.01588  -0.01584  -0.61537
         Item               Value     Threshold  Converged?
 Maximum Force            0.015516     0.002500     NO 
 RMS     Force            0.002421     0.001667     NO 
 Maximum Displacement     0.208838     0.010000     NO 
 RMS     Displacement     0.071361     0.006667     NO 
 Predicted change in Energy=-2.177649D-03
 Lowest energy point so far.  Saving SCF results.
 GradGradGradGradGradGradGradGradGradGradGradGradGradGradGradGradGradGrad

 Leave Link  103 at Mon Jul 19 20:41:19 2021, MaxMem=   524288000 cpu:               0.2 elap:               0.1
 (Enter /opt/gaussian/g16_legacy/l202.exe)
                          Input orientation:                          
 ---------------------------------------------------------------------
 Center     Atomic      Atomic             Coordinates (Angstroms)
 Number     Number       Type             X           Y           Z
 ---------------------------------------------------------------------
      1          6           0        2.200510    1.318343   -9.000521
      2          1           0        1.892126    0.319931   -9.336103
      3          1           0        2.056161    1.997914   -9.849192
      4          6           0        3.662709    1.280952   -8.609498
      5          6           0        4.163200    0.004290   -7.974021
      6          1           0        4.905488    0.190323   -7.193417
      7          1           0        3.336503   -0.545443   -7.516246
      8          1           0        4.619757   -0.652361   -8.723543
      9          6           0        4.439046    2.344696   -8.821828
     10          1           0        3.986930    3.213442   -9.301893
[...]
                 (A) (A) (A) (A) (A) (A) (A) (A) (A) (A) (A) (A)
                 (A) (A) (A) (A) (A) (A) (A) (A) (A) (A) (A) (A)
                 (A) (A) (A) (A) (A) (A) (A) (A) (A) (A) (A) (A)
                 (A) (A) (A) (A) (A) (A) (A) (A) (A) (A) (A) (A)
                 (A) (A) (A) (A) (A) (A) (A) (A) (A) (A) (A) (A)
                 (A) (A) (A) (A) (A) (A) (A) (A) (A) (A) (A) (A)
                 (A) (A) (A) (A) (A) (A) (A) (A) (A) (A) (A) (A)
                 (A) (A) (A) (A) (A) (A) (A) (A) (A) (A) (A) (A)
                 (A) (A) (A) (A) (A) (A) (A) (A) (A)
 The electronic state is 1-A.
 Alpha  occ. eigenvalues --  -10.54566 -10.53990 -10.53836 -10.53710 -10.53544
 Alpha  occ. eigenvalues --  -10.53392 -10.53233 -10.53077 -10.53034 -10.52930
 Alpha  occ. eigenvalues --   -0.92131  -0.89884  -0.84655  -0.80712  -0.77873
 Alpha  occ. eigenvalues --   -0.76672  -0.72424  -0.67877  -0.59055  -0.57041
 Alpha  occ. eigenvalues --   -0.53697  -0.52643  -0.50484  -0.49493  -0.48456
 Alpha  occ. eigenvalues --   -0.48233  -0.46069  -0.44618  -0.44309  -0.44231
 Alpha  occ. eigenvalues --   -0.43613  -0.42253  -0.42092  -0.40945  -0.38640
 Alpha  occ. eigenvalues --   -0.37958  -0.36154  -0.29031  -0.26876
 Alpha virt. eigenvalues --    0.07116   0.07642   0.12998   0.15458   0.16137
 Alpha virt. eigenvalues --    0.16689   0.18047   0.18819   0.19660   0.20142
 Alpha virt. eigenvalues --    0.20941   0.21773   0.22199   0.22659   0.23758
 Alpha virt. eigenvalues --    0.24059   0.24547   0.26016   0.27087   0.28394
 Alpha virt. eigenvalues --    0.28660   0.28973   0.30031   0.30816   0.34223
 Alpha virt. eigenvalues --    0.37838   0.39565   0.47608   0.48850   0.54412
 Alpha virt. eigenvalues --    0.54728   0.56209   0.57614   0.58218   0.59371
 Alpha virt. eigenvalues --    0.60695   0.62382   0.63797   0.64162   0.66315
 Alpha virt. eigenvalues --    0.66855   0.68275   0.70089   0.70680   0.71914
 Alpha virt. eigenvalues --    0.73470   0.75959   0.78394   0.79134   0.79874
 Alpha virt. eigenvalues --    0.81151   0.82307   0.82741   0.85488   0.86009
 Alpha virt. eigenvalues --    0.87654   0.89173   0.90300   0.91813   0.92906
 Alpha virt. eigenvalues --    0.93413   0.94694   0.95523   0.95996   0.96366
 Alpha virt. eigenvalues --    0.96971   0.98659   0.99478   0.99827   1.00956
 Alpha virt. eigenvalues --    1.01905   1.02391   1.03604   1.05457   1.06048
 Alpha virt. eigenvalues --    1.08762   1.14093   1.20977   1.21749   1.26204
 Alpha virt. eigenvalues --    1.26751   1.29736   1.34393   1.36006   1.38210
 Alpha virt. eigenvalues --    1.38906   1.46263   1.46515   1.50888   1.52151
 Alpha virt. eigenvalues --    1.53342   1.56894   1.68857   1.70639   1.73241
 Alpha virt. eigenvalues --    1.76316   1.78052   1.79756   1.81152   1.83015
 Alpha virt. eigenvalues --    1.84117   1.85468   1.85948   1.88123   1.88731
 Alpha virt. eigenvalues --    1.91967   1.92378   1.95111   2.00538   2.02408
 Alpha virt. eigenvalues --    2.03446   2.04998   2.07091   2.09422   2.09925
 Alpha virt. eigenvalues --    2.10036   2.10318   2.12560   2.13247   2.14197
 Alpha virt. eigenvalues --    2.15519   2.16748   2.16799   2.17262   2.18876
 Alpha virt. eigenvalues --    2.19948   2.22210   2.23541   2.24216   2.25365
 Alpha virt. eigenvalues --    2.27654   2.30992   2.32424   2.34100   2.35513
 Alpha virt. eigenvalues --    2.39664   2.40362   2.41609   2.43192   2.44420
 Alpha virt. eigenvalues --    2.46122   2.48427   2.48694   2.53133   2.54356
 Alpha virt. eigenvalues --    2.56018   2.57373   2.59244   2.61273   2.63743
 Alpha virt. eigenvalues --    2.65800   2.67810   2.68328   2.71771   2.72401
 Alpha virt. eigenvalues --    2.74466   2.75807   2.78487   2.80027   2.82734
 Alpha virt. eigenvalues --    2.84824   2.85791   2.86854   2.87158   2.88742
 Alpha virt. eigenvalues --    2.90275   2.92531   2.93147   2.94994   3.03040
 Alpha virt. eigenvalues --    3.05069   3.08435   3.09480   3.17182   3.18681
 Alpha virt. eigenvalues --    3.23205   3.24766   3.29618   3.32130   3.39992
 Alpha virt. eigenvalues --    3.41388   3.42484   3.43518   3.44169   3.44925
 Alpha virt. eigenvalues --    3.45066   3.47196   3.49344   3.50241   3.51344
 Alpha virt. eigenvalues --    3.55700   4.18935   4.22019   4.33582   4.44213
 Alpha virt. eigenvalues --    4.51763   4.52013   4.52341   4.69367   4.71357
 Alpha virt. eigenvalues --    4.76197
          Condensed to atoms (all electrons):
               1          2          3          4          5          6
     1  C    5.035062   0.383742   0.380606   0.361062  -0.065191   0.004884
     2  H    0.383742   0.616747  -0.031733  -0.040986  -0.004365   0.000158
     3  H    0.380606  -0.031733   0.599770  -0.034473   0.004468  -0.000166
     4  C    0.361062  -0.040986  -0.034473   4.759953   0.380486  -0.030507
     5  C   -0.065191  -0.004365   0.004468   0.380486   5.009165   0.381225
     6  H    0.004884   0.000158  -0.000166  -0.030507   0.381225   0.583066
     7  H   -0.001094   0.000418   0.000124  -0.038466   0.379500  -0.026092
     8  H   -0.004907   0.003269  -0.000013  -0.031485   0.379622  -0.027742
     9  C   -0.045468   0.004023  -0.007825   0.715334  -0.053721  -0.007347
    10  H   -0.012251   0.000210   0.004557  -0.041219   0.006453  -0.000030
    11  C    0.005469  -0.000182   0.000062  -0.034949  -0.015196   0.000883
    12  H    0.000085   0.000000   0.000006  -0.006323   0.001231   0.003653
    13  H   -0.000165   0.000007   0.000017  -0.001120   0.000419  -0.000167
    14  H   -0.000104  -0.000000  -0.000016   0.000028   0.000386  -0.000051
    15  C   -0.000112  -0.000061   0.000003   0.000002  -0.000001  -0.000002
    16  H   -0.000005  -0.000001  -0.000000  -0.000004  -0.000012  -0.000000
    17  H   -0.000005   0.000001   0.000000  -0.000000  -0.000001   0.000000
    18  H    0.000026  -0.000004  -0.000000   0.000001   0.000056  -0.000002
    19  C   -0.003934   0.002456   0.000044  -0.000317  -0.001630   0.000034
    20  C   -0.000038   0.000566  -0.000033   0.000046  -0.000010  -0.000000
    21  H   -0.000409   0.000487   0.000035   0.000016  -0.000002  -0.000000
    22  H    0.000149  -0.000090  -0.000005   0.000001   0.000033  -0.000000
    23  H   -0.000036   0.000011   0.000001  -0.000001  -0.000001   0.000000
    24  C   -0.054699  -0.004581   0.005825  -0.007482  -0.003272   0.000081
    25  H   -0.002250   0.000005  -0.000122   0.005915  -0.001211   0.000071
    26  C    0.353365  -0.040139  -0.033979  -0.048192  -0.001393  -0.000077
    27  H   -0.036498  -0.004230  -0.003263   0.005963  -0.000191   0.000004
    28  H   -0.042168   0.005881  -0.004025  -0.006027   0.000058   0.000010
               7          8          9         10         11         12
     1  C   -0.001094  -0.004907  -0.045468  -0.012251   0.005469   0.000085
     2  H    0.000418   0.003269   0.004023   0.000210  -0.000182   0.000000
     3  H    0.000124  -0.000013  -0.007825   0.004557   0.000062   0.000006
     4  C   -0.038466  -0.031485   0.715334  -0.041219  -0.034949  -0.006323
     5  C    0.379500   0.379622  -0.053721   0.006453  -0.015196   0.001231
     6  H   -0.026092  -0.027742  -0.007347  -0.000030   0.000883   0.003653
     7  H    0.576728  -0.032666   0.000896  -0.000181   0.000367  -0.000151
     8  H   -0.032666   0.583159   0.000047  -0.000162   0.000493  -0.000163
     9  C    0.000896   0.000047   4.897787   0.379982   0.359845  -0.035929
    10  H   -0.000181  -0.000162   0.379982   0.621808  -0.053958   0.004557
    11  C    0.000367   0.000493   0.359845  -0.053958   4.971663   0.389646
    12  H   -0.000151  -0.000163  -0.035929   0.004557   0.389646   0.578362
    13  H   -0.000022   0.000068  -0.033257  -0.001262   0.385112  -0.027947
    14  H    0.000035  -0.000030  -0.033258  -0.001797   0.384699  -0.028065
    15  C    0.000238  -0.000002  -0.000000  -0.000000   0.000000  -0.000000
    16  H    0.000142  -0.000000  -0.000000  -0.000000   0.000000   0.000000
    17  H    0.000015   0.000000  -0.000000  -0.000000   0.000000  -0.000000
    18  H   -0.000088  -0.000003  -0.000000  -0.000000  -0.000000   0.000000
    19  C    0.002617   0.000079   0.000045   0.000001  -0.000000   0.000000
    20  C   -0.000007  -0.000001  -0.000001   0.000000  -0.000000   0.000000
    21  H   -0.000001  -0.000000   0.000000   0.000000  -0.000000   0.000000
    22  H   -0.000070  -0.000003  -0.000000  -0.000000   0.000000   0.000000
    23  H    0.000006   0.000000   0.000000   0.000000  -0.000000  -0.000000
    24  C    0.009385   0.000103  -0.000945   0.000200  -0.000004   0.000002
    25  H   -0.000986   0.000079   0.001004   0.000006  -0.000009   0.000003
    26  C   -0.000912   0.000073  -0.007199  -0.000188  -0.000025  -0.000009
    27  H   -0.000084   0.000019   0.000195  -0.000098   0.000003   0.000000
    28  H    0.000072   0.000007   0.004196   0.001422  -0.000163   0.000002
              13         14         15         16         17         18
     1  C   -0.000165  -0.000104  -0.000112  -0.000005  -0.000005   0.000026
     2  H    0.000007  -0.000000  -0.000061  -0.000001   0.000001  -0.000004
     3  H    0.000017  -0.000016   0.000003  -0.000000   0.000000  -0.000000
     4  C   -0.001120   0.000028   0.000002  -0.000004  -0.000000   0.000001
     5  C    0.000419   0.000386  -0.000001  -0.000012  -0.000001   0.000056
     6  H   -0.000167  -0.000051  -0.000002  -0.000000   0.000000  -0.000002
     7  H   -0.000022   0.000035   0.000238   0.000142   0.000015  -0.000088
     8  H    0.000068  -0.000030  -0.000002  -0.000000   0.000000  -0.000003
     9  C   -0.033257  -0.033258  -0.000000  -0.000000  -0.000000  -0.000000
    10  H   -0.001262  -0.001797  -0.000000  -0.000000  -0.000000  -0.000000
    11  C    0.385112   0.384699   0.000000   0.000000   0.000000  -0.000000
    12  H   -0.027947  -0.028065  -0.000000   0.000000  -0.000000   0.000000
    13  H    0.581077  -0.034506   0.000000  -0.000000   0.000000  -0.000000
    14  H   -0.034506   0.581934  -0.000000   0.000000  -0.000000   0.000000
    15  C    0.000000  -0.000000   5.005846   0.385168   0.381775   0.381076
    16  H   -0.000000   0.000000   0.385168   0.569317  -0.026017  -0.026527
    17  H    0.000000  -0.000000   0.381775  -0.026017   0.589144  -0.036668
    18  H   -0.000000   0.000000   0.381076  -0.026527  -0.036668   0.592361
    19  C    0.000000  -0.000000   0.368024  -0.033798  -0.035847  -0.036182
    20  C   -0.000000   0.000000  -0.078421   0.004740  -0.000990  -0.001853
    21  H    0.000000   0.000000   0.004832  -0.000172  -0.000011  -0.000048
    22  H   -0.000000  -0.000000  -0.002723  -0.000012  -0.000797   0.004159
    23  H    0.000000  -0.000000  -0.002650  -0.000035   0.004136  -0.000807
    24  C   -0.000000   0.000002  -0.038933  -0.004808  -0.001410  -0.000630
    25  H    0.000001  -0.000012  -0.013995   0.006442   0.000235   0.000237
    26  C   -0.000007   0.000031   0.005816   0.000117  -0.000204  -0.000114
    27  H    0.000000  -0.000001   0.000053   0.000009   0.000011  -0.000008
    28  H    0.000004  -0.000002  -0.000169  -0.000011   0.000011  -0.000002
              19         20         21         22         23         24
     1  C   -0.003934  -0.000038  -0.000409   0.000149  -0.000036  -0.054699
     2  H    0.002456   0.000566   0.000487  -0.000090   0.000011  -0.004581
     3  H    0.000044  -0.000033   0.000035  -0.000005   0.000001   0.005825
     4  C   -0.000317   0.000046   0.000016   0.000001  -0.000001  -0.007482
     5  C   -0.001630  -0.000010  -0.000002   0.000033  -0.000001  -0.003272
     6  H    0.000034  -0.000000  -0.000000  -0.000000   0.000000   0.000081
     7  H    0.002617  -0.000007  -0.000001  -0.000070   0.000006   0.009385
     8  H    0.000079  -0.000001  -0.000000  -0.000003   0.000000   0.000103
     9  C    0.000045  -0.000001   0.000000  -0.000000   0.000000  -0.000945
    10  H    0.000001   0.000000   0.000000  -0.000000   0.000000   0.000200
    11  C   -0.000000  -0.000000  -0.000000   0.000000  -0.000000  -0.000004
    12  H    0.000000   0.000000   0.000000   0.000000  -0.000000   0.000002
    13  H    0.000000  -0.000000   0.000000  -0.000000   0.000000  -0.000000
    14  H   -0.000000   0.000000   0.000000  -0.000000  -0.000000   0.000002
    15  C    0.368024  -0.078421   0.004832  -0.002723  -0.002650  -0.038933
    16  H   -0.033798   0.004740  -0.000172  -0.000012  -0.000035  -0.004808
    17  H   -0.035847  -0.000990  -0.000011  -0.000797   0.004136  -0.001410
    18  H   -0.036182  -0.001853  -0.000048   0.004159  -0.000807  -0.000630
    19  C    4.734546   0.378175  -0.027281  -0.035226  -0.036269   0.714421
    20  C    0.378175   5.004941   0.383630   0.383530   0.383600  -0.052654
    21  H   -0.027281   0.383630   0.573689  -0.027640  -0.026923  -0.008793
    22  H   -0.035226   0.383530  -0.027640   0.584113  -0.034843   0.000296
    23  H   -0.036269   0.383600  -0.026923  -0.034843   0.583167   0.000549
    24  C    0.714421  -0.052654  -0.008793   0.000296   0.000549   4.914983
    25  H   -0.036435   0.006330   0.000020  -0.000164  -0.000154   0.376826
    26  C   -0.040579  -0.013699   0.002116   0.000485   0.000096   0.366035
    27  H   -0.007241   0.000151   0.002827  -0.000211   0.000161  -0.039765
    28  H    0.003131   0.000343  -0.000042  -0.000016   0.000020  -0.032707
              25         26         27         28
     1  C   -0.002250   0.353365  -0.036498  -0.042168
     2  H    0.000005  -0.040139  -0.004230   0.005881
     3  H   -0.000122  -0.033979  -0.003263  -0.004025
     4  C    0.005915  -0.048192   0.005963  -0.006027
     5  C   -0.001211  -0.001393  -0.000191   0.000058
     6  H    0.000071  -0.000077   0.000004   0.000010
     7  H   -0.000986  -0.000912  -0.000084   0.000072
     8  H    0.000079   0.000073   0.000019   0.000007
     9  C    0.001004  -0.007199   0.000195   0.004196
    10  H    0.000006  -0.000188  -0.000098   0.001422
    11  C   -0.000009  -0.000025   0.000003  -0.000163
    12  H    0.000003  -0.000009   0.000000   0.000002
    13  H    0.000001  -0.000007   0.000000   0.000004
    14  H   -0.000012   0.000031  -0.000001  -0.000002
    15  C   -0.013995   0.005816   0.000053  -0.000169
    16  H    0.006442   0.000117   0.000009  -0.000011
    17  H    0.000235  -0.000204   0.000011   0.000011
    18  H    0.000237  -0.000114  -0.000008  -0.000002
    19  C   -0.036435  -0.040579  -0.007241   0.003131
    20  C    0.006330  -0.013699   0.000151   0.000343
    21  H    0.000020   0.002116   0.002827  -0.000042
    22  H   -0.000164   0.000485  -0.000211  -0.000016
    23  H   -0.000154   0.000096   0.000161   0.000020
    24  C    0.376826   0.366035  -0.039765  -0.032707
    25  H    0.608010  -0.049730   0.004859  -0.004973
    26  C   -0.049730   4.982604   0.382755   0.384382
    27  H    0.004859   0.382755   0.613830  -0.031580
    28  H   -0.004973   0.384382  -0.031580   0.603168
 Mulliken charges:
               1
     1  C   -0.255117
     2  H    0.108389
     3  H    0.120134
     4  C    0.092743
     5  C   -0.396907
     6  H    0.118112
     7  H    0.130276
     8  H    0.130159
     9  C   -0.138404
    10  H    0.091951
    11  C   -0.393757
    12  H    0.121040
    13  H    0.131749
    14  H    0.130726
    15  C   -0.395763
    16  H    0.125467
    17  H    0.126625
    18  H    0.125021
    19  C    0.091168
    20  C   -0.398345
    21  H    0.123668
    22  H    0.129035
    23  H    0.129971
    24  C   -0.138025
    25  H    0.099999
    26  C   -0.241427
    27  H    0.112329
    28  H    0.119181
 Sum of Mulliken charges =  -0.00000
 Mulliken charges with hydrogens summed into heavy atoms:
               1
     1  C   -0.026594
     4  C    0.092743
     5  C   -0.018358
     9  C   -0.046453
    11  C   -0.010241
    15  C   -0.018650
    19  C    0.091168
    20  C   -0.015671
    24  C   -0.038026
    26  C   -0.009917
 Electronic spatial extent (au):  <R**2>=           2249.1027
 Charge=              0.0000 electrons
 Dipole moment (field-independent basis, Debye):
    X=             -0.3731    Y=              0.0754    Z=              0.1957  Tot=              0.4280
 Quadrupole moment (field-independent basis, Debye-Ang):
   XX=            -62.4614   YY=            -63.4409   ZZ=            -65.2911
   XY=              0.2508   XZ=             -1.9710   YZ=              0.1411
 Traceless Quadrupole moment (field-independent basis, Debye-Ang):
   XX=              1.2697   YY=              0.2903   ZZ=             -1.5600
   XY=              0.2508   XZ=             -1.9710   YZ=              0.1411
 Octapole moment (field-independent basis, Debye-Ang**2):
  XXX=             -5.6484  YYY=             -1.1638  ZZZ=              2.3723  XYY=              0.6885
  XXY=              2.7041  XXZ=             -2.3465  XZZ=              1.1685  YZZ=              1.3564
  YYZ=             -0.9627  XYZ=              1.8931
 Hexadecapole moment (field-independent basis, Debye-Ang**3):
 XXXX=          -2248.5034 YYYY=           -509.0272 ZZZZ=           -291.9416 XXXY=              0.1790
 XXXZ=            -11.4328 YYYX=              2.7537 YYYZ=             -0.1545 ZZZX=             -9.5255
 ZZZY=             -0.7294 XXYY=           -468.9235 XXZZ=           -436.8773 YYZZ=           -135.8160
 XXYZ=              5.1199 YYXZ=             -1.0728 ZZXY=             -1.7444
 N-N= 5.255117368930D+02 E-N=-1.956152161555D+03  KE= 3.881348948905D+02
 No NMR shielding tensors so no spin-rotation constants.
 Leave Link  601 at Mon Jul 19 21:08:34 2021, MaxMem=   524288000 cpu:               1.6 elap:               0.6
 (Enter /opt/gaussian/g16_legacy/l9999.exe)
 1\1\GINC-TRUENO91\FOpt\RM062X\6-31G(d,p)\C10H18\JRAMOS\19-Jul-2021\0\\
 #p opt=loose m062x/6-31g(d,p)\\Conformer number 008. Energy MM = 26.04
 5 kcal/mol\\0,1\C,2.2374798554,1.2579011103,-9.0867933089\H,1.92402152
 81,0.2592675051,-9.4154815356\H,2.1290420827,1.9304140275,-9.944669099
 3\C,3.6885077057,1.2176124131,-8.6455760515\C,4.1840940588,-0.12796023
 24,-8.1858833154\H,5.1840603133,-0.0951566204,-7.7521341973\H,3.498041
 1695,-0.5500203627,-7.4437628137\H,4.203369546,-0.8273852028,-9.030029
 5947\C,4.4189977226,2.3370515552,-8.6721926692\H,3.9285780145,3.236964
 9744,-9.0480367527\C,5.84692467,2.5252948014,-8.2524276586\H,6.3017442
 703,1.6085718536,-7.8748926286\H,6.4544226465,2.8774895743,-9.09312790
 17\H,5.9237349618,3.2857338815,-7.4678417064\C,0.8108352369,-0.8884038
 749,-5.0966989521\H,1.6576193648,-0.4880707345,-4.5348222562\H,-0.0776
 751549,-0.8486627981,-4.4555753642\H,1.0028766335,-1.9481760352,-5.301
 8564502\C,0.5821242866,-0.1282569311,-6.3765862895\C,-0.5734113692,-0.
 6295839998,-7.2013827737\H,-0.701865081,-0.083233,-8.1364387558\H,-0.4
 295469115,-1.6880689786,-7.4470737196\H,-1.5086413646,-0.5644584756,-6
 .6332751855\C,1.3680165005,0.8973830438,-6.7216422187\H,2.1900515949,1
 .1491957092,-6.0509293883\C,1.2810585533,1.7309152873,-7.9707104655\H,
 0.2589168106,1.7465857648,-8.3616388957\H,1.5395223551,2.7668557447,-7
 .7224200514\\Version=EM64L-G16RevA.03\State=1-A\HF=-391.6890093\RMSD=6
 .830e-09\RMSF=1.318e-05\Dipole=-0.0947093,-0.1359623,0.0300557\Quadrup
 ole=0.5945228,0.4790942,-1.073617,1.1667724,0.7041578,-0.7807689\PG=C0
 1 [X(C10H18)]\\@


      TO SUSPECT YOUR OWN MORTALITY IS TO KNOW THE BEGINNING OF TERROR.
      TO LEARN IRREFUTABLY THAT YOU ARE MORTAL IS TO KNOW THE END
      OF TERROR.

                                                  -- JESSICA
                                                     CHILDREN OF DUNE
                                                     BY FRANK HERBERT
 Job cpu time:       0 days  1 hours 52 minutes  9.8 seconds.
 Elapsed time:       0 days  0 hours 29 minutes 30.6 seconds.
 File lengths (MBytes):  RWF=     33 Int=      0 D2E=      0 Chk=      6 Scr=      1
 Normal termination of Gaussian 16 at Mon Jul 19 21:08:35 2021.
