 Entering Gaussian System, Link 0=/opt/gaussian/g16_legacy/g16
 Input=IsoP_pybabel_01_030_gaussian.com
 Output=IsoP_pybabel_01_030_gaussian.log
 Initial command:
 /opt/gaussian/g16_legacy/l1.exe "/scratch-local/jramos/2644951/Gau-31953.inp" -scrdir="/scratch-local/jramos/2644951/"
 Entering Link 1 = /opt/gaussian/g16_legacy/l1.exe PID=     31954.
  
 Copyright (c) 1988,1990,1992,1993,1995,1998,2003,2009,2016,
            Gaussian, Inc.  All Rights Reserved.
  
 This is part of the Gaussian(R) 16 program.  It is based on
 the Gaussian(R) 09 system (copyright 2009, Gaussian, Inc.),
 the Gaussian(R) 03 system (copyright 2003, Gaussian, Inc.),
 the Gaussian(R) 98 system (copyright 1998, Gaussian, Inc.),
 the Gaussian(R) 94 system (copyright 1995, Gaussian, Inc.),
 the Gaussian 92(TM) system (copyright 1992, Gaussian, Inc.),
 the Gaussian 90(TM) system (copyright 1990, Gaussian, Inc.),
 the Gaussian 88(TM) system (copyright 1988, Gaussian, Inc.),
 the Gaussian 86(TM) system (copyright 1986, Carnegie Mellon
 University), and the Gaussian 82(TM) system (copyright 1983,
 Carnegie Mellon University). Gaussian is a federally registered
 trademark of Gaussian, Inc.
  
 This software contains proprietary and confidential information,
 including trade secrets, belonging to Gaussian, Inc.
  
 This software is provided under written license and may be
 used, copied, transmitted, or stored only in accord with that
 written license.
  
 The following legend is applicable only to US Government
 contracts under FAR:
  
                    RESTRICTED RIGHTS LEGEND
  
 Use, reproduction and disclosure by the US Government is
 subject to restrictions as set forth in subparagraphs (a)
 and (c) of the Commercial Computer Software - Restricted
 Rights clause in FAR 52.227-19.
  
 Gaussian, Inc.
 340 Quinnipiac St., Bldg. 40, Wallingford CT 06492
  
  
 ---------------------------------------------------------------
 Warning -- This program may not be used in any manner that
 competes with the business of Gaussian, Inc. or will provide
 assistance to any competitor of Gaussian, Inc.  The licensee
 of this program is prohibited from giving any competitor of
 Gaussian, Inc. access to this program.  By using this program,
 the user acknowledges that Gaussian, Inc. is engaged in the
 business of creating and licensing software in the field of
 computational chemistry and represents and warrants to the
 licensee that it is not a competitor of Gaussian, Inc. and that
 it will not use this program in any manner prohibited above.
 ---------------------------------------------------------------
  

 Cite this work as:
 Gaussian 16, Revision A.03,
 M. J. Frisch, G. W. Trucks, H. B. Schlegel, G. E. Scuseria, 
 M. A. Robb, J. R. Cheeseman, G. Scalmani, V. Barone, 
 G. A. Petersson, H. Nakatsuji, X. Li, M. Caricato, A. V. Marenich, 
 J. Bloino, B. G. Janesko, R. Gomperts, B. Mennucci, H. P. Hratchian, 
 J. V. Ortiz, A. F. Izmaylov, J. L. Sonnenberg, D. Williams-Young, 
 F. Ding, F. Lipparini, F. Egidi, J. Goings, B. Peng, A. Petrone, 
 T. Henderson, D. Ranasinghe, V. G. Zakrzewski, J. Gao, N. Rega, 
 G. Zheng, W. Liang, M. Hada, M. Ehara, K. Toyota, R. Fukuda, 
 J. Hasegawa, M. Ishida, T. Nakajima, Y. Honda, O. Kitao, H. Nakai, 
 T. Vreven, K. Throssell, J. A. Montgomery, Jr., J. E. Peralta, 
 F. Ogliaro, M. J. Bearpark, J. J. Heyd, E. N. Brothers, K. N. Kudin, 
 V. N. Staroverov, T. A. Keith, R. Kobayashi, J. Normand, 
 K. Raghavachari, A. P. Rendell, J. C. Burant, S. S. Iyengar, 
 J. Tomasi, M. Cossi, J. M. Millam, M. Klene, C. Adamo, R. Cammi, 
 J. W. Ochterski, R. L. Martin, K. Morokuma, O. Farkas, 
 J. B. Foresman, and D. J. Fox, Gaussian, Inc., Wallingford CT, 2016.
 
 ******************************************
 Gaussian 16:  EM64L-G16RevA.03 25-Dec-2016
                19-Jul-2021 
 ******************************************
 %chk=IsoP_pybabel_01_030_gaussian.chk
 %nproc=4
 Will use up to    4 processors via shared memory.
 %mem=4000Mb
 -----------------------------
 #p opt=loose m062x/6-31g(d,p)
 -----------------------------
 1/7=-1,18=20,19=15,26=3,38=1/1,3;
 2/9=110,12=2,17=6,18=5,40=1/2;
 3/5=1,6=6,7=101,11=2,25=1,30=1,71=1,74=-55/1,2,3;
 4//1;
 5/5=2,38=5/2;
 6/7=2,8=2,9=2,10=2,28=1/1;
 7//1,2,3,16;
 1/7=-1,18=20,19=15,26=3/3(2);
 2/9=110/2;
 99//99;
 2/9=110/2;
 3/5=1,6=6,7=101,11=2,25=1,30=1,71=1,74=-55/1,2,3;
 4/5=5,16=3,69=1/1;
 5/5=2,38=5/2;
 7//1,2,3,16;
 1/7=-1,18=20,19=15,26=3/3(-5);
 2/9=110/2;
 6/7=2,8=2,9=2,10=2,19=2,28=1/1;
 99/9=1/99;
 Leave Link    1 at Mon Jul 19 21:46:16 2021, MaxMem=   524288000 cpu:               0.2 elap:               0.1
 (Enter /opt/gaussian/g16_legacy/l101.exe)
 -------------------------------------------------
 Conformer number 030. Energy MM = 27.340 kcal/mol
 -------------------------------------------------
 Symbolic Z-matrix:
 Charge =  0 Multiplicity = 1
 C                     2.1809    1.14     -8.8872 
 H                     1.8749    0.0912   -8.9961 
 H                     2.0089    1.5819   -9.8747 
 C                     3.6639    1.2043   -8.5585 
 C                     4.3797    2.4743   -8.9406 
 H                     5.4195    2.2922   -9.2261 
 H                     3.9096    2.9459   -9.809 
 H                     4.3695    3.1879   -8.111 
 C                     4.2742    0.152    -7.9795 
 H                     3.6848   -0.7355   -7.7572 
 C                     5.7033    0.0662   -7.5469 
 H                     6.2611    0.9925   -7.6983 
 H                     5.7437   -0.1697   -6.4792 
 H                     6.2098   -0.734    -8.0949 
 C                     1.8785    5.6443   -8.0575 
 H                     2.2616    5.6968   -7.0336 
 H                     2.6843    5.9609   -8.7281 
 H                     1.0521    6.3562   -8.1428 
 C                     1.4219    4.2604   -8.4237 
 C                     0.8939    4.1125   -9.8242 
 H                     0.2196    3.2558   -9.9251 
 H                     0.3226    4.9992   -10.119 
 H                     1.7225    3.9908   -10.5305 
 C                     1.5391    3.2384   -7.552 
 H                     1.9378    3.4401   -6.5614 
 C                     1.2688    1.7848   -7.8293 
 H                     1.3826    1.2341   -6.8845 
 H                     0.2168    1.6557   -8.1174 
 
 ITRead=  0  0  0  0  0  0  0  0  0  0  0  0  0  0  0  0  0  0  0  0
 ITRead=  0  0  0  0  0  0  0  0
 MicOpt= -1 -1 -1 -1 -1 -1 -1 -1 -1 -1 -1 -1 -1 -1 -1 -1 -1 -1 -1 -1
 MicOpt= -1 -1 -1 -1 -1 -1 -1 -1
 NAtoms=     28 NQM=       28 NQMF=       0 NMMI=      0 NMMIF=      0
                NMic=       0 NMicF=      0.
                    Isotopes and Nuclear Properties:
 (Nuclear quadrupole moments (NQMom) in fm**2, nuclear magnetic moments (NMagM)
  in nuclear magnetons)

  Atom         1           2           3           4           5           6           7           8           9          10
 IAtWgt=          12           1           1          12          12           1           1           1          12           1
 AtmWgt=  12.0000000   1.0078250   1.0078250  12.0000000  12.0000000   1.0078250   1.0078250   1.0078250  12.0000000   1.0078250
 NucSpn=           0           1           1           0           0           1           1           1           0           1
 AtZEff=  -0.0000000  -0.0000000  -0.0000000  -0.0000000  -0.0000000  -0.0000000  -0.0000000  -0.0000000  -0.0000000  -0.0000000
 NQMom=    0.0000000   0.0000000   0.0000000   0.0000000   0.0000000   0.0000000   0.0000000   0.0000000   0.0000000   0.0000000
 NMagM=    0.0000000   2.7928460   2.7928460   0.0000000   0.0000000   2.7928460   2.7928460   2.7928460   0.0000000   2.7928460
 AtZNuc=   6.0000000   1.0000000   1.0000000   6.0000000   6.0000000   1.0000000   1.0000000   1.0000000   6.0000000   1.0000000

  Atom        11          12          13          14          15          16          17          18          19          20
 IAtWgt=          12           1           1           1          12           1           1           1          12          12
 AtmWgt=  12.0000000   1.0078250   1.0078250   1.0078250  12.0000000   1.0078250   1.0078250   1.0078250  12.0000000  12.0000000
 NucSpn=           0           1           1           1           0           1           1           1           0           0
 AtZEff=  -0.0000000  -0.0000000  -0.0000000  -0.0000000  -0.0000000  -0.0000000  -0.0000000  -0.0000000  -0.0000000  -0.0000000
 NQMom=    0.0000000   0.0000000   0.0000000   0.0000000   0.0000000   0.0000000   0.0000000   0.0000000   0.0000000   0.0000000
 NMagM=    0.0000000   2.7928460   2.7928460   2.7928460   0.0000000   2.7928460   2.7928460   2.7928460   0.0000000   0.0000000
 AtZNuc=   6.0000000   1.0000000   1.0000000   1.0000000   6.0000000   1.0000000   1.0000000   1.0000000   6.0000000   6.0000000

  Atom        21          22          23          24          25          26          27          28
 IAtWgt=           1           1           1          12           1          12           1           1
 AtmWgt=   1.0078250   1.0078250   1.0078250  12.0000000   1.0078250  12.0000000   1.0078250   1.0078250
 NucSpn=           1           1           1           0           1           0           1           1
 AtZEff=  -0.0000000  -0.0000000  -0.0000000  -0.0000000  -0.0000000  -0.0000000  -0.0000000  -0.0000000
 NQMom=    0.0000000   0.0000000   0.0000000   0.0000000   0.0000000   0.0000000   0.0000000   0.0000000
 NMagM=    2.7928460   2.7928460   2.7928460   0.0000000   2.7928460   0.0000000   2.7928460   2.7928460
 AtZNuc=   1.0000000   1.0000000   1.0000000   6.0000000   1.0000000   6.0000000   1.0000000   1.0000000
 Leave Link  101 at Mon Jul 19 21:46:16 2021, MaxMem=   524288000 cpu:               1.0 elap:               0.3
 (Enter /opt/gaussian/g16_legacy/l103.exe)

 GradGradGradGradGradGradGradGradGradGradGradGradGradGradGradGradGradGrad
 Berny optimization.
 Initialization pass.
                           ----------------------------
                           !    Initial Parameters    !
                           ! (Angstroms and Degrees)  !
 --------------------------                            --------------------------
 ! Name  Definition              Value          Derivative Info.                !
 --------------------------------------------------------------------------------
 ! R1    R(1,2)                  1.0979         estimate D2E/DX2                !
 ! R2    R(1,3)                  1.0955         estimate D2E/DX2                !
 ! R3    R(1,4)                  1.5204         estimate D2E/DX2                !
 ! R4    R(1,26)                 1.5385         estimate D2E/DX2                !
 ! R5    R(4,5)                  1.5071         estimate D2E/DX2                !
 ! R6    R(4,9)                  1.3472         estimate D2E/DX2                !
 ! R7    R(5,6)                  1.0936         estimate D2E/DX2                !
 ! R8    R(5,7)                  1.0943         estimate D2E/DX2                !
 ! R9    R(5,8)                  1.0943         estimate D2E/DX2                !
 ! R10   R(9,10)                 1.0883         estimate D2E/DX2                !
 ! R11   R(9,11)                 1.4956         estimate D2E/DX2                !
 ! R12   R(11,12)                1.0918         estimate D2E/DX2                !
 ! R13   R(11,13)                1.0942         estimate D2E/DX2                !
 ! R14   R(11,14)                1.0942         estimate D2E/DX2                !
 ! R15   R(15,16)                1.0945         estimate D2E/DX2                !
 ! R16   R(15,17)                1.0951         estimate D2E/DX2                !
 ! R17   R(15,18)                1.0941         estimate D2E/DX2                !
 ! R18   R(15,19)                1.5026         estimate D2E/DX2                !
 ! R19   R(19,20)                1.504          estimate D2E/DX2                !
 ! R20   R(19,24)                1.3484         estimate D2E/DX2                !
 ! R21   R(20,21)                1.0949         estimate D2E/DX2                !
 ! R22   R(20,22)                1.0952         estimate D2E/DX2                !
 ! R23   R(20,23)                1.0956         estimate D2E/DX2                !
 ! R24   R(24,25)                1.0867         estimate D2E/DX2                !
 ! R25   R(24,26)                1.5043         estimate D2E/DX2                !
 ! R26   R(26,27)                1.0995         estimate D2E/DX2                !
 ! R27   R(26,28)                1.0983         estimate D2E/DX2                !
 ! A1    A(2,1,3)              104.6059         estimate D2E/DX2                !
 ! A2    A(2,1,4)              109.4935         estimate D2E/DX2                !
 ! A3    A(2,1,26)             107.6578         estimate D2E/DX2                !
 ! A4    A(3,1,4)              109.3288         estimate D2E/DX2                !
 ! A5    A(3,1,26)             110.9599         estimate D2E/DX2                !
 ! A6    A(4,1,26)             114.3248         estimate D2E/DX2                !
 ! A7    A(1,4,5)              116.3668         estimate D2E/DX2                !
 ! A8    A(1,4,9)              120.1162         estimate D2E/DX2                !
 ! A9    A(5,4,9)              123.5055         estimate D2E/DX2                !
 ! A10   A(4,5,6)              112.1777         estimate D2E/DX2                !
 ! A11   A(4,5,7)              111.1201         estimate D2E/DX2                !
 ! A12   A(4,5,8)              110.6634         estimate D2E/DX2                !
 ! A13   A(6,5,7)              105.8461         estimate D2E/DX2                !
 ! A14   A(6,5,8)              108.383          estimate D2E/DX2                !
 ! A15   A(7,5,8)              108.4551         estimate D2E/DX2                !
 ! A16   A(4,9,10)             118.6463         estimate D2E/DX2                !
 ! A17   A(4,9,11)             127.0117         estimate D2E/DX2                !
 ! A18   A(10,9,11)            114.3066         estimate D2E/DX2                !
 ! A19   A(9,11,12)            113.5399         estimate D2E/DX2                !
 ! A20   A(9,11,13)            109.2622         estimate D2E/DX2                !
 ! A21   A(9,11,14)            109.8415         estimate D2E/DX2                !
 ! A22   A(12,11,13)           107.4187         estimate D2E/DX2                !
 ! A23   A(12,11,14)           108.3317         estimate D2E/DX2                !
 ! A24   A(13,11,14)           108.2976         estimate D2E/DX2                !
 ! A25   A(16,15,17)           107.5444         estimate D2E/DX2                !
 ! A26   A(16,15,18)           107.8252         estimate D2E/DX2                !
 ! A27   A(16,15,19)           112.2433         estimate D2E/DX2                !
 ! A28   A(17,15,18)           108.6589         estimate D2E/DX2                !
 ! A29   A(17,15,19)           109.9151         estimate D2E/DX2                !
 ! A30   A(18,15,19)           110.5336         estimate D2E/DX2                !
 ! A31   A(15,19,20)           115.0993         estimate D2E/DX2                !
 ! A32   A(15,19,24)           120.9384         estimate D2E/DX2                !
 ! A33   A(20,19,24)           123.9157         estimate D2E/DX2                !
 ! A34   A(19,20,21)           112.2692         estimate D2E/DX2                !
 ! A35   A(19,20,22)           110.7414         estimate D2E/DX2                !
 ! A36   A(19,20,23)           110.2264         estimate D2E/DX2                !
 ! A37   A(21,20,22)           106.7036         estimate D2E/DX2                !
 ! A38   A(21,20,23)           108.6302         estimate D2E/DX2                !
 ! A39   A(22,20,23)           108.1149         estimate D2E/DX2                !
 ! A40   A(19,24,25)           118.7195         estimate D2E/DX2                !
 ! A41   A(19,24,26)           126.6997         estimate D2E/DX2                !
 ! A42   A(25,24,26)           114.413          estimate D2E/DX2                !
 ! A43   A(1,26,24)            115.1649         estimate D2E/DX2                !
 ! A44   A(1,26,27)            108.6391         estimate D2E/DX2                !
 ! A45   A(1,26,28)            109.7682         estimate D2E/DX2                !
 ! A46   A(24,26,27)           107.8778         estimate D2E/DX2                !
 ! A47   A(24,26,28)           109.5138         estimate D2E/DX2                !
 ! A48   A(27,26,28)           105.4063         estimate D2E/DX2                !
 ! D1    D(2,1,4,5)            154.7637         estimate D2E/DX2                !
 ! D2    D(2,1,4,9)            -24.0436         estimate D2E/DX2                !
 ! D3    D(3,1,4,5)             40.7067         estimate D2E/DX2                !
 ! D4    D(3,1,4,9)           -138.1007         estimate D2E/DX2                !
 ! D5    D(26,1,4,5)           -84.3629         estimate D2E/DX2                !
 ! D6    D(26,1,4,9)            96.8298         estimate D2E/DX2                !
 ! D7    D(2,1,26,24)         -179.6331         estimate D2E/DX2                !
 ! D8    D(2,1,26,27)           59.2743         estimate D2E/DX2                !
 ! D9    D(2,1,26,28)          -55.5065         estimate D2E/DX2                !
 ! D10   D(3,1,26,24)          -65.7214         estimate D2E/DX2                !
 ! D11   D(3,1,26,27)          173.186          estimate D2E/DX2                !
 ! D12   D(3,1,26,28)           58.4052         estimate D2E/DX2                !
 ! D13   D(4,1,26,24)           58.4819         estimate D2E/DX2                !
 ! D14   D(4,1,26,27)          -62.6107         estimate D2E/DX2                !
 ! D15   D(4,1,26,28)         -177.3914         estimate D2E/DX2                !
 ! D16   D(1,4,5,6)           -147.0665         estimate D2E/DX2                !
 ! D17   D(1,4,5,7)            -28.8007         estimate D2E/DX2                !
 ! D18   D(1,4,5,8)             91.7544         estimate D2E/DX2                !
 ! D19   D(9,4,5,6)             31.6963         estimate D2E/DX2                !
 ! D20   D(9,4,5,7)            149.962          estimate D2E/DX2                !
 ! D21   D(9,4,5,8)            -89.4828         estimate D2E/DX2                !
 ! D22   D(1,4,9,10)             0.0871         estimate D2E/DX2                !
 ! D23   D(1,4,9,11)          -177.6138         estimate D2E/DX2                !
 ! D24   D(5,4,9,10)          -178.6313         estimate D2E/DX2                !
 ! D25   D(5,4,9,11)             3.6677         estimate D2E/DX2                !
 ! D26   D(4,9,11,12)            2.7027         estimate D2E/DX2                !
 ! D27   D(4,9,11,13)          122.5787         estimate D2E/DX2                !
 ! D28   D(4,9,11,14)         -118.7582         estimate D2E/DX2                !
 ! D29   D(10,9,11,12)        -175.0835         estimate D2E/DX2                !
 ! D30   D(10,9,11,13)         -55.2075         estimate D2E/DX2                !
 ! D31   D(10,9,11,14)          63.4556         estimate D2E/DX2                !
 ! D32   D(16,15,19,20)       -179.4661         estimate D2E/DX2                !
 ! D33   D(16,15,19,24)         -1.8549         estimate D2E/DX2                !
 ! D34   D(17,15,19,20)        -59.8251         estimate D2E/DX2                !
 ! D35   D(17,15,19,24)        117.7861         estimate D2E/DX2                !
 ! D36   D(18,15,19,20)         60.1132         estimate D2E/DX2                !
 ! D37   D(18,15,19,24)       -122.2756         estimate D2E/DX2                !
 ! D38   D(15,19,20,21)       -156.6677         estimate D2E/DX2                !
 ! D39   D(15,19,20,22)        -37.5119         estimate D2E/DX2                !
 ! D40   D(15,19,20,23)         82.0821         estimate D2E/DX2                !
 ! D41   D(24,19,20,21)         25.8013         estimate D2E/DX2                !
 ! D42   D(24,19,20,22)        144.9571         estimate D2E/DX2                !
 ! D43   D(24,19,20,23)        -95.4488         estimate D2E/DX2                !
 ! D44   D(15,19,24,25)          2.2273         estimate D2E/DX2                !
 ! D45   D(15,19,24,26)       -172.7829         estimate D2E/DX2                !
 ! D46   D(20,19,24,25)        179.6205         estimate D2E/DX2                !
 ! D47   D(20,19,24,26)          4.6103         estimate D2E/DX2                !
 ! D48   D(19,24,26,1)          62.9988         estimate D2E/DX2                !
 ! D49   D(19,24,26,27)       -175.4955         estimate D2E/DX2                !
 ! D50   D(19,24,26,28)        -61.2614         estimate D2E/DX2                !
 ! D51   D(25,24,26,1)        -112.196          estimate D2E/DX2                !
 ! D52   D(25,24,26,27)          9.3097         estimate D2E/DX2                !
 ! D53   D(25,24,26,28)        123.5438         estimate D2E/DX2                !
 --------------------------------------------------------------------------------
 Trust Radius=3.00D-01 FncErr=1.00D-07 GrdErr=1.00D-06 EigMax=2.50D+02 EigMin=1.00D-04
 Number of steps in this run=    138 maximum allowed number of steps=    168.
 GradGradGradGradGradGradGradGradGradGradGradGradGradGradGradGradGradGrad

 Leave Link  103 at Mon Jul 19 21:46:16 2021, MaxMem=   524288000 cpu:               0.1 elap:               0.1
 (Enter /opt/gaussian/g16_legacy/l202.exe)
                          Input orientation:                          
 ---------------------------------------------------------------------
 Center     Atomic      Atomic             Coordinates (Angstroms)
 Number     Number       Type             X           Y           Z
 ---------------------------------------------------------------------
      1          6           0        2.180900    1.140000   -8.887200
      2          1           0        1.874900    0.091200   -8.996100
      3          1           0        2.008900    1.581900   -9.874700
      4          6           0        3.663900    1.204300   -8.558500
      5          6           0        4.379700    2.474300   -8.940600
      6          1           0        5.419500    2.292200   -9.226100
      7          1           0        3.909600    2.945900   -9.809000
      8          1           0        4.369500    3.187900   -8.111000
      9          6           0        4.274200    0.152000   -7.979500
     10          1           0        3.684800   -0.735500   -7.757200
     11          6           0        5.703300    0.066200   -7.546900
     12          1           0        6.261100    0.992500   -7.698300
     13          1           0        5.743700   -0.169700   -6.479200
     14          1           0        6.209800   -0.734000   -8.094900
     15          6           0        1.878500    5.644300   -8.057500
     16          1           0        2.261600    5.696800   -7.033600
     17          1           0        2.684300    5.960900   -8.728100
     18          1           0        1.052100    6.356200   -8.142800
     19          6           0        1.421900    4.260400   -8.423700
     20          6           0        0.893900    4.112500   -9.824200
     21          1           0        0.219600    3.255800   -9.925100
     22          1           0        0.322600    4.999200  -10.119000
     23          1           0        1.722500    3.990800  -10.530500
     24          6           0        1.539100    3.238400   -7.552000
     25          1           0        1.937800    3.440100   -6.561400
     26          6           0        1.268800    1.784800   -7.829300
     27          1           0        1.382600    1.234100   -6.884500
     28          1           0        0.216800    1.655700   -8.117400
 ---------------------------------------------------------------------
                    Distance matrix (angstroms):
                    1          2          3          4          5
     1  C    0.000000
     2  H    1.097942   0.000000
     3  H    1.095452   1.735535   0.000000
     4  C    1.520351   2.151977   2.148020   0.000000
     5  C    2.572534   3.457784   2.699928   1.507073   0.000000
     6  H    3.454120   4.178695   3.543642   2.170564   1.093551
     7  H    2.664469   3.598628   2.340400   2.158075   1.094312
     8  H    3.096183   4.073817   3.355936   2.152393   1.094333
     9  C    2.486356   2.606494   3.281460   1.347235   2.515536
    10  H    2.656335   2.343938   3.558481   2.098891   3.490865
    11  C    3.918769   4.093587   4.622185   2.545144   3.081114
    12  H    4.252443   4.662122   4.813036   2.744130   2.697908
    13  H    4.495255   4.622820   5.342869   3.246064   3.861311
    14  H    4.513496   4.503829   5.116507   3.233193   3.789151
    15  C    4.590051   5.631865   4.452226   4.811679   4.133372
    16  H    4.920038   5.951781   5.006806   4.947153   4.302035
    17  H    4.849722   5.931301   4.576734   4.859385   3.882772
    18  H    5.388605   6.376154   5.168064   5.791060   5.174800
    19  C    3.244659   4.232621   3.102311   3.792688   3.493697
    20  C    3.371957   4.221252   2.765811   4.211000   3.951614
    21  H    3.066031   3.690224   2.450730   4.235499   4.345850
    22  H    4.456909   5.268681   3.818538   5.291570   4.921769
    23  H    3.322292   4.193386   2.512946   3.927136   3.447936
    24  C    2.568647   3.478944   2.891304   3.108919   3.252855
    25  H    3.280077   4.140876   3.799463   3.459282   3.543478
    26  C    1.538456   2.144076   2.184623   2.570062   3.374625
    27  H    2.157996   2.451007   3.074819   2.829752   3.840345
    28  H    2.171688   2.443168   2.511010   3.504401   4.321747
                    6          7          8          9         10
     6  H    0.000000
     7  H    1.745535   0.000000
     8  H    1.774324   1.775747   0.000000
     9  C    2.728769   3.359446   3.040241   0.000000
    10  H    3.786003   4.220560   3.998382   1.088332   0.000000
    11  C    2.802736   4.077638   3.441256   1.495604   2.182038
    12  H    2.175243   3.714886   2.927158   2.175611   3.102704
    13  H    3.702907   4.915125   3.978024   2.124576   2.488470
    14  H    3.325970   4.665911   4.332235   2.131868   2.547483
    15  C    5.014068   3.804534   3.498835   5.992564   6.637375
    16  H    5.135240   4.241014   3.449437   5.974119   6.627487
    17  H    4.603117   3.429275   3.303065   6.068896   6.839987
    18  H    6.063317   4.750966   4.587404   6.992903   7.574431
    19  C    4.527523   3.136179   3.152203   5.021143   5.524849
    20  C    4.914496   3.233517   3.983684   5.524030   5.963616
    21  H    5.334425   3.704810   4.529596   5.464313   5.712957
    22  H    5.839821   4.144721   4.867265   6.609686   7.054734
    23  H    4.272530   2.528989   3.674947   5.268317   5.820629
    24  C    4.330752   3.286164   2.885515   4.146009   4.520842
    25  H    4.532167   3.831336   2.894483   4.275672   4.681622
    26  C    4.408720   3.498741   3.415023   3.423598   3.492015
    27  H    4.785314   4.227137   3.774018   3.275869   3.152944
    28  H    5.357465   4.261795   4.426352   4.329275   4.227837
                   11         12         13         14         15
    11  C    0.000000
    12  H    1.091831   0.000000
    13  H    1.094196   1.761992   0.000000
    14  H    1.094151   1.772209   1.773745   0.000000
    15  C    6.782699   6.401207   7.157751   7.710011   0.000000
    16  H    6.619096   6.210335   6.844575   7.620356   1.094483
    17  H    6.727338   6.207978   7.211223   7.592877   1.095104
    18  H    7.845563   7.490029   8.207682   8.767845   1.094082
    19  C    6.057267   5.884151   6.487282   6.926480   1.502586
    20  C    6.684981   6.562064   7.283325   7.398502   2.537140
    21  H    6.774980   6.825019   7.356899   7.426347   3.456127
    22  H    7.739646   7.561694   8.327905   8.463196   2.662097
    23  H    6.336491   6.132703   7.063486   6.956417   2.978947
    24  C    5.234830   5.230942   5.517672   6.155497   2.481749
    25  H    5.151058   5.096490   5.246169   6.166418   2.664644
    26  C    4.764255   5.056477   5.066317   5.552331   3.914020
    27  H    4.524512   4.951808   4.599360   5.351668   4.590393
    28  H    5.740528   6.095001   6.046686   6.451916   4.321315
                   16         17         18         19         20
    16  H    0.000000
    17  H    1.766283   0.000000
    18  H    1.768622   1.778459   0.000000
    19  C    2.168114   2.139629   2.146633   0.000000
    20  C    3.488274   2.797061   2.808260   1.504014   0.000000
    21  H    4.299886   3.850340   3.671802   2.170011   1.094896
    22  H    3.710264   2.904668   2.505790   2.151355   1.095229
    23  H    3.928024   2.838133   3.427195   2.145146   1.095559
    24  C    2.614283   3.179104   3.210435   1.348362   2.518576
    25  H    2.328200   3.406800   3.433501   2.099335   3.491090
    26  C    4.113701   4.500144   4.587258   2.550558   3.088424
    27  H    4.550886   5.237931   5.284738   3.395464   4.143169
    28  H    4.656857   4.999626   4.774209   2.886269   3.067164
                   21         22         23         24         25
    21  H    0.000000
    22  H    1.757171   0.000000
    23  H    1.779169   1.773675   0.000000
    24  C    2.715324   3.342122   3.077532   0.000000
    25  H    3.781621   4.206683   4.012902   1.086707   0.000000
    26  C    2.767136   4.058373   3.516925   1.504297   2.189783
    27  H    3.832113   5.075586   4.583475   2.118317   2.297624
    28  H    2.414147   3.898280   3.680065   2.138479   2.926954
                   26         27         28
    26  C    0.000000
    27  H    1.099485   0.000000
    28  H    1.098350   1.748393   0.000000
 Stoichiometry    C10H18
 Framework group  C1[X(C10H18)]
 Deg. of freedom    78
 Full point group                 C1      NOp   1
 Largest Abelian subgroup         C1      NOp   1
 Largest concise Abelian subgroup C1      NOp   1
                         Standard orientation:                         
 ---------------------------------------------------------------------
 Center     Atomic      Atomic             Coordinates (Angstroms)
 Number     Number       Type             X           Y           Z
 ---------------------------------------------------------------------
      1          6           0        0.570801    1.317011    0.465280
      2          1           0        1.163494    2.235685    0.566420
      3          1           0        0.004638    1.249158    1.400625
      4          6           0        1.503253    0.121382    0.353599
      5          6           0        0.942431   -1.207807    0.789495
      6          1           0        1.706956   -1.854106    1.229555
      7          1           0        0.178776   -1.079123    1.562664
      8          1           0        0.492142   -1.733609   -0.058053
      9          6           0        2.763874    0.286574   -0.092032
     10          1           0        3.093734    1.287039   -0.365399
     11          6           0        3.789228   -0.780419   -0.308844
     12          1           0        3.418302   -1.788186   -0.111576
     13          1           0        4.124389   -0.752727   -1.350076
     14          1           0        4.654878   -0.600055    0.335582
     15          6           0       -2.957186   -1.433703   -0.562069
     16          1           0       -2.629779   -1.848320   -1.520605
     17          1           0       -2.768449   -2.190457    0.206667
     18          1           0       -4.035415   -1.258651   -0.623664
     19          6           0       -2.235661   -0.161849   -0.216301
     20          6           0       -2.627972    0.457407    1.096966
     21          1           0       -2.414727    1.530837    1.129691
     22          1           0       -3.703006    0.344510    1.273271
     23          1           0       -2.094680   -0.030617    1.920180
     24          6           0       -1.275744    0.332178   -1.024124
     25          1           0       -1.056306   -0.187643   -1.952868
     26          6           0       -0.371964    1.499844   -0.736641
     27          1           0        0.235076    1.685834   -1.634293
     28          1           0       -0.976385    2.406707   -0.600087
 ---------------------------------------------------------------------
 Rotational constants (GHZ):           2.3067832           0.6543418           0.6010701
 Leave Link  202 at Mon Jul 19 21:46:17 2021, MaxMem=   524288000 cpu:               0.1 elap:               0.1
 (Enter /opt/gaussian/g16_legacy/l301.exe)
 Standard basis: 6-31G(d,p) (6D, 7F)
 Ernie: Thresh=  0.10000D-02 Tol=  0.10000D-05 Strict=F.
 There are   240 symmetry adapted cartesian basis functions of A   symmetry.
 There are   240 symmetry adapted basis functions of A   symmetry.
   240 basis functions,   406 primitive gaussians,   240 cartesian basis functions
    39 alpha electrons       39 beta electrons
       nuclear repulsion energy       532.6326412883 Hartrees.
 IExCor= 4336 DFT=T Ex+Corr=M062X ExCW=0 ScaHFX=  0.540000
 ScaDFX=  1.000000  1.000000  1.000000  1.000000 ScalE2=  1.000000  1.000000
 IRadAn=      5 IRanWt=     -1 IRanGd=            0 ICorTp=0 IEmpDi=  4
 NAtoms=   28 NActive=   28 NUniq=   28 SFac= 1.00D+00 NAtFMM=   60 NAOKFM=F Big=F
 Integral buffers will be    131072 words long.
 Raffenetti 2 integral format.
 Two-electron integral symmetry is turned on.
 Leave Link  301 at Mon Jul 19 21:46:17 2021, MaxMem=   524288000 cpu:               0.9 elap:               0.4
 (Enter /opt/gaussian/g16_legacy/l302.exe)
 NPDir=0 NMtPBC=     1 NCelOv=     1 NCel=       1 NClECP=     1 NCelD=      1
         NCelK=      1 NCelE2=     1 NClLst=     1 CellRange=     0.0.
 One-electron integrals computed using PRISM.
 One-electron integral symmetry used in STVInt
 NBasis=   240 RedAO= T EigKep=  2.32D-03  NBF=   240
 NBsUse=   240 1.00D-06 EigRej= -1.00D+00 NBFU=   240
 Precomputing XC quadrature grid using
 IXCGrd= 4 IRadAn=           5 IRanWt=          -1 IRanGd=           0 AccXCQ= 0.00D+00.
 Generated NRdTot=       0 NPtTot=           0 NUsed=           0 NTot=          32
 NSgBfM=   240   240   240   240   240 MxSgAt=    28 MxSgA2=    28.
 Leave Link  302 at Mon Jul 19 21:46:19 2021, MaxMem=   524288000 cpu:               4.2 elap:               1.7
 (Enter /opt/gaussian/g16_legacy/l303.exe)
 DipDrv:  MaxL=1.
 Leave Link  303 at Mon Jul 19 21:46:20 2021, MaxMem=   524288000 cpu:               0.2 elap:               0.1
 (Enter /opt/gaussian/g16_legacy/l401.exe)
 ExpMin= 1.61D-01 ExpMax= 3.05D+03 ExpMxC= 4.57D+02 IAcc=3 IRadAn=         5 AccDes= 0.00D+00
 Harris functional with IExCor= 1009 and IRadAn=       5 diagonalized for initial guess.
 HarFok:  IExCor= 1009 AccDes= 0.00D+00 IRadAn=         5 IDoV= 1 UseB2=F ITyADJ=14
 ICtDFT=  3500011 ScaDFX=  1.000000  1.000000  1.000000  1.000000
 FoFCou: FMM=F IPFlag=           0 FMFlag=      100000 FMFlg1=           0
         NFxFlg=           0 DoJE=T BraDBF=F KetDBF=T FulRan=T
         wScrn=  0.000000 ICntrl=       500 IOpCl=  0 I1Cent=   200000004 NGrid=           0
         NMat0=    1 NMatS0=      1 NMatT0=    0 NMatD0=    1 NMtDS0=    0 NMtDT0=    0
 Petite list used in FoFCou.
 Harris En= -391.650100137204    
 JPrj=0 DoOrth=F DoCkMO=F.
 Leave Link  401 at Mon Jul 19 21:46:25 2021, MaxMem=   524288000 cpu:              20.7 elap:               5.4
 (Enter /opt/gaussian/g16_legacy/l502.exe)
 Keep R1 ints in memory in canonical form, NReq=425198025.
 FoFCou: FMM=F IPFlag=           0 FMFlag=           0 FMFlg1=           0
         NFxFlg=           0 DoJE=F BraDBF=F KetDBF=F FulRan=T
         wScrn=  0.000000 ICntrl=       600 IOpCl=  0 I1Cent=           0 NGrid=           0
         NMat0=    1 NMatS0=  28920 NMatT0=    0 NMatD0=    1 NMtDS0=    0 NMtDT0=    0
 Symmetry not used in FoFCou.
 Two-electron integral symmetry not used.
 Closed shell SCF:
 Using DIIS extrapolation, IDIIS=  1040.
 NGot=   524288000 LenX=   105970886 LenY=   105912845
 Requested convergence on RMS density matrix=1.00D-08 within 128 cycles.
 Requested convergence on MAX density matrix=1.00D-06.
 Requested convergence on             energy=1.00D-06.
 No special actions if energy rises.
 Integral accuracy reduced to 1.0D-05 until final iterations.

 Cycle   1  Pass 0  IDiag  1:
 E= -391.293251719150    
 DIIS: error= 2.84D-02 at cycle   1 NSaved=   1.
 NSaved= 1 IEnMin= 1 EnMin= -391.293251719150     IErMin= 1 ErrMin= 2.84D-02
 ErrMax= 2.84D-02  0.00D+00 EMaxC= 1.00D-01 BMatC= 3.73D-01 BMatP= 3.73D-01
 IDIUse=3 WtCom= 7.16D-01 WtEn= 2.84D-01
 Coeff-Com:  0.100D+01
 Coeff-En:   0.100D+01
 Coeff:      0.100D+01
 Gap=     0.337 Goal=   None    Shift=    0.000
 GapD=    0.337 DampG=1.000 DampE=0.500 DampFc=0.5000 IDamp=-1.
 Damping current iteration by 5.00D-01
 RMSDP=4.48D-03 MaxDP=1.14D-01              OVMax= 1.41D-01

 Cycle   2  Pass 0  IDiag  1:
 E= -391.501896773295     Delta-E=       -0.208645054145 Rises=F Damp=T
 DIIS: error= 1.13D-02 at cycle   2 NSaved=   2.
 NSaved= 2 IEnMin= 2 EnMin= -391.501896773295     IErMin= 2 ErrMin= 1.13D-02
 ErrMax= 1.13D-02  0.00D+00 EMaxC= 1.00D-01 BMatC= 2.13D-02 BMatP= 3.73D-01
 IDIUse=3 WtCom= 8.87D-01 WtEn= 1.13D-01
 Coeff-Com: -0.140D+00 0.114D+01
 Coeff-En:   0.000D+00 0.100D+01
 Coeff:     -0.124D+00 0.112D+01
 Gap=     0.354 Goal=   None    Shift=    0.000
 RMSDP=9.14D-04 MaxDP=2.65D-02 DE=-2.09D-01 OVMax= 6.68D-02

 Cycle   3  Pass 0  IDiag  1:
 E= -391.683824785920     Delta-E=       -0.181928012624 Rises=F Damp=F
 DIIS: error= 1.52D-03 at cycle   3 NSaved=   3.
 NSaved= 3 IEnMin= 3 EnMin= -391.683824785920     IErMin= 3 ErrMin= 1.52D-03
 ErrMax= 1.52D-03  0.00D+00 EMaxC= 1.00D-01 BMatC= 1.43D-03 BMatP= 2.13D-02
 IDIUse=3 WtCom= 9.85D-01 WtEn= 1.52D-02
 Coeff-Com: -0.368D-01 0.191D+00 0.846D+00
 Coeff-En:   0.000D+00 0.000D+00 0.100D+01
 Coeff:     -0.363D-01 0.188D+00 0.848D+00
 Gap=     0.332 Goal=   None    Shift=    0.000
 RMSDP=2.89D-04 MaxDP=8.95D-03 DE=-1.82D-01 OVMax= 1.73D-02

 Cycle   4  Pass 0  IDiag  1:
 E= -391.684442732522     Delta-E=       -0.000617946602 Rises=F Damp=F
 DIIS: error= 1.49D-03 at cycle   4 NSaved=   4.
 NSaved= 4 IEnMin= 4 EnMin= -391.684442732522     IErMin= 4 ErrMin= 1.49D-03
 ErrMax= 1.49D-03  0.00D+00 EMaxC= 1.00D-01 BMatC= 7.92D-04 BMatP= 1.43D-03
 IDIUse=3 WtCom= 9.85D-01 WtEn= 1.49D-02
 Coeff-Com: -0.104D-01 0.431D-01 0.436D+00 0.531D+00
 Coeff-En:   0.000D+00 0.000D+00 0.350D+00 0.650D+00
 Coeff:     -0.102D-01 0.424D-01 0.435D+00 0.533D+00
 Gap=     0.332 Goal=   None    Shift=    0.000
 RMSDP=1.32D-04 MaxDP=5.99D-03 DE=-6.18D-04 OVMax= 1.15D-02

 Cycle   5  Pass 0  IDiag  1:
 E= -391.685195400573     Delta-E=       -0.000752668051 Rises=F Damp=F
 DIIS: error= 3.56D-04 at cycle   5 NSaved=   5.
 NSaved= 5 IEnMin= 5 EnMin= -391.685195400573     IErMin= 5 ErrMin= 3.56D-04
 ErrMax= 3.56D-04  0.00D+00 EMaxC= 1.00D-01 BMatC= 4.45D-05 BMatP= 7.92D-04
 IDIUse=3 WtCom= 9.96D-01 WtEn= 3.56D-03
 Coeff-Com: -0.312D-03 0.679D-03 0.114D+00 0.242D+00 0.644D+00
 Coeff-En:   0.000D+00 0.000D+00 0.000D+00 0.000D+00 0.100D+01
 Coeff:     -0.311D-03 0.677D-03 0.114D+00 0.241D+00 0.645D+00
 Gap=     0.332 Goal=   None    Shift=    0.000
 RMSDP=2.89D-05 MaxDP=1.29D-03 DE=-7.53D-04 OVMax= 2.36D-03

 Cycle   6  Pass 0  IDiag  1:
 E= -391.685238797877     Delta-E=       -0.000043397304 Rises=F Damp=F
 DIIS: error= 3.71D-05 at cycle   6 NSaved=   6.
 NSaved= 6 IEnMin= 6 EnMin= -391.685238797877     IErMin= 6 ErrMin= 3.71D-05
 ErrMax= 3.71D-05  0.00D+00 EMaxC= 1.00D-01 BMatC= 1.23D-06 BMatP= 4.45D-05
 IDIUse=1 WtCom= 1.00D+00 WtEn= 0.00D+00
 Coeff-Com:  0.797D-03-0.286D-02 0.838D-02 0.424D-01 0.190D+00 0.762D+00
 Coeff:      0.797D-03-0.286D-02 0.838D-02 0.424D-01 0.190D+00 0.762D+00
 Gap=     0.332 Goal=   None    Shift=    0.000
 RMSDP=5.81D-06 MaxDP=2.52D-04 DE=-4.34D-05 OVMax= 3.40D-04

 Initial convergence to 1.0D-05 achieved.  Increase integral accuracy.
 Cycle   7  Pass 1  IDiag  1:
 E= -391.685260078216     Delta-E=       -0.000021280339 Rises=F Damp=F
 DIIS: error= 1.64D-05 at cycle   1 NSaved=   1.
 NSaved= 1 IEnMin= 1 EnMin= -391.685260078216     IErMin= 1 ErrMin= 1.64D-05
 ErrMax= 1.64D-05  0.00D+00 EMaxC= 1.00D-01 BMatC= 2.61D-07 BMatP= 2.61D-07
 IDIUse=1 WtCom= 1.00D+00 WtEn= 0.00D+00
 Coeff-Com:  0.100D+01
 Coeff:      0.100D+01
 Gap=     0.332 Goal=   None    Shift=    0.000
 RMSDP=5.81D-06 MaxDP=2.52D-04 DE=-2.13D-05 OVMax= 2.37D-04

 Cycle   8  Pass 1  IDiag  1:
 E= -391.685260204941     Delta-E=       -0.000000126725 Rises=F Damp=F
 DIIS: error= 1.90D-05 at cycle   2 NSaved=   2.
 NSaved= 2 IEnMin= 2 EnMin= -391.685260204941     IErMin= 1 ErrMin= 1.64D-05
 ErrMax= 1.90D-05  0.00D+00 EMaxC= 1.00D-01 BMatC= 1.69D-07 BMatP= 2.61D-07
 IDIUse=1 WtCom= 1.00D+00 WtEn= 0.00D+00
 Coeff-Com:  0.434D+00 0.566D+00
 Coeff:      0.434D+00 0.566D+00
 Gap=     0.332 Goal=   None    Shift=    0.000
 RMSDP=1.79D-06 MaxDP=1.07D-04 DE=-1.27D-07 OVMax= 1.45D-04

 Cycle   9  Pass 1  IDiag  1:
 E= -391.685260352971     Delta-E=       -0.000000148029 Rises=F Damp=F
 DIIS: error= 6.84D-06 at cycle   3 NSaved=   3.
 NSaved= 3 IEnMin= 3 EnMin= -391.685260352971     IErMin= 3 ErrMin= 6.84D-06
 ErrMax= 6.84D-06  0.00D+00 EMaxC= 1.00D-01 BMatC= 1.34D-08 BMatP= 1.69D-07
 IDIUse=1 WtCom= 1.00D+00 WtEn= 0.00D+00
 Coeff-Com:  0.128D-01 0.206D+00 0.781D+00
 Coeff:      0.128D-01 0.206D+00 0.781D+00
 Gap=     0.332 Goal=   None    Shift=    0.000
 RMSDP=6.14D-07 MaxDP=2.65D-05 DE=-1.48D-07 OVMax= 5.93D-05

 Cycle  10  Pass 1  IDiag  1:
 E= -391.685260364574     Delta-E=       -0.000000011604 Rises=F Damp=F
 DIIS: error= 2.42D-06 at cycle   4 NSaved=   4.
 NSaved= 4 IEnMin= 4 EnMin= -391.685260364574     IErMin= 4 ErrMin= 2.42D-06
 ErrMax= 2.42D-06  0.00D+00 EMaxC= 1.00D-01 BMatC= 2.68D-09 BMatP= 1.34D-08
 IDIUse=1 WtCom= 1.00D+00 WtEn= 0.00D+00
 Coeff-Com: -0.295D-01 0.578D-01 0.411D+00 0.561D+00
 Coeff:     -0.295D-01 0.578D-01 0.411D+00 0.561D+00
 Gap=     0.332 Goal=   None    Shift=    0.000
 RMSDP=2.21D-07 MaxDP=8.06D-06 DE=-1.16D-08 OVMax= 1.44D-05

 Cycle  11  Pass 1  IDiag  1:
 E= -391.685260367323     Delta-E=       -0.000000002749 Rises=F Damp=F
 DIIS: error= 1.97D-07 at cycle   5 NSaved=   5.
 NSaved= 5 IEnMin= 5 EnMin= -391.685260367323     IErMin= 5 ErrMin= 1.97D-07
 ErrMax= 1.97D-07  0.00D+00 EMaxC= 1.00D-01 BMatC= 2.37D-11 BMatP= 2.68D-09
 IDIUse=1 WtCom= 1.00D+00 WtEn= 0.00D+00
 Coeff-Com: -0.468D-02-0.372D-02 0.206D-01 0.729D-01 0.915D+00
 Coeff:     -0.468D-02-0.372D-02 0.206D-01 0.729D-01 0.915D+00
 Gap=     0.332 Goal=   None    Shift=    0.000
 RMSDP=4.13D-08 MaxDP=1.02D-06 DE=-2.75D-09 OVMax= 2.67D-06

 Cycle  12  Pass 1  IDiag  1:
 E= -391.685260367354     Delta-E=       -0.000000000031 Rises=F Damp=F
 DIIS: error= 1.70D-07 at cycle   6 NSaved=   6.
 NSaved= 6 IEnMin= 6 EnMin= -391.685260367354     IErMin= 6 ErrMin= 1.70D-07
 ErrMax= 1.70D-07  0.00D+00 EMaxC= 1.00D-01 BMatC= 9.79D-12 BMatP= 2.37D-11
 IDIUse=1 WtCom= 1.00D+00 WtEn= 0.00D+00
 Coeff-Com:  0.569D-03-0.713D-02-0.266D-01-0.172D-01 0.436D+00 0.615D+00
 Coeff:      0.569D-03-0.713D-02-0.266D-01-0.172D-01 0.436D+00 0.615D+00
 Gap=     0.332 Goal=   None    Shift=    0.000
 RMSDP=1.71D-08 MaxDP=8.79D-07 DE=-3.15D-11 OVMax= 1.67D-06

 Cycle  13  Pass 1  IDiag  1:
 E= -391.685260367371     Delta-E=       -0.000000000017 Rises=F Damp=F
 DIIS: error= 6.38D-08 at cycle   7 NSaved=   7.
 NSaved= 7 IEnMin= 7 EnMin= -391.685260367371     IErMin= 7 ErrMin= 6.38D-08
 ErrMax= 6.38D-08  0.00D+00 EMaxC= 1.00D-01 BMatC= 1.10D-12 BMatP= 9.79D-12
 IDIUse=1 WtCom= 1.00D+00 WtEn= 0.00D+00
 Coeff-Com:  0.795D-03-0.325D-02-0.154D-01-0.177D-01 0.108D+00 0.302D+00
 Coeff-Com:  0.625D+00
 Coeff:      0.795D-03-0.325D-02-0.154D-01-0.177D-01 0.108D+00 0.302D+00
 Coeff:      0.625D+00
 Gap=     0.332 Goal=   None    Shift=    0.000
 RMSDP=4.88D-09 MaxDP=2.33D-07 DE=-1.71D-11 OVMax= 3.71D-07

 SCF Done:  E(RM062X) =  -391.685260367     A.U. after   13 cycles
            NFock= 13  Conv=0.49D-08     -V/T= 2.0093
 KE= 3.880922203167D+02 PE=-1.970387302752D+03 EE= 6.579771807795D+02
 Leave Link  502 at Mon Jul 19 21:48:17 2021, MaxMem=   524288000 cpu:             420.6 elap:             112.3
 (Enter /opt/gaussian/g16_legacy/l601.exe)
 Copying SCF densities to generalized density rwf, IOpCl= 0 IROHF=0.

 **********************************************************************

            Population analysis using the SCF density.

 **********************************************************************

 Orbital symmetries:
       Occupied  (A) (A) (A) (A) (A) (A) (A) (A) (A) (A) (A) (A)
                 (A) (A) (A) (A) (A) (A) (A) (A) (A) (A) (A) (A)
                 (A) (A) (A) (A) (A) (A) (A) (A) (A) (A) (A) (A)
                 (A) (A) (A)
       Virtual   (A) (A) (A) (A) (A) (A) (A) (A) (A) (A) (A) (A)
                 (A) (A) (A) (A) (A) (A) (A) (A) (A) (A) (A) (A)
                 (A) (A) (A) (A) (A) (A) (A) (A) (A) (A) (A) (A)
                 (A) (A) (A) (A) (A) (A) (A) (A) (A) (A) (A) (A)
                 (A) (A) (A) (A) (A) (A) (A) (A) (A) (A) (A) (A)
                 (A) (A) (A) (A) (A) (A) (A) (A) (A) (A) (A) (A)
                 (A) (A) (A) (A) (A) (A) (A) (A) (A) (A) (A) (A)
                 (A) (A) (A) (A) (A) (A) (A) (A) (A) (A) (A) (A)
                 (A) (A) (A) (A) (A) (A) (A) (A) (A) (A) (A) (A)
                 (A) (A) (A) (A) (A) (A) (A) (A) (A) (A) (A) (A)
                 (A) (A) (A) (A) (A) (A) (A) (A) (A) (A) (A) (A)
                 (A) (A) (A) (A) (A) (A) (A) (A) (A) (A) (A) (A)
                 (A) (A) (A) (A) (A) (A) (A) (A) (A) (A) (A) (A)
                 (A) (A) (A) (A) (A) (A) (A) (A) (A) (A) (A) (A)
                 (A) (A) (A) (A) (A) (A) (A) (A) (A) (A) (A) (A)
                 (A) (A) (A) (A) (A) (A) (A) (A) (A) (A) (A) (A)
                 (A) (A) (A) (A) (A) (A) (A) (A) (A)
 The electronic state is 1-A.
 Alpha  occ. eigenvalues --  -10.54545 -10.54040 -10.53808 -10.53708 -10.53682
 Alpha  occ. eigenvalues --  -10.53367 -10.53128 -10.53077 -10.52967 -10.52934
 Alpha  occ. eigenvalues --   -0.91976  -0.89639  -0.84684  -0.80674  -0.77984
 Alpha  occ. eigenvalues --   -0.76655  -0.72135  -0.67732  -0.58854  -0.57152
 Alpha  occ. eigenvalues --   -0.53542  -0.52742  -0.49995  -0.49463  -0.48521
 Alpha  occ. eigenvalues --   -0.48124  -0.46485  -0.45508  -0.44816  -0.44072
 Alpha  occ. eigenvalues --   -0.43409  -0.42356  -0.41569  -0.40362  -0.38497
 Alpha  occ. eigenvalues --   -0.37433  -0.36362  -0.28678  -0.26679
 Alpha virt. eigenvalues --    0.06517   0.07163   0.11951   0.15192   0.16057
 Alpha virt. eigenvalues --    0.16730   0.17625   0.18517   0.19681   0.20423
 Alpha virt. eigenvalues --    0.20986   0.21455   0.22224   0.23142   0.23755
 Alpha virt. eigenvalues --    0.24467   0.25397   0.26757   0.26962   0.27351
 Alpha virt. eigenvalues --    0.28819   0.29489   0.30520   0.31386   0.34225
 Alpha virt. eigenvalues --    0.37873   0.40094   0.45770   0.47986   0.52179
 Alpha virt. eigenvalues --    0.54311   0.55599   0.57533   0.59701   0.60131
 Alpha virt. eigenvalues --    0.60301   0.60936   0.61610   0.64188   0.66540
 Alpha virt. eigenvalues --    0.67452   0.68489   0.70107   0.72119   0.72752
 Alpha virt. eigenvalues --    0.74390   0.76838   0.78060   0.79456   0.81614
 Alpha virt. eigenvalues --    0.82315   0.82689   0.84235   0.84899   0.86309
 Alpha virt. eigenvalues --    0.88237   0.89768   0.90721   0.92452   0.93010
 Alpha virt. eigenvalues --    0.94046   0.94375   0.94962   0.95619   0.95796
 Alpha virt. eigenvalues --    0.97397   0.98129   0.98959   0.99723   1.01117
 Alpha virt. eigenvalues --    1.02110   1.03215   1.03996   1.05563   1.07727
 Alpha virt. eigenvalues --    1.08598   1.14222   1.19684   1.22718   1.25044
 Alpha virt. eigenvalues --    1.25333   1.29976   1.33253   1.36459   1.37624
 Alpha virt. eigenvalues --    1.40724   1.45636   1.48767   1.49583   1.50325
 Alpha virt. eigenvalues --    1.52590   1.57906   1.67582   1.70835   1.73557
 Alpha virt. eigenvalues --    1.75584   1.77856   1.79857   1.81085   1.83236
 Alpha virt. eigenvalues --    1.84484   1.86080   1.86365   1.88042   1.88990
 Alpha virt. eigenvalues --    1.92294   1.93985   1.95985   2.00934   2.02684
 Alpha virt. eigenvalues --    2.03947   2.06841   2.07575   2.09440   2.09754
 Alpha virt. eigenvalues --    2.10157   2.11155   2.12301   2.13584   2.14084
 Alpha virt. eigenvalues --    2.14721   2.16574   2.16875   2.17835   2.18596
 Alpha virt. eigenvalues --    2.20268   2.21245   2.22090   2.25195   2.28177
 Alpha virt. eigenvalues --    2.28823   2.29925   2.31503   2.33689   2.36038
 Alpha virt. eigenvalues --    2.37535   2.41072   2.41450   2.43375   2.44501
 Alpha virt. eigenvalues --    2.46860   2.48427   2.48890   2.54638   2.55062
 Alpha virt. eigenvalues --    2.56868   2.59021   2.60419   2.61318   2.62960
 Alpha virt. eigenvalues --    2.64014   2.68038   2.69467   2.70653   2.71799
 Alpha virt. eigenvalues --    2.73490   2.75189   2.78418   2.79627   2.80196
 Alpha virt. eigenvalues --    2.84820   2.86432   2.86948   2.87917   2.88715
 Alpha virt. eigenvalues --    2.90274   2.91488   2.93119   2.94360   3.02530
 Alpha virt. eigenvalues --    3.05156   3.08690   3.10771   3.17803   3.19174
 Alpha virt. eigenvalues --    3.23051   3.24986   3.29479   3.31225   3.40744
 Alpha virt. eigenvalues --    3.41231   3.42279   3.43242   3.43790   3.44709
 Alpha virt. eigenvalues --    3.45646   3.46816   3.47728   3.49594   3.52934
 Alpha virt. eigenvalues --    3.57655   4.17765   4.23641   4.34285   4.47205
 Alpha virt. eigenvalues --    4.48743   4.52087   4.53416   4.67127   4.71699
 Alpha virt. eigenvalues --    4.75407
          Condensed to atoms (all electrons):
               1          2          3          4          5          6
     1  C    4.994944   0.382198   0.381013   0.378308  -0.067136   0.003816
     2  H    0.382198   0.611096  -0.034797  -0.039494   0.005209  -0.000163
     3  H    0.381013  -0.034797   0.626609  -0.036194  -0.007006   0.000119
     4  C    0.378308  -0.039494  -0.036194   4.767708   0.372757  -0.030790
     5  C   -0.067136   0.005209  -0.007006   0.372757   4.998008   0.380960
     6  H    0.003816  -0.000163   0.000119  -0.030790   0.380960   0.586936
     7  H   -0.007650   0.000132   0.005206  -0.031939   0.383727  -0.030738
     8  H    0.002226  -0.000112  -0.000197  -0.032486   0.382602  -0.028031
     9  C   -0.037325  -0.007854   0.003023   0.704461  -0.058294  -0.008029
    10  H   -0.012235   0.005415   0.000303  -0.036186   0.006012   0.000005
    11  C    0.005450   0.000154  -0.000207  -0.042318  -0.013601   0.000261
    12  H    0.000126   0.000004   0.000002  -0.008638   0.003082   0.002105
    13  H   -0.000120  -0.000017  -0.000002   0.000730   0.000290  -0.000194
    14  H   -0.000166   0.000007   0.000013  -0.000660   0.000339   0.000390
    15  C   -0.000175   0.000002  -0.000014   0.000044  -0.000079  -0.000002
    16  H    0.000003   0.000000  -0.000003  -0.000003  -0.000034   0.000000
    17  H    0.000026  -0.000001   0.000006   0.000018   0.000239  -0.000028
    18  H   -0.000004   0.000000  -0.000000  -0.000002   0.000006   0.000000
    19  C   -0.005836   0.000197   0.001517  -0.002207  -0.000186   0.000215
    20  C   -0.001285  -0.000043   0.001142   0.000112  -0.000893   0.000013
    21  H   -0.002839   0.000154   0.000653   0.000102   0.000049   0.000001
    22  H    0.000122  -0.000000   0.000071  -0.000008   0.000017   0.000000
    23  H   -0.000560  -0.000043   0.001144   0.000154  -0.000185  -0.000069
    24  C   -0.045787   0.005800  -0.006960  -0.008335   0.003313   0.000339
    25  H    0.002366  -0.000154  -0.000122   0.001243  -0.000477   0.000009
    26  C    0.356749  -0.034104  -0.041502  -0.051989  -0.000488  -0.000066
    27  H   -0.039931  -0.004314   0.005692  -0.003539  -0.000051   0.000001
    28  H   -0.032800  -0.003141  -0.004516   0.005275  -0.000129   0.000005
               7          8          9         10         11         12
     1  C   -0.007650   0.002226  -0.037325  -0.012235   0.005450   0.000126
     2  H    0.000132  -0.000112  -0.007854   0.005415   0.000154   0.000004
     3  H    0.005206  -0.000197   0.003023   0.000303  -0.000207   0.000002
     4  C   -0.031939  -0.032486   0.704461  -0.036186  -0.042318  -0.008638
     5  C    0.383727   0.382602  -0.058294   0.006012  -0.013601   0.003082
     6  H   -0.030738  -0.028031  -0.008029   0.000005   0.000261   0.002105
     7  H    0.593863  -0.030713   0.003832  -0.000150   0.000312  -0.000095
     8  H   -0.030713   0.569923  -0.004412  -0.000175   0.000886  -0.000005
     9  C    0.003832  -0.004412   4.911409   0.380310   0.360382  -0.033601
    10  H   -0.000150  -0.000175   0.380310   0.613965  -0.055196   0.004500
    11  C    0.000312   0.000886   0.360382  -0.055196   4.975687   0.390868
    12  H   -0.000095  -0.000005  -0.033601   0.004500   0.390868   0.577081
    13  H   -0.000015   0.000169  -0.034328  -0.002609   0.385998  -0.028809
    14  H    0.000013  -0.000080  -0.035876  -0.000792   0.385130  -0.028545
    15  C   -0.000127   0.000166   0.000000  -0.000000   0.000000   0.000000
    16  H   -0.000000   0.000143  -0.000000   0.000000   0.000000   0.000000
    17  H    0.000203   0.000053   0.000000  -0.000000  -0.000000   0.000000
    18  H   -0.000002   0.000011  -0.000000  -0.000000   0.000000  -0.000000
    19  C    0.000317   0.000527  -0.000013  -0.000001   0.000000  -0.000000
    20  C   -0.000386   0.000006  -0.000006   0.000000  -0.000000   0.000000
    21  H   -0.000059   0.000001  -0.000001   0.000000   0.000000  -0.000000
    22  H   -0.000000   0.000003   0.000000  -0.000000  -0.000000  -0.000000
    23  H    0.002611  -0.000121   0.000006  -0.000000  -0.000000   0.000000
    24  C   -0.001101   0.002209  -0.000754   0.000054   0.000006  -0.000003
    25  H    0.000025   0.000499  -0.000029  -0.000001  -0.000001  -0.000000
    26  C   -0.000411   0.000247  -0.006132   0.000133  -0.000074  -0.000006
    27  H    0.000035  -0.000023   0.003201   0.000568  -0.000118   0.000002
    28  H   -0.000008   0.000000   0.000053  -0.000050   0.000003   0.000000
              13         14         15         16         17         18
     1  C   -0.000120  -0.000166  -0.000175   0.000003   0.000026  -0.000004
     2  H   -0.000017   0.000007   0.000002   0.000000  -0.000001   0.000000
     3  H   -0.000002   0.000013  -0.000014  -0.000003   0.000006  -0.000000
     4  C    0.000730  -0.000660   0.000044  -0.000003   0.000018  -0.000002
     5  C    0.000290   0.000339  -0.000079  -0.000034   0.000239   0.000006
     6  H   -0.000194   0.000390  -0.000002   0.000000  -0.000028   0.000000
     7  H   -0.000015   0.000013  -0.000127  -0.000000   0.000203  -0.000002
     8  H    0.000169  -0.000080   0.000166   0.000143   0.000053   0.000011
     9  C   -0.034328  -0.035876   0.000000  -0.000000   0.000000  -0.000000
    10  H   -0.002609  -0.000792  -0.000000   0.000000  -0.000000  -0.000000
    11  C    0.385998   0.385130   0.000000   0.000000  -0.000000   0.000000
    12  H   -0.028809  -0.028545   0.000000   0.000000   0.000000  -0.000000
    13  H    0.578676  -0.031593  -0.000000   0.000000   0.000000  -0.000000
    14  H   -0.031593   0.579841  -0.000000  -0.000000  -0.000000   0.000000
    15  C   -0.000000  -0.000000   4.995016   0.385799   0.384283   0.378550
    16  H    0.000000  -0.000000   0.385799   0.572944  -0.027933  -0.026956
    17  H    0.000000  -0.000000   0.384283  -0.027933   0.591794  -0.034337
    18  H   -0.000000   0.000000   0.378550  -0.026956  -0.034337   0.589283
    19  C   -0.000000   0.000000   0.374553  -0.033751  -0.040107  -0.033786
    20  C    0.000000  -0.000000  -0.076681   0.004892  -0.000221  -0.003016
    21  H   -0.000000   0.000000   0.004531  -0.000168  -0.000042   0.000014
    22  H   -0.000000   0.000000  -0.006051   0.000094  -0.000757   0.004719
    23  H   -0.000000  -0.000000   0.000335  -0.000131   0.002423  -0.000451
    24  C   -0.000000   0.000000  -0.039126  -0.005290  -0.001911  -0.000162
    25  H    0.000000  -0.000000  -0.013152   0.006077   0.000132   0.000332
    26  C    0.000028  -0.000007   0.006002   0.000098  -0.000101  -0.000220
    27  H   -0.000005   0.000002  -0.000162  -0.000012   0.000002   0.000003
    28  H   -0.000000   0.000000  -0.000059   0.000006  -0.000013   0.000028
              19         20         21         22         23         24
     1  C   -0.005836  -0.001285  -0.002839   0.000122  -0.000560  -0.045787
     2  H    0.000197  -0.000043   0.000154  -0.000000  -0.000043   0.005800
     3  H    0.001517   0.001142   0.000653   0.000071   0.001144  -0.006960
     4  C   -0.002207   0.000112   0.000102  -0.000008   0.000154  -0.008335
     5  C   -0.000186  -0.000893   0.000049   0.000017  -0.000185   0.003313
     6  H    0.000215   0.000013   0.000001   0.000000  -0.000069   0.000339
     7  H    0.000317  -0.000386  -0.000059  -0.000000   0.002611  -0.001101
     8  H    0.000527   0.000006   0.000001   0.000003  -0.000121   0.002209
     9  C   -0.000013  -0.000006  -0.000001   0.000000   0.000006  -0.000754
    10  H   -0.000001   0.000000   0.000000  -0.000000  -0.000000   0.000054
    11  C    0.000000  -0.000000   0.000000  -0.000000  -0.000000   0.000006
    12  H   -0.000000   0.000000  -0.000000  -0.000000   0.000000  -0.000003
    13  H   -0.000000   0.000000  -0.000000  -0.000000  -0.000000  -0.000000
    14  H    0.000000  -0.000000   0.000000   0.000000  -0.000000   0.000000
    15  C    0.374553  -0.076681   0.004531  -0.006051   0.000335  -0.039126
    16  H   -0.033751   0.004892  -0.000168   0.000094  -0.000131  -0.005290
    17  H   -0.040107  -0.000221  -0.000042  -0.000757   0.002423  -0.001911
    18  H   -0.033786  -0.003016   0.000014   0.004719  -0.000451  -0.000162
    19  C    4.751648   0.376546  -0.027516  -0.035213  -0.034464   0.703276
    20  C    0.376546   5.010730   0.383769   0.385425   0.379757  -0.058223
    21  H   -0.027516   0.383769   0.572549  -0.029139  -0.028421  -0.009317
    22  H   -0.035213   0.385425  -0.029139   0.584138  -0.031113   0.003674
    23  H   -0.034464   0.379757  -0.028421  -0.031113   0.579502  -0.003591
    24  C    0.703276  -0.058223  -0.009317   0.003674  -0.003591   4.940746
    25  H   -0.035782   0.006124   0.000046  -0.000142  -0.000181   0.382055
    26  C   -0.048606  -0.009951   0.004081  -0.000102   0.000788   0.357833
    27  H    0.005052   0.000193  -0.000048   0.000002  -0.000012  -0.030882
    28  H   -0.007910   0.000828   0.003352   0.000097  -0.000414  -0.038956
              25         26         27         28
     1  C    0.002366   0.356749  -0.039931  -0.032800
     2  H   -0.000154  -0.034104  -0.004314  -0.003141
     3  H   -0.000122  -0.041502   0.005692  -0.004516
     4  C    0.001243  -0.051989  -0.003539   0.005275
     5  C   -0.000477  -0.000488  -0.000051  -0.000129
     6  H    0.000009  -0.000066   0.000001   0.000005
     7  H    0.000025  -0.000411   0.000035  -0.000008
     8  H    0.000499   0.000247  -0.000023   0.000000
     9  C   -0.000029  -0.006132   0.003201   0.000053
    10  H   -0.000001   0.000133   0.000568  -0.000050
    11  C   -0.000001  -0.000074  -0.000118   0.000003
    12  H   -0.000000  -0.000006   0.000002   0.000000
    13  H    0.000000   0.000028  -0.000005  -0.000000
    14  H   -0.000000  -0.000007   0.000002   0.000000
    15  C   -0.013152   0.006002  -0.000162  -0.000059
    16  H    0.006077   0.000098  -0.000012   0.000006
    17  H    0.000132  -0.000101   0.000002  -0.000013
    18  H    0.000332  -0.000220   0.000003   0.000028
    19  C   -0.035782  -0.048606   0.005052  -0.007910
    20  C    0.006124  -0.009951   0.000193   0.000828
    21  H    0.000046   0.004081  -0.000048   0.003352
    22  H   -0.000142  -0.000102   0.000002   0.000097
    23  H   -0.000181   0.000788  -0.000012  -0.000414
    24  C    0.382055   0.357833  -0.030882  -0.038956
    25  H    0.608610  -0.051952  -0.008852   0.004525
    26  C   -0.051952   4.998029   0.384311   0.377361
    27  H   -0.008852   0.384311   0.605101  -0.032540
    28  H    0.004525   0.377361  -0.032540   0.608378
 Mulliken charges:
               1
     1  C   -0.253499
     2  H    0.113868
     3  H    0.105006
     4  C    0.093877
     5  C   -0.388053
     6  H    0.122933
     7  H    0.113118
     8  H    0.136683
     9  C   -0.140023
    10  H    0.096130
    11  C   -0.393624
    12  H    0.121932
    13  H    0.131800
    14  H    0.131983
    15  C   -0.393652
    16  H    0.124224
    17  H    0.126271
    18  H    0.125988
    19  C    0.091531
    20  C   -0.398832
    21  H    0.128248
    22  H    0.124164
    23  H    0.133034
    24  C   -0.148908
    25  H    0.098802
    26  C   -0.239948
    27  H    0.116322
    28  H    0.120625
 Sum of Mulliken charges =  -0.00000
 Mulliken charges with hydrogens summed into heavy atoms:
               1
     1  C   -0.034625
     4  C    0.093877
     5  C   -0.015318
     9  C   -0.043893
    11  C   -0.007909
    15  C   -0.017169
    19  C    0.091531
    20  C   -0.013387
    24  C   -0.050106
    26  C   -0.003002
 Electronic spatial extent (au):  <R**2>=           2109.3602
 Charge=             -0.0000 electrons
 Dipole moment (field-independent basis, Debye):
    X=             -0.2419    Y=             -0.2011    Z=              0.1830  Tot=              0.3639
 Quadrupole moment (field-independent basis, Debye-Ang):
   XX=            -63.2974   YY=            -63.6255   ZZ=            -64.9076
   XY=              0.4565   XZ=             -2.1101   YZ=              0.1092
 Traceless Quadrupole moment (field-independent basis, Debye-Ang):
   XX=              0.6461   YY=              0.3180   ZZ=             -0.9641
   XY=              0.4565   XZ=             -2.1101   YZ=              0.1092
 Octapole moment (field-independent basis, Debye-Ang**2):
  XXX=              1.1908  YYY=              1.6497  ZZZ=             -2.0141  XYY=              1.4655
  XXY=             -2.1794  XXZ=              1.1219  XZZ=             -0.3703  YZZ=             -2.3946
  YYZ=              0.1513  XYZ=             -2.8095
 Hexadecapole moment (field-independent basis, Debye-Ang**3):
 XXXX=          -2040.2625 YYYY=           -515.0632 ZZZZ=           -307.0625 XXXY=              7.6593
 XXXZ=            -16.3801 YYYX=             -2.1720 YYYZ=              0.0416 ZZZX=             -5.6430
 ZZZY=              1.1902 XXYY=           -436.0567 XXZZ=           -407.3648 YYZZ=           -138.5041
 XXYZ=             -0.1267 YYXZ=             -0.5898 ZZXY=              2.1922
 N-N= 5.326326412883D+02 E-N=-1.970387299125D+03  KE= 3.880922203167D+02
 No NMR shielding tensors so no spin-rotation constants.
 Leave Link  601 at Mon Jul 19 21:48:18 2021, MaxMem=   524288000 cpu:               1.7 elap:               0.6
 (Enter /opt/gaussian/g16_legacy/l701.exe)
 ... and contract with generalized density number  0.
 Compute integral first derivatives.
 Leave Link  701 at Mon Jul 19 21:48:18 2021, MaxMem=   524288000 cpu:               0.9 elap:               0.2
 (Enter /opt/gaussian/g16_legacy/l702.exe)
 L702 exits ... SP integral derivatives will be done elsewhere.
 Leave Link  702 at Mon Jul 19 21:48:18 2021, MaxMem=   524288000 cpu:               0.1 elap:               0.0
 (Enter /opt/gaussian/g16_legacy/l703.exe)
 Integral derivatives from FoFJK, PRISM(SPDF).
 Compute integral first derivatives, UseDBF=F ICtDFT=           0.
 Calling FoFJK, ICntrl=      2127 FMM=F ISym2X=0 I1Cent= 0 IOpClX= 0 NMat=1 NMatS=1 NMatT=0.
 FoFJK:  IHMeth= 1 ICntrl=    2127 DoSepK=F KAlg= 0 I1Cent=           0 FoldK=F
 IRaf=         0 NMat=       1 IRICut=       1 DoRegI=T DoRafI=F ISym2E= 0 IDoP0=0 IntGTp=1.
 FoFCou: FMM=F IPFlag=           0 FMFlag=      100000 FMFlg1=         800
         NFxFlg=           0 DoJE=F BraDBF=F KetDBF=F FulRan=T
         wScrn=  0.000000 ICntrl=      2127 IOpCl=  0 I1Cent=           0 NGrid=           0
         NMat0=    1 NMatS0=      1 NMatT0=    0 NMatD0=    1 NMtDS0=    0 NMtDT0=    0
 Symmetry not used in FoFCou.
 Leave Link  703 at Mon Jul 19 21:48:39 2021, MaxMem=   524288000 cpu:              81.9 elap:              20.5
 (Enter /opt/gaussian/g16_legacy/l716.exe)
 Dipole        =-9.51652047D-02-7.91195773D-02 7.19805030D-02
 ***** Axes restored to original set *****
 -------------------------------------------------------------------
 Center     Atomic                   Forces (Hartrees/Bohr)
 Number     Number              X              Y              Z
 -------------------------------------------------------------------
      1        6           0.001726681   -0.008127171   -0.000553471
      2        1           0.001533425    0.000055452    0.002344241
      3        1          -0.000497780    0.004147909    0.000970117
      4        6          -0.000813164   -0.012787460    0.000064294
      5        6           0.004703255   -0.000110589   -0.000186994
      6        1           0.000496864   -0.000791989    0.002647870
      7        1          -0.002737978    0.001026618    0.002382083
      8        1          -0.000100929    0.002681726   -0.001747802
      9        6          -0.006520336    0.013379817   -0.004000764
     10        1          -0.002828435   -0.000073415   -0.001156709
     11        6           0.000426545    0.000941987   -0.000515590
     12        1          -0.001065287    0.000042051   -0.000832932
     13        1           0.002343871   -0.001752927    0.000128661
     14        1           0.002373204   -0.001075371    0.001981521
     15        6          -0.000300024   -0.000792425    0.004227372
     16        1          -0.000559421   -0.001485849   -0.000985698
     17        1          -0.000829711    0.002375531   -0.001610299
     18        1           0.000849892    0.002489534   -0.002034347
     19        6           0.001628599   -0.010070047    0.013409063
     20        6          -0.004099706   -0.002523528    0.001311402
     21        1           0.002873421   -0.001163770   -0.000127188
     22        1           0.002100283    0.000771988   -0.000349493
     23        1          -0.000879850    0.000673506   -0.002246730
     24        6           0.003371857    0.009094853   -0.010056852
     25        1           0.001552603    0.004509065    0.000354650
     26        6          -0.006020488    0.000251706    0.003430539
     27        1           0.000856310   -0.000245822   -0.003829917
     28        1           0.000416298   -0.001441380   -0.003017028
 -------------------------------------------------------------------
 Cartesian Forces:  Max     0.013409063 RMS     0.003855252
 Leave Link  716 at Mon Jul 19 21:48:39 2021, MaxMem=   524288000 cpu:               0.2 elap:               0.1
 (Enter /opt/gaussian/g16_legacy/l103.exe)

 GradGradGradGradGradGradGradGradGradGradGradGradGradGradGradGradGradGrad
 Berny optimization.
 FormGI is forming the generalized inverse of G from B-inverse, IUseBI=4.
 Internal  Forces:  Max     0.014942007 RMS     0.002545343
 Search for a local minimum.
 Step number   1 out of a maximum of  138
 All quantities printed in internal units (Hartrees-Bohrs-Radians)
 RMS Force = .25453D-02 SwitMx=.10000D-02 MixMth= 1
 Mixed Optimization -- RFO/linear search
 Second derivative matrix not updated -- first step.
 ITU=  0
     Eigenvalues ---    0.00257   0.00497   0.00672   0.00709   0.00713
     Eigenvalues ---    0.00732   0.00824   0.01183   0.01293   0.01582
     Eigenvalues ---    0.01647   0.02772   0.02787   0.03737   0.03761
     Eigenvalues ---    0.05280   0.05309   0.07046   0.07060   0.07088
     Eigenvalues ---    0.07130   0.07175   0.07288   0.07341   0.07521
     Eigenvalues ---    0.09644   0.09825   0.13051   0.13139   0.15969
     Eigenvalues ---    0.15993   0.16000   0.16000   0.16000   0.16000
     Eigenvalues ---    0.16000   0.16000   0.16000   0.16000   0.16000
     Eigenvalues ---    0.16000   0.16000   0.16000   0.21896   0.21948
     Eigenvalues ---    0.22002   0.22009   0.24973   0.24986   0.24994
     Eigenvalues ---    0.24996   0.28656   0.30333   0.31646   0.31931
     Eigenvalues ---    0.31960   0.32108   0.32843   0.33739   0.33865
     Eigenvalues ---    0.33911   0.34178   0.34190   0.34215   0.34229
     Eigenvalues ---    0.34253   0.34300   0.34317   0.34319   0.34332
     Eigenvalues ---    0.34337   0.34345   0.34405   0.34602   0.35006
     Eigenvalues ---    0.35196   0.55371   0.55614
 RFO step:  Lambda=-4.51045915D-03 EMin= 2.57252687D-03
 Linear search not attempted -- first point.
 Iteration  1 RMS(Cart)=  0.10088048 RMS(Int)=  0.00291022
 Iteration  2 RMS(Cart)=  0.00488462 RMS(Int)=  0.00019277
 Iteration  3 RMS(Cart)=  0.00001687 RMS(Int)=  0.00019254
 Iteration  4 RMS(Cart)=  0.00000000 RMS(Int)=  0.00019254
 ITry= 1 IFail=0 DXMaxC= 3.43D-01 DCOld= 1.00D+10 DXMaxT= 3.00D-01 DXLimC= 3.00D+00 Rises=F
 Variable       Old X    -DE/DX   Delta X   Delta X   Delta X     New X
                                 (Linear)    (Quad)   (Total)
    R1        2.07481  -0.00071   0.00000  -0.00207  -0.00207   2.07273
    R2        2.07010   0.00088   0.00000   0.00253   0.00253   2.07264
    R3        2.87305  -0.00382   0.00000  -0.01241  -0.01241   2.86063
    R4        2.90726  -0.00059   0.00000  -0.00204  -0.00204   2.90522
    R5        2.84796   0.00271   0.00000   0.00843   0.00843   2.85639
    R6        2.54591  -0.01323   0.00000  -0.02360  -0.02360   2.52230
    R7        2.06651  -0.00009   0.00000  -0.00025  -0.00025   2.06626
    R8        2.06795  -0.00027   0.00000  -0.00078  -0.00078   2.06717
    R9        2.06799   0.00043   0.00000   0.00123   0.00123   2.06922
   R10        2.05665   0.00135   0.00000   0.00382   0.00382   2.06047
   R11        2.82628   0.00423   0.00000   0.01270   0.01270   2.83898
   R12        2.06326  -0.00039   0.00000  -0.00112  -0.00112   2.06215
   R13        2.06773   0.00059   0.00000   0.00170   0.00170   2.06943
   R14        2.06765   0.00089   0.00000   0.00256   0.00256   2.07021
   R15        2.06827  -0.00119   0.00000  -0.00342  -0.00342   2.06485
   R16        2.06945   0.00106   0.00000   0.00305   0.00305   2.07250
   R17        2.06751   0.00114   0.00000   0.00327   0.00327   2.07079
   R18        2.83948   0.00202   0.00000   0.00621   0.00621   2.84569
   R19        2.84217   0.00154   0.00000   0.00475   0.00475   2.84693
   R20        2.54804  -0.01494   0.00000  -0.02677  -0.02677   2.52127
   R21        2.06905  -0.00085   0.00000  -0.00244  -0.00244   2.06661
   R22        2.06968  -0.00038   0.00000  -0.00109  -0.00109   2.06860
   R23        2.07031   0.00071   0.00000   0.00205   0.00205   2.07235
   R24        2.05358   0.00173   0.00000   0.00485   0.00485   2.05843
   R25        2.84271   0.00511   0.00000   0.01578   0.01578   2.85849
   R26        2.07773  -0.00308   0.00000  -0.00901  -0.00901   2.06872
   R27        2.07558   0.00056   0.00000   0.00164   0.00164   2.07722
    A1        1.82572   0.00170   0.00000   0.03372   0.03385   1.85956
    A2        1.91102  -0.00039   0.00000  -0.00159  -0.00154   1.90949
    A3        1.87898   0.00154   0.00000   0.01308   0.01318   1.89216
    A4        1.90815   0.00178   0.00000   0.00210   0.00151   1.90965
    A5        1.93662  -0.00215   0.00000  -0.02537  -0.02559   1.91103
    A6        1.99534  -0.00214   0.00000  -0.01693  -0.01719   1.97815
    A7        2.03098   0.00313   0.00000   0.01258   0.01214   2.04312
    A8        2.09642  -0.00173   0.00000  -0.00647  -0.00690   2.08952
    A9        2.15558  -0.00138   0.00000  -0.00508  -0.00551   2.15007
   A10        1.95787  -0.00130   0.00000  -0.00288  -0.00287   1.95500
   A11        1.93941  -0.00180   0.00000  -0.01145  -0.01142   1.92799
   A12        1.93144   0.00353   0.00000   0.01696   0.01697   1.94841
   A13        1.84736   0.00318   0.00000   0.02791   0.02792   1.87529
   A14        1.89164  -0.00106   0.00000  -0.00543  -0.00543   1.88621
   A15        1.89290  -0.00267   0.00000  -0.02575  -0.02572   1.86717
   A16        2.07077  -0.00300   0.00000  -0.01765  -0.01771   2.05306
   A17        2.21677   0.00043   0.00000   0.00205   0.00199   2.21876
   A18        1.99503   0.00259   0.00000   0.01628   0.01622   2.01124
   A19        1.98165  -0.00277   0.00000  -0.01605  -0.01597   1.96568
   A20        1.90699   0.00303   0.00000   0.01846   0.01842   1.92541
   A21        1.91710   0.00364   0.00000   0.02131   0.02128   1.93837
   A22        1.87481   0.00004   0.00000   0.00181   0.00188   1.87669
   A23        1.89075  -0.00058   0.00000  -0.00351  -0.00343   1.88731
   A24        1.89015  -0.00359   0.00000  -0.02348  -0.02363   1.86652
   A25        1.87700   0.00085   0.00000   0.00760   0.00761   1.88462
   A26        1.88191   0.00071   0.00000   0.00889   0.00889   1.89080
   A27        1.95902  -0.00216   0.00000  -0.00946  -0.00944   1.94957
   A28        1.89646  -0.00327   0.00000  -0.02712  -0.02710   1.86935
   A29        1.91838   0.00137   0.00000   0.00590   0.00592   1.92430
   A30        1.92918   0.00237   0.00000   0.01320   0.01321   1.94238
   A31        2.00886   0.00155   0.00000   0.00630   0.00623   2.01509
   A32        2.11077   0.00270   0.00000   0.01089   0.01083   2.12160
   A33        2.16274  -0.00423   0.00000  -0.01637  -0.01644   2.14630
   A34        1.95947  -0.00073   0.00000  -0.00187  -0.00187   1.95760
   A35        1.93280  -0.00065   0.00000  -0.00232  -0.00232   1.93048
   A36        1.92381   0.00269   0.00000   0.01220   0.01221   1.93602
   A37        1.86233   0.00216   0.00000   0.02100   0.02099   1.88332
   A38        1.89596  -0.00160   0.00000  -0.01255  -0.01253   1.88342
   A39        1.88696  -0.00200   0.00000  -0.01723  -0.01721   1.86975
   A40        2.07205  -0.00273   0.00000  -0.01783  -0.01837   2.05367
   A41        2.21133  -0.00349   0.00000  -0.01460  -0.01513   2.19620
   A42        1.99688   0.00630   0.00000   0.03676   0.03624   2.03312
   A43        2.01001  -0.00168   0.00000  -0.00971  -0.00968   2.00033
   A44        1.89611  -0.00188   0.00000  -0.02036  -0.02033   1.87578
   A45        1.91582  -0.00129   0.00000  -0.01543  -0.01540   1.90041
   A46        1.88282   0.00233   0.00000   0.01882   0.01862   1.90145
   A47        1.91138   0.00198   0.00000   0.01637   0.01621   1.92758
   A48        1.83969   0.00079   0.00000   0.01256   0.01214   1.85182
    D1        2.70114   0.00161   0.00000   0.07421   0.07428   2.77541
    D2       -0.41964   0.00076   0.00000   0.02154   0.02149  -0.39815
    D3        0.71047  -0.00118   0.00000   0.03375   0.03378   0.74424
    D4       -2.41031  -0.00203   0.00000  -0.01891  -0.01901  -2.42932
    D5       -1.47241   0.00186   0.00000   0.07837   0.07846  -1.39395
    D6        1.69000   0.00101   0.00000   0.02571   0.02567   1.71567
    D7       -3.13519  -0.00067   0.00000   0.00678   0.00682  -3.12837
    D8        1.03453  -0.00113   0.00000   0.00428   0.00430   1.03883
    D9       -0.96877  -0.00034   0.00000   0.00885   0.00887  -0.95990
   D10       -1.14706   0.00110   0.00000   0.04108   0.04089  -1.10617
   D11        3.02267   0.00064   0.00000   0.03858   0.03837   3.06104
   D12        1.01936   0.00144   0.00000   0.04315   0.04294   1.06230
   D13        1.02070   0.00011   0.00000   0.01037   0.01056   1.03126
   D14       -1.09276  -0.00036   0.00000   0.00787   0.00805  -1.08472
   D15       -3.09606   0.00044   0.00000   0.01244   0.01261  -3.08345
   D16       -2.56679  -0.00122   0.00000  -0.05279  -0.05286  -2.61965
   D17       -0.50267   0.00074   0.00000  -0.02708  -0.02715  -0.52981
   D18        1.60142  -0.00145   0.00000  -0.05582  -0.05591   1.54551
   D19        0.55320  -0.00034   0.00000   0.00183   0.00192   0.55512
   D20        2.61733   0.00162   0.00000   0.02755   0.02763   2.64496
   D21       -1.56177  -0.00057   0.00000  -0.00119  -0.00113  -1.56290
   D22        0.00152   0.00044   0.00000   0.03018   0.02987   0.03139
   D23       -3.09995  -0.00008   0.00000   0.00786   0.00777  -3.09218
   D24       -3.11770  -0.00052   0.00000  -0.02662  -0.02652   3.13896
   D25        0.06401  -0.00105   0.00000  -0.04894  -0.04863   0.01539
   D26        0.04717  -0.00001   0.00000   0.00214   0.00222   0.04939
   D27        2.13940   0.00037   0.00000   0.00695   0.00693   2.14634
   D28       -2.07272  -0.00002   0.00000   0.00215   0.00231  -2.07041
   D29       -3.05578  -0.00041   0.00000  -0.01869  -0.01877  -3.07455
   D30       -0.96355  -0.00003   0.00000  -0.01389  -0.01405  -0.97760
   D31        1.10751  -0.00042   0.00000  -0.01869  -0.01868   1.08883
   D32       -3.13227   0.00005   0.00000  -0.00648  -0.00659  -3.13886
   D33       -0.03237   0.00031   0.00000   0.01420   0.01431  -0.01806
   D34       -1.04415   0.00065   0.00000   0.00095   0.00084  -1.04330
   D35        2.05576   0.00090   0.00000   0.02163   0.02174   2.07749
   D36        1.04917  -0.00103   0.00000  -0.02058  -0.02069   1.02848
   D37       -2.13411  -0.00077   0.00000   0.00010   0.00020  -2.13391
   D38       -2.73437  -0.00111   0.00000  -0.04467  -0.04476  -2.77913
   D39       -0.65471   0.00070   0.00000  -0.02087  -0.02094  -0.67564
   D40        1.43260  -0.00047   0.00000  -0.03596  -0.03604   1.39657
   D41        0.45032  -0.00157   0.00000  -0.06679  -0.06673   0.38359
   D42        2.52998   0.00024   0.00000  -0.04300  -0.04290   2.48708
   D43       -1.66590  -0.00093   0.00000  -0.05808  -0.05800  -1.72390
   D44        0.03887  -0.00044   0.00000  -0.00908  -0.00954   0.02933
   D45       -3.01563  -0.00197   0.00000  -0.07518  -0.07464  -3.09027
   D46        3.13497   0.00001   0.00000   0.01412   0.01357  -3.13465
   D47        0.08046  -0.00153   0.00000  -0.05198  -0.05152   0.02894
   D48        1.09954   0.00157   0.00000   0.10684   0.10720   1.20673
   D49       -3.06297  -0.00024   0.00000   0.08820   0.08835  -2.97462
   D50       -1.06921   0.00295   0.00000   0.12145   0.12197  -0.94725
   D51       -1.95819   0.00045   0.00000   0.04543   0.04510  -1.91309
   D52        0.16249  -0.00135   0.00000   0.02678   0.02625   0.18874
   D53        2.15625   0.00183   0.00000   0.06003   0.05987   2.21611
         Item               Value     Threshold  Converged?
 Maximum Force            0.014942     0.002500     NO 
 RMS     Force            0.002545     0.001667     NO 
 Maximum Displacement     0.342926     0.010000     NO 
 RMS     Displacement     0.099814     0.006667     NO 
 Predicted change in Energy=-2.504685D-03
 Lowest energy point so far.  Saving SCF results.
 GradGradGradGradGradGradGradGradGradGradGradGradGradGradGradGradGradGrad

 Leave Link  103 at Mon Jul 19 21:48:39 2021, MaxMem=   524288000 cpu:               0.2 elap:               0.1
 (Enter /opt/gaussian/g16_legacy/l202.exe)
                          Input orientation:                          
 ---------------------------------------------------------------------
 Center     Atomic      Atomic             Coordinates (Angstroms)
 Number     Number       Type             X           Y           Z
 ---------------------------------------------------------------------
      1          6           0        2.214845    1.147983   -8.910814
      2          1           0        1.892304    0.106020   -9.026343
      3          1           0        2.057361    1.633173   -9.881766
      4          6           0        3.687910    1.182971   -8.563842
      5          6           0        4.428137    2.472393   -8.836228
      6          1           0        5.482551    2.298612   -9.067696
      7          1           0        3.986479    2.993855   -9.690411
      8          1           0        4.375994    3.155966   -7.982414
      9          6           0        4.262392    0.114080   -8.007974
     10          1           0        3.642153   -0.768689   -7.850207
[...]
                 (A) (A) (A) (A) (A) (A) (A) (A) (A) (A) (A) (A)
                 (A) (A) (A) (A) (A) (A) (A) (A) (A) (A) (A) (A)
                 (A) (A) (A) (A) (A) (A) (A) (A) (A) (A) (A) (A)
                 (A) (A) (A) (A) (A) (A) (A) (A) (A) (A) (A) (A)
                 (A) (A) (A) (A) (A) (A) (A) (A) (A) (A) (A) (A)
                 (A) (A) (A) (A) (A) (A) (A) (A) (A) (A) (A) (A)
                 (A) (A) (A) (A) (A) (A) (A) (A) (A) (A) (A) (A)
                 (A) (A) (A) (A) (A) (A) (A) (A) (A) (A) (A) (A)
                 (A) (A) (A) (A) (A) (A) (A) (A) (A) (A) (A) (A)
                 (A) (A) (A) (A) (A) (A) (A) (A) (A) (A) (A) (A)
                 (A) (A) (A) (A) (A) (A) (A) (A) (A) (A) (A) (A)
                 (A) (A) (A) (A) (A) (A) (A) (A) (A) (A) (A) (A)
                 (A) (A) (A) (A) (A) (A) (A) (A) (A) (A) (A) (A)
                 (A) (A) (A) (A) (A) (A) (A) (A) (A)
 The electronic state is 1-A.
 Alpha  occ. eigenvalues --  -10.54501 -10.53950 -10.53841 -10.53725 -10.53607
 Alpha  occ. eigenvalues --  -10.53433 -10.53205 -10.53068 -10.53050 -10.52921
 Alpha  occ. eigenvalues --   -0.92123  -0.89872  -0.84655  -0.80465  -0.77939
 Alpha  occ. eigenvalues --   -0.76886  -0.72411  -0.67735  -0.58880  -0.57248
 Alpha  occ. eigenvalues --   -0.53929  -0.52748  -0.50050  -0.49478  -0.48405
 Alpha  occ. eigenvalues --   -0.48201  -0.46007  -0.45079  -0.44390  -0.43988
 Alpha  occ. eigenvalues --   -0.43608  -0.42532  -0.41860  -0.40655  -0.38802
 Alpha  occ. eigenvalues --   -0.37647  -0.36402  -0.29062  -0.26859
 Alpha virt. eigenvalues --    0.06830   0.07305   0.12480   0.15630   0.16147
 Alpha virt. eigenvalues --    0.16635   0.17599   0.18391   0.19866   0.20422
 Alpha virt. eigenvalues --    0.21123   0.21318   0.22345   0.22809   0.23932
 Alpha virt. eigenvalues --    0.24653   0.25694   0.26430   0.27253   0.27538
 Alpha virt. eigenvalues --    0.28316   0.28915   0.30061   0.30775   0.33919
 Alpha virt. eigenvalues --    0.38124   0.39939   0.46272   0.48042   0.53443
 Alpha virt. eigenvalues --    0.54384   0.55816   0.57100   0.59562   0.59661
 Alpha virt. eigenvalues --    0.60372   0.60853   0.62015   0.63729   0.66257
 Alpha virt. eigenvalues --    0.67281   0.67901   0.69913   0.71286   0.72997
 Alpha virt. eigenvalues --    0.74348   0.76801   0.77855   0.78866   0.81700
 Alpha virt. eigenvalues --    0.82044   0.82712   0.83370   0.85060   0.87136
 Alpha virt. eigenvalues --    0.88629   0.89172   0.90287   0.92040   0.92653
 Alpha virt. eigenvalues --    0.93876   0.94260   0.94763   0.95482   0.96945
 Alpha virt. eigenvalues --    0.97350   0.98562   0.99234   1.00601   1.00944
 Alpha virt. eigenvalues --    1.01285   1.02112   1.03206   1.05060   1.06693
 Alpha virt. eigenvalues --    1.07680   1.14716   1.19282   1.21372   1.26011
 Alpha virt. eigenvalues --    1.26704   1.32619   1.36069   1.36731   1.38019
 Alpha virt. eigenvalues --    1.39855   1.45642   1.48722   1.49496   1.50390
 Alpha virt. eigenvalues --    1.52869   1.58258   1.68661   1.71621   1.74228
 Alpha virt. eigenvalues --    1.75084   1.78652   1.79224   1.80281   1.82715
 Alpha virt. eigenvalues --    1.84468   1.85034   1.86235   1.87075   1.88656
 Alpha virt. eigenvalues --    1.91274   1.92607   1.95028   2.01751   2.02176
 Alpha virt. eigenvalues --    2.04360   2.05022   2.08642   2.09813   2.09924
 Alpha virt. eigenvalues --    2.10193   2.10435   2.12262   2.13319   2.14506
 Alpha virt. eigenvalues --    2.15515   2.16791   2.17079   2.18200   2.18715
 Alpha virt. eigenvalues --    2.20453   2.20629   2.23342   2.24267   2.28301
 Alpha virt. eigenvalues --    2.29460   2.31330   2.32020   2.34003   2.36119
 Alpha virt. eigenvalues --    2.38803   2.40373   2.42340   2.42835   2.44223
 Alpha virt. eigenvalues --    2.46349   2.48193   2.48878   2.53077   2.54845
 Alpha virt. eigenvalues --    2.56523   2.58894   2.59893   2.61817   2.63799
 Alpha virt. eigenvalues --    2.65037   2.67180   2.69469   2.71356   2.71932
 Alpha virt. eigenvalues --    2.74203   2.75721   2.78530   2.79299   2.80365
 Alpha virt. eigenvalues --    2.84582   2.85543   2.86763   2.87314   2.89010
 Alpha virt. eigenvalues --    2.90859   2.91971   2.93037   2.94201   3.03432
 Alpha virt. eigenvalues --    3.05819   3.09339   3.10362   3.17128   3.18493
 Alpha virt. eigenvalues --    3.23384   3.25180   3.30500   3.30837   3.40303
 Alpha virt. eigenvalues --    3.41698   3.42502   3.43055   3.44102   3.44753
 Alpha virt. eigenvalues --    3.45271   3.46471   3.48089   3.50422   3.52759
 Alpha virt. eigenvalues --    3.57513   4.18111   4.22128   4.33312   4.47310
 Alpha virt. eigenvalues --    4.49953   4.52560   4.53167   4.66530   4.72119
 Alpha virt. eigenvalues --    4.77406
          Condensed to atoms (all electrons):
               1          2          3          4          5          6
     1  C    4.998899   0.381869   0.379506   0.384544  -0.068228   0.003988
     2  H    0.381869   0.610155  -0.031370  -0.041483   0.005301  -0.000154
     3  H    0.379506  -0.031370   0.624455  -0.035481  -0.006218   0.000075
     4  C    0.384544  -0.041483  -0.035481   4.750768   0.374223  -0.029753
     5  C   -0.068228   0.005301  -0.006218   0.374223   5.001224   0.380251
     6  H    0.003988  -0.000154   0.000075  -0.029753   0.380251   0.583241
     7  H   -0.006649   0.000119   0.006028  -0.032680   0.383013  -0.026871
     8  H    0.001283  -0.000117  -0.000261  -0.031705   0.382133  -0.028845
     9  C   -0.036325  -0.008280   0.002327   0.710723  -0.057637  -0.008080
    10  H   -0.014367   0.006556   0.000352  -0.037042   0.006316  -0.000012
    11  C    0.005669   0.000179  -0.000208  -0.041714  -0.014396   0.000062
    12  H    0.000109   0.000006   0.000003  -0.008356   0.002714   0.002710
    13  H   -0.000121  -0.000016  -0.000002   0.000233   0.000339  -0.000231
    14  H   -0.000154   0.000002   0.000013  -0.000341   0.000322   0.000312
    15  C   -0.000120   0.000003  -0.000081   0.000009   0.000081  -0.000001
    16  H   -0.000000  -0.000000  -0.000002  -0.000001  -0.000020   0.000000
    17  H    0.000022  -0.000001   0.000001   0.000008   0.000057  -0.000006
    18  H   -0.000005   0.000000   0.000002  -0.000001   0.000001   0.000000
    19  C   -0.005049   0.000176   0.002589  -0.001245  -0.000493   0.000097
    20  C   -0.000985  -0.000057   0.001010   0.000095  -0.000070   0.000000
    21  H   -0.001510   0.000121   0.001031   0.000055   0.000012   0.000000
    22  H    0.000010   0.000002   0.000042  -0.000004   0.000001   0.000000
    23  H    0.000164  -0.000019   0.000133   0.000030   0.000008  -0.000004
    24  C   -0.045817   0.005690  -0.006602  -0.009802   0.001561   0.000367
    25  H    0.001216  -0.000154  -0.000077   0.001817  -0.001778   0.000040
    26  C    0.350392  -0.034075  -0.046706  -0.051324  -0.000753  -0.000039
    27  H   -0.040856  -0.003097   0.006059  -0.002743  -0.000044   0.000001
    28  H   -0.035522  -0.004166  -0.004164   0.005295  -0.000161   0.000005
               7          8          9         10         11         12
     1  C   -0.006649   0.001283  -0.036325  -0.014367   0.005669   0.000109
     2  H    0.000119  -0.000117  -0.008280   0.006556   0.000179   0.000006
     3  H    0.006028  -0.000261   0.002327   0.000352  -0.000208   0.000003
     4  C   -0.032680  -0.031705   0.710723  -0.037042  -0.041714  -0.008356
     5  C    0.383013   0.382133  -0.057637   0.006316  -0.014396   0.002714
     6  H   -0.026871  -0.028845  -0.008080  -0.000012   0.000062   0.002710
     7  H    0.586025  -0.033312   0.003692  -0.000162   0.000315  -0.000090
     8  H   -0.033312   0.579237  -0.004180  -0.000164   0.000861  -0.000158
     9  C    0.003692  -0.004180   4.901921   0.379457   0.360577  -0.034607
    10  H   -0.000162  -0.000164   0.379457   0.616473  -0.054032   0.004468
    11  C    0.000315   0.000861   0.360577  -0.054032   4.977336   0.390278
    12  H   -0.000090  -0.000158  -0.034607   0.004468   0.390278   0.578567
    13  H   -0.000016   0.000165  -0.032840  -0.001775   0.385127  -0.028366
    14  H    0.000013  -0.000063  -0.033475  -0.001211   0.385067  -0.028390
    15  C   -0.000030   0.000049   0.000000  -0.000000   0.000000  -0.000000
    16  H   -0.000008   0.000138  -0.000000  -0.000000   0.000000   0.000000
    17  H    0.000049  -0.000011   0.000000  -0.000000  -0.000000   0.000000
    18  H    0.000002   0.000003  -0.000000  -0.000000   0.000000  -0.000000
    19  C    0.000793   0.000038  -0.000018   0.000001  -0.000000  -0.000000
    20  C    0.000021   0.000020  -0.000002   0.000000  -0.000000  -0.000000
    21  H   -0.000019  -0.000002  -0.000000   0.000000  -0.000000  -0.000000
    22  H    0.000003   0.000000   0.000000  -0.000000  -0.000000  -0.000000
    23  H    0.000150  -0.000012   0.000000  -0.000000  -0.000000   0.000000
    24  C    0.000860   0.001411  -0.000474   0.000041   0.000006  -0.000002
    25  H   -0.000014   0.001299   0.000031  -0.000001  -0.000001   0.000000
    26  C   -0.001155   0.000641  -0.006715   0.000232  -0.000081  -0.000007
    27  H    0.000083  -0.000049   0.002865   0.000445  -0.000116   0.000002
    28  H    0.000003  -0.000001   0.000074  -0.000052   0.000004   0.000000
              13         14         15         16         17         18
     1  C   -0.000121  -0.000154  -0.000120  -0.000000   0.000022  -0.000005
     2  H   -0.000016   0.000002   0.000003  -0.000000  -0.000001   0.000000
     3  H   -0.000002   0.000013  -0.000081  -0.000002   0.000001   0.000002
     4  C    0.000233  -0.000341   0.000009  -0.000001   0.000008  -0.000001
     5  C    0.000339   0.000322   0.000081  -0.000020   0.000057   0.000001
     6  H   -0.000231   0.000312  -0.000001   0.000000  -0.000006   0.000000
     7  H   -0.000016   0.000013  -0.000030  -0.000008   0.000049   0.000002
     8  H    0.000165  -0.000063   0.000049   0.000138  -0.000011   0.000003
     9  C   -0.032840  -0.033475   0.000000  -0.000000   0.000000  -0.000000
    10  H   -0.001775  -0.001211  -0.000000  -0.000000  -0.000000  -0.000000
    11  C    0.385127   0.385067   0.000000   0.000000  -0.000000   0.000000
    12  H   -0.028366  -0.028390  -0.000000   0.000000   0.000000  -0.000000
    13  H    0.579126  -0.033791  -0.000000   0.000000   0.000000  -0.000000
    14  H   -0.033791   0.580256  -0.000000  -0.000000  -0.000000   0.000000
    15  C   -0.000000  -0.000000   5.002361   0.384989   0.381842   0.380911
    16  H    0.000000  -0.000000   0.384989   0.571024  -0.026767  -0.026064
    17  H    0.000000  -0.000000   0.381842  -0.026767   0.592518  -0.036783
    18  H   -0.000000   0.000000   0.380911  -0.026064  -0.036783   0.589275
    19  C   -0.000000   0.000000   0.370330  -0.033491  -0.037010  -0.034982
    20  C    0.000000  -0.000000  -0.077687   0.004764  -0.001230  -0.001662
    21  H   -0.000000   0.000000   0.004850  -0.000171  -0.000044  -0.000021
    22  H   -0.000000   0.000000  -0.003474  -0.000000  -0.000863   0.004428
    23  H   -0.000000  -0.000000  -0.002048  -0.000057   0.003664  -0.000660
    24  C   -0.000000   0.000000  -0.038821  -0.005139  -0.000834  -0.001108
    25  H   -0.000000   0.000000  -0.013964   0.006407   0.000233   0.000243
    26  C    0.000029  -0.000006   0.005843   0.000103  -0.000107  -0.000205
    27  H   -0.000007   0.000002  -0.000160  -0.000010   0.000000   0.000006
    28  H   -0.000000   0.000000   0.000010   0.000008  -0.000012   0.000025
              19         20         21         22         23         24
     1  C   -0.005049  -0.000985  -0.001510   0.000010   0.000164  -0.045817
     2  H    0.000176  -0.000057   0.000121   0.000002  -0.000019   0.005690
     3  H    0.002589   0.001010   0.001031   0.000042   0.000133  -0.006602
     4  C   -0.001245   0.000095   0.000055  -0.000004   0.000030  -0.009802
     5  C   -0.000493  -0.000070   0.000012   0.000001   0.000008   0.001561
     6  H    0.000097   0.000000   0.000000   0.000000  -0.000004   0.000367
     7  H    0.000793   0.000021  -0.000019   0.000003   0.000150   0.000860
     8  H    0.000038   0.000020  -0.000002   0.000000  -0.000012   0.001411
     9  C   -0.000018  -0.000002  -0.000000   0.000000   0.000000  -0.000474
    10  H    0.000001   0.000000   0.000000  -0.000000  -0.000000   0.000041
    11  C   -0.000000  -0.000000  -0.000000  -0.000000  -0.000000   0.000006
    12  H   -0.000000  -0.000000  -0.000000  -0.000000   0.000000  -0.000002
    13  H   -0.000000   0.000000  -0.000000  -0.000000  -0.000000  -0.000000
    14  H    0.000000  -0.000000   0.000000   0.000000  -0.000000   0.000000
    15  C    0.370330  -0.077687   0.004850  -0.003474  -0.002048  -0.038821
    16  H   -0.033491   0.004764  -0.000171  -0.000000  -0.000057  -0.005139
    17  H   -0.037010  -0.001230  -0.000044  -0.000863   0.003664  -0.000834
    18  H   -0.034982  -0.001662  -0.000021   0.004428  -0.000660  -0.001108
    19  C    4.730806   0.379658  -0.027194  -0.036086  -0.034648   0.714588
    20  C    0.379658   5.006394   0.383537   0.383569   0.382924  -0.056534
    21  H   -0.027194   0.383537   0.575172  -0.026793  -0.028512  -0.010235
    22  H   -0.036086   0.383569  -0.026793   0.583800  -0.034289   0.001541
    23  H   -0.034648   0.382924  -0.028512  -0.034289   0.583161  -0.000324
    24  C    0.714588  -0.056534  -0.010235   0.001541  -0.000324   4.924709
    25  H   -0.036316   0.006430   0.000047  -0.000163  -0.000161   0.379269
    26  C   -0.044340  -0.012264   0.003753  -0.000030   0.000491   0.359809
    27  H    0.004178   0.000324  -0.000030   0.000007  -0.000014  -0.029604
    28  H   -0.008527   0.000069   0.002668   0.000280  -0.000275  -0.038766
              25         26         27         28
     1  C    0.001216   0.350392  -0.040856  -0.035522
     2  H   -0.000154  -0.034075  -0.003097  -0.004166
     3  H   -0.000077  -0.046706   0.006059  -0.004164
     4  C    0.001817  -0.051324  -0.002743   0.005295
     5  C   -0.001778  -0.000753  -0.000044  -0.000161
     6  H    0.000040  -0.000039   0.000001   0.000005
     7  H   -0.000014  -0.001155   0.000083   0.000003
     8  H    0.001299   0.000641  -0.000049  -0.000001
     9  C    0.000031  -0.006715   0.002865   0.000074
    10  H   -0.000001   0.000232   0.000445  -0.000052
    11  C   -0.000001  -0.000081  -0.000116   0.000004
    12  H    0.000000  -0.000007   0.000002   0.000000
    13  H   -0.000000   0.000029  -0.000007  -0.000000
    14  H    0.000000  -0.000006   0.000002   0.000000
    15  C   -0.013964   0.005843  -0.000160   0.000010
    16  H    0.006407   0.000103  -0.000010   0.000008
    17  H    0.000233  -0.000107   0.000000  -0.000012
    18  H    0.000243  -0.000205   0.000006   0.000025
    19  C   -0.036316  -0.044340   0.004178  -0.008527
    20  C    0.006430  -0.012264   0.000324   0.000069
    21  H    0.000047   0.003753  -0.000030   0.002668
    22  H   -0.000163  -0.000030   0.000007   0.000280
    23  H   -0.000161   0.000491  -0.000014  -0.000275
    24  C    0.379269   0.359809  -0.029604  -0.038766
    25  H    0.610271  -0.049398  -0.006514   0.004327
    26  C   -0.049398   5.007078   0.381367   0.383326
    27  H   -0.006514   0.381367   0.600713  -0.031270
    28  H    0.004327   0.383326  -0.031270   0.607259
 Mulliken charges:
               1
     1  C   -0.251960
     2  H    0.112809
     3  H    0.107545
     4  C    0.095876
     5  C   -0.387758
     6  H    0.122846
     7  H    0.119834
     8  H    0.131602
     9  C   -0.139036
    10  H    0.094478
    11  C   -0.394933
    12  H    0.121117
    13  H    0.132147
    14  H    0.131444
    15  C   -0.394891
    16  H    0.124296
    17  H    0.125275
    18  H    0.126597
    19  C    0.096148
    20  C   -0.398326
    21  H    0.123286
    22  H    0.128017
    23  H    0.130296
    24  C   -0.145790
    25  H    0.096912
    26  C   -0.245860
    27  H    0.118463
    28  H    0.119564
 Sum of Mulliken charges =  -0.00000
 Mulliken charges with hydrogens summed into heavy atoms:
               1
     1  C   -0.031606
     4  C    0.095876
     5  C   -0.013475
     9  C   -0.044558
    11  C   -0.010224
    15  C   -0.018722
    19  C    0.096148
    20  C   -0.016727
    24  C   -0.048878
    26  C   -0.007834
 Electronic spatial extent (au):  <R**2>=           2240.0796
 Charge=             -0.0000 electrons
 Dipole moment (field-independent basis, Debye):
    X=             -0.3236    Y=             -0.1488    Z=              0.1515  Tot=              0.3871
 Quadrupole moment (field-independent basis, Debye-Ang):
   XX=            -62.4636   YY=            -63.3841   ZZ=            -65.6163
   XY=              0.1438   XZ=             -2.1210   YZ=              0.1622
 Traceless Quadrupole moment (field-independent basis, Debye-Ang):
   XX=              1.3577   YY=              0.4373   ZZ=             -1.7950
   XY=              0.1438   XZ=             -2.1210   YZ=              0.1622
 Octapole moment (field-independent basis, Debye-Ang**2):
  XXX=             -0.2404  YYY=              1.5444  ZZZ=              0.1079  XYY=              1.2713
  XXY=             -1.5241  XXZ=              1.0189  XZZ=             -0.5049  YZZ=             -2.7028
  YYZ=             -0.6798  XYZ=             -2.1298
 Hexadecapole moment (field-independent basis, Debye-Ang**3):
 XXXX=          -2269.9924 YYYY=           -499.6917 ZZZZ=           -256.9551 XXXY=              2.2578
 XXXZ=            -11.5423 YYYX=             -0.6616 YYYZ=              0.5289 ZZZX=            -10.9605
 ZZZY=              0.2945 XXYY=           -472.9710 XXZZ=           -441.0498 YYZZ=           -126.9082
 XXYZ=             -2.6215 YYXZ=              0.5559 ZZXY=              2.6277
 N-N= 5.276204733749D+02 E-N=-1.960368660150D+03  KE= 3.881313329679D+02
 No NMR shielding tensors so no spin-rotation constants.
 Leave Link  601 at Mon Jul 19 22:09:40 2021, MaxMem=   524288000 cpu:               0.9 elap:               0.3
 (Enter /opt/gaussian/g16_legacy/l9999.exe)
 1\1\GINC-TRUENO90\FOpt\RM062X\6-31G(d,p)\C10H18\JRAMOS\19-Jul-2021\0\\
 #p opt=loose m062x/6-31g(d,p)\\Conformer number 030. Energy MM = 27.34
 0 kcal/mol\\0,1\C,2.3163744826,1.1733058477,-8.9141947397\H,1.96077669
 84,0.1454325362,-9.0446841003\H,2.2138386363,1.6778481796,-9.884211754
 8\C,3.7738125554,1.1472251045,-8.5113195748\C,4.5549344954,2.428145701
 1,-8.6945979149\H,5.6150036309,2.2391328963,-8.8759483507\H,4.16100946
 14,2.9973112449,-9.5416760762\H,4.4748949749,3.0808989264,-7.818814271
 2\C,4.3032492792,0.0264371929,-8.0088585959\H,3.6522935386,-0.84511615
 61,-7.932453222\C,5.7048588398,-0.1790386935,-7.5151894417\H,6.3153575
 853,0.7216365804,-7.5952687206\H,5.7004370877,-0.4821618395,-6.4625303
 422\H,6.2039141934,-0.9801002317,-8.0712642495\C,1.7602535055,5.762702
 729,-8.2135861473\H,2.340275632,5.8375600006,-7.2910762718\H,2.3653897
 965,6.1671357092,-9.0337654507\H,0.8810116123,6.4111014517,-8.12224076
 9\C,1.35366566,4.3423983536,-8.5014275235\C,0.5596760795,4.1568704349,
 -9.7671559658\H,0.20996042,3.1321731307,-9.9031829756\H,-0.3118749375,
 4.8212940116,-9.7752050591\H,1.1665691077,4.424663134,-10.6405338384\C
 ,1.7012497772,3.3392282073,-7.6890103572\H,2.290193899,3.5876669964,-6
 .806702693\C,1.3912986157,1.8782932245,-7.8973510745\H,1.4719880076,1.
 3508634783,-6.941367361\H,0.3554873655,1.7562918489,-8.2346831586\\Ver
 sion=EM64L-G16RevA.03\State=1-A\HF=-391.6884111\RMSD=5.802e-09\RMSF=5.
 762e-06\Dipole=-0.0240406,0.1358284,-0.0645165\Quadrupole=-0.0870804,0
 .8641236,-0.7770432,-0.0826989,1.4134997,-1.1320702\PG=C01 [X(C10H18)]
 \\@


 MOM AND DAD WENT TO ALPHA CENTAURI AND ALL
 I GOT WAS THIS DUMB T-SHIRT.
 Job cpu time:       0 days  1 hours 28 minutes 59.1 seconds.
 Elapsed time:       0 days  0 hours 23 minutes 22.0 seconds.
 File lengths (MBytes):  RWF=     33 Int=      0 D2E=      0 Chk=      6 Scr=      1
 Normal termination of Gaussian 16 at Mon Jul 19 22:09:41 2021.
