 Entering Gaussian System, Link 0=/opt/gaussian/g16_legacy/g16
 Input=IsoP_pybabel_01_041_gaussian.com
 Output=IsoP_pybabel_01_041_gaussian.log
 Initial command:
 /opt/gaussian/g16_legacy/l1.exe "/scratch-local/jramos/2644953/Gau-3293.inp" -scrdir="/scratch-local/jramos/2644953/"
 Entering Link 1 = /opt/gaussian/g16_legacy/l1.exe PID=      3294.
  
 Copyright (c) 1988,1990,1992,1993,1995,1998,2003,2009,2016,
            Gaussian, Inc.  All Rights Reserved.
  
 This is part of the Gaussian(R) 16 program.  It is based on
 the Gaussian(R) 09 system (copyright 2009, Gaussian, Inc.),
 the Gaussian(R) 03 system (copyright 2003, Gaussian, Inc.),
 the Gaussian(R) 98 system (copyright 1998, Gaussian, Inc.),
 the Gaussian(R) 94 system (copyright 1995, Gaussian, Inc.),
 the Gaussian 92(TM) system (copyright 1992, Gaussian, Inc.),
 the Gaussian 90(TM) system (copyright 1990, Gaussian, Inc.),
 the Gaussian 88(TM) system (copyright 1988, Gaussian, Inc.),
 the Gaussian 86(TM) system (copyright 1986, Carnegie Mellon
 University), and the Gaussian 82(TM) system (copyright 1983,
 Carnegie Mellon University). Gaussian is a federally registered
 trademark of Gaussian, Inc.
  
 This software contains proprietary and confidential information,
 including trade secrets, belonging to Gaussian, Inc.
  
 This software is provided under written license and may be
 used, copied, transmitted, or stored only in accord with that
 written license.
  
 The following legend is applicable only to US Government
 contracts under FAR:
  
                    RESTRICTED RIGHTS LEGEND
  
 Use, reproduction and disclosure by the US Government is
 subject to restrictions as set forth in subparagraphs (a)
 and (c) of the Commercial Computer Software - Restricted
 Rights clause in FAR 52.227-19.
  
 Gaussian, Inc.
 340 Quinnipiac St., Bldg. 40, Wallingford CT 06492
  
  
 ---------------------------------------------------------------
 Warning -- This program may not be used in any manner that
 competes with the business of Gaussian, Inc. or will provide
 assistance to any competitor of Gaussian, Inc.  The licensee
 of this program is prohibited from giving any competitor of
 Gaussian, Inc. access to this program.  By using this program,
 the user acknowledges that Gaussian, Inc. is engaged in the
 business of creating and licensing software in the field of
 computational chemistry and represents and warrants to the
 licensee that it is not a competitor of Gaussian, Inc. and that
 it will not use this program in any manner prohibited above.
 ---------------------------------------------------------------
  

 Cite this work as:
 Gaussian 16, Revision A.03,
 M. J. Frisch, G. W. Trucks, H. B. Schlegel, G. E. Scuseria, 
 M. A. Robb, J. R. Cheeseman, G. Scalmani, V. Barone, 
 G. A. Petersson, H. Nakatsuji, X. Li, M. Caricato, A. V. Marenich, 
 J. Bloino, B. G. Janesko, R. Gomperts, B. Mennucci, H. P. Hratchian, 
 J. V. Ortiz, A. F. Izmaylov, J. L. Sonnenberg, D. Williams-Young, 
 F. Ding, F. Lipparini, F. Egidi, J. Goings, B. Peng, A. Petrone, 
 T. Henderson, D. Ranasinghe, V. G. Zakrzewski, J. Gao, N. Rega, 
 G. Zheng, W. Liang, M. Hada, M. Ehara, K. Toyota, R. Fukuda, 
 J. Hasegawa, M. Ishida, T. Nakajima, Y. Honda, O. Kitao, H. Nakai, 
 T. Vreven, K. Throssell, J. A. Montgomery, Jr., J. E. Peralta, 
 F. Ogliaro, M. J. Bearpark, J. J. Heyd, E. N. Brothers, K. N. Kudin, 
 V. N. Staroverov, T. A. Keith, R. Kobayashi, J. Normand, 
 K. Raghavachari, A. P. Rendell, J. C. Burant, S. S. Iyengar, 
 J. Tomasi, M. Cossi, J. M. Millam, M. Klene, C. Adamo, R. Cammi, 
 J. W. Ochterski, R. L. Martin, K. Morokuma, O. Farkas, 
 J. B. Foresman, and D. J. Fox, Gaussian, Inc., Wallingford CT, 2016.
 
 ******************************************
 Gaussian 16:  EM64L-G16RevA.03 25-Dec-2016
                19-Jul-2021 
 ******************************************
 %chk=IsoP_pybabel_01_041_gaussian.chk
 %nproc=4
 Will use up to    4 processors via shared memory.
 %mem=4000Mb
 -----------------------------
 #p opt=loose m062x/6-31g(d,p)
 -----------------------------
 1/7=-1,18=20,19=15,26=3,38=1/1,3;
 2/9=110,12=2,17=6,18=5,40=1/2;
 3/5=1,6=6,7=101,11=2,25=1,30=1,71=1,74=-55/1,2,3;
 4//1;
 5/5=2,38=5/2;
 6/7=2,8=2,9=2,10=2,28=1/1;
 7//1,2,3,16;
 1/7=-1,18=20,19=15,26=3/3(2);
 2/9=110/2;
 99//99;
 2/9=110/2;
 3/5=1,6=6,7=101,11=2,25=1,30=1,71=1,74=-55/1,2,3;
 4/5=5,16=3,69=1/1;
 5/5=2,38=5/2;
 7//1,2,3,16;
 1/7=-1,18=20,19=15,26=3/3(-5);
 2/9=110/2;
 6/7=2,8=2,9=2,10=2,19=2,28=1/1;
 99/9=1/99;
 Leave Link    1 at Mon Jul 19 22:09:42 2021, MaxMem=   524288000 cpu:               0.2 elap:               0.1
 (Enter /opt/gaussian/g16_legacy/l101.exe)
 -------------------------------------------------
 Conformer number 041. Energy MM = 26.841 kcal/mol
 -------------------------------------------------
 Symbolic Z-matrix:
 Charge =  0 Multiplicity = 1
 C                     2.174     1.2648   -9.0656 
 H                     1.8241    0.2567   -9.3255 
 H                     1.9748    1.8757   -9.9554 
 C                     3.6682    1.2234   -8.7905 
 C                     4.4511    2.4459   -9.1926 
 H                     5.4467    2.1835   -9.5649 
 H                     3.9518    2.9874   -10.003 
 H                     4.5671    3.1302   -8.3484 
 C                     4.2246    0.1497   -8.195 
 H                     3.5874   -0.6971   -7.9435 
 C                     5.642     0.0159   -7.7351 
 H                     6.2268    0.9309   -7.8673 
 H                     5.6537   -0.2222   -6.6671 
 H                     6.1392   -0.7943   -8.2743 
 C                     2.8621    4.9045   -6.0837 
 H                     2.2973    5.6071   -6.7031 
 H                     2.6542    5.1393   -5.0354 
 H                     3.9275    5.0727   -6.2735 
 C                     2.5119    3.4707   -6.3808 
 C                     3.1887    2.4719   -5.4815 
 H                     3.0669    1.4383   -5.8044 
 H                     4.2656    2.6685   -5.4423 
 H                     2.7864    2.5483   -4.4638 
 C                     1.7109    3.1559   -7.4204 
 H                     1.3011    3.9616   -8.0282 
 C                     1.3322    1.774    -7.8816 
 H                     1.3746    1.0521   -7.0565 
 H                     0.2793    1.7964   -8.1862 
 
 ITRead=  0  0  0  0  0  0  0  0  0  0  0  0  0  0  0  0  0  0  0  0
 ITRead=  0  0  0  0  0  0  0  0
 MicOpt= -1 -1 -1 -1 -1 -1 -1 -1 -1 -1 -1 -1 -1 -1 -1 -1 -1 -1 -1 -1
 MicOpt= -1 -1 -1 -1 -1 -1 -1 -1
 NAtoms=     28 NQM=       28 NQMF=       0 NMMI=      0 NMMIF=      0
                NMic=       0 NMicF=      0.
                    Isotopes and Nuclear Properties:
 (Nuclear quadrupole moments (NQMom) in fm**2, nuclear magnetic moments (NMagM)
  in nuclear magnetons)

  Atom         1           2           3           4           5           6           7           8           9          10
 IAtWgt=          12           1           1          12          12           1           1           1          12           1
 AtmWgt=  12.0000000   1.0078250   1.0078250  12.0000000  12.0000000   1.0078250   1.0078250   1.0078250  12.0000000   1.0078250
 NucSpn=           0           1           1           0           0           1           1           1           0           1
 AtZEff=  -0.0000000  -0.0000000  -0.0000000  -0.0000000  -0.0000000  -0.0000000  -0.0000000  -0.0000000  -0.0000000  -0.0000000
 NQMom=    0.0000000   0.0000000   0.0000000   0.0000000   0.0000000   0.0000000   0.0000000   0.0000000   0.0000000   0.0000000
 NMagM=    0.0000000   2.7928460   2.7928460   0.0000000   0.0000000   2.7928460   2.7928460   2.7928460   0.0000000   2.7928460
 AtZNuc=   6.0000000   1.0000000   1.0000000   6.0000000   6.0000000   1.0000000   1.0000000   1.0000000   6.0000000   1.0000000

  Atom        11          12          13          14          15          16          17          18          19          20
 IAtWgt=          12           1           1           1          12           1           1           1          12          12
 AtmWgt=  12.0000000   1.0078250   1.0078250   1.0078250  12.0000000   1.0078250   1.0078250   1.0078250  12.0000000  12.0000000
 NucSpn=           0           1           1           1           0           1           1           1           0           0
 AtZEff=  -0.0000000  -0.0000000  -0.0000000  -0.0000000  -0.0000000  -0.0000000  -0.0000000  -0.0000000  -0.0000000  -0.0000000
 NQMom=    0.0000000   0.0000000   0.0000000   0.0000000   0.0000000   0.0000000   0.0000000   0.0000000   0.0000000   0.0000000
 NMagM=    0.0000000   2.7928460   2.7928460   2.7928460   0.0000000   2.7928460   2.7928460   2.7928460   0.0000000   0.0000000
 AtZNuc=   6.0000000   1.0000000   1.0000000   1.0000000   6.0000000   1.0000000   1.0000000   1.0000000   6.0000000   6.0000000

  Atom        21          22          23          24          25          26          27          28
 IAtWgt=           1           1           1          12           1          12           1           1
 AtmWgt=   1.0078250   1.0078250   1.0078250  12.0000000   1.0078250  12.0000000   1.0078250   1.0078250
 NucSpn=           1           1           1           0           1           0           1           1
 AtZEff=  -0.0000000  -0.0000000  -0.0000000  -0.0000000  -0.0000000  -0.0000000  -0.0000000  -0.0000000
 NQMom=    0.0000000   0.0000000   0.0000000   0.0000000   0.0000000   0.0000000   0.0000000   0.0000000
 NMagM=    2.7928460   2.7928460   2.7928460   0.0000000   2.7928460   0.0000000   2.7928460   2.7928460
 AtZNuc=   1.0000000   1.0000000   1.0000000   6.0000000   1.0000000   6.0000000   1.0000000   1.0000000
 Leave Link  101 at Mon Jul 19 22:09:43 2021, MaxMem=   524288000 cpu:               1.0 elap:               0.3
 (Enter /opt/gaussian/g16_legacy/l103.exe)

 GradGradGradGradGradGradGradGradGradGradGradGradGradGradGradGradGradGrad
 Berny optimization.
 Initialization pass.
                           ----------------------------
                           !    Initial Parameters    !
                           ! (Angstroms and Degrees)  !
 --------------------------                            --------------------------
 ! Name  Definition              Value          Derivative Info.                !
 --------------------------------------------------------------------------------
 ! R1    R(1,2)                  1.0983         estimate D2E/DX2                !
 ! R2    R(1,3)                  1.0976         estimate D2E/DX2                !
 ! R3    R(1,4)                  1.5199         estimate D2E/DX2                !
 ! R4    R(1,26)                 1.5394         estimate D2E/DX2                !
 ! R5    R(4,5)                  1.5064         estimate D2E/DX2                !
 ! R6    R(4,9)                  1.348          estimate D2E/DX2                !
 ! R7    R(5,6)                  1.0948         estimate D2E/DX2                !
 ! R8    R(5,7)                  1.0951         estimate D2E/DX2                !
 ! R9    R(5,8)                  1.0929         estimate D2E/DX2                !
 ! R10   R(9,10)                 1.0892         estimate D2E/DX2                !
 ! R11   R(9,11)                 1.4961         estimate D2E/DX2                !
 ! R12   R(11,12)                1.0939         estimate D2E/DX2                !
 ! R13   R(11,13)                1.0943         estimate D2E/DX2                !
 ! R14   R(11,14)                1.0929         estimate D2E/DX2                !
 ! R15   R(15,16)                1.0938         estimate D2E/DX2                !
 ! R16   R(15,17)                1.0942         estimate D2E/DX2                !
 ! R17   R(15,18)                1.0952         estimate D2E/DX2                !
 ! R18   R(15,19)                1.5056         estimate D2E/DX2                !
 ! R19   R(19,20)                1.5048         estimate D2E/DX2                !
 ! R20   R(19,24)                1.3496         estimate D2E/DX2                !
 ! R21   R(20,21)                1.0897         estimate D2E/DX2                !
 ! R22   R(20,22)                1.0954         estimate D2E/DX2                !
 ! R23   R(20,23)                1.097          estimate D2E/DX2                !
 ! R24   R(24,25)                1.0893         estimate D2E/DX2                !
 ! R25   R(24,26)                1.5052         estimate D2E/DX2                !
 ! R26   R(26,27)                1.0971         estimate D2E/DX2                !
 ! R27   R(26,28)                1.0963         estimate D2E/DX2                !
 ! A1    A(2,1,3)              105.1428         estimate D2E/DX2                !
 ! A2    A(2,1,4)              109.3315         estimate D2E/DX2                !
 ! A3    A(2,1,26)             108.144          estimate D2E/DX2                !
 ! A4    A(3,1,4)              109.897          estimate D2E/DX2                !
 ! A5    A(3,1,26)             109.888          estimate D2E/DX2                !
 ! A6    A(4,1,26)             114.0412         estimate D2E/DX2                !
 ! A7    A(1,4,5)              116.1375         estimate D2E/DX2                !
 ! A8    A(1,4,9)              120.4943         estimate D2E/DX2                !
 ! A9    A(5,4,9)              123.3552         estimate D2E/DX2                !
 ! A10   A(4,5,6)              111.6468         estimate D2E/DX2                !
 ! A11   A(4,5,7)              111.2147         estimate D2E/DX2                !
 ! A12   A(4,5,8)              110.9235         estimate D2E/DX2                !
 ! A13   A(6,5,7)              106.3482         estimate D2E/DX2                !
 ! A14   A(6,5,8)              108.4344         estimate D2E/DX2                !
 ! A15   A(7,5,8)              108.084          estimate D2E/DX2                !
 ! A16   A(4,9,10)             118.6721         estimate D2E/DX2                !
 ! A17   A(4,9,11)             126.7322         estimate D2E/DX2                !
 ! A18   A(10,9,11)            114.439          estimate D2E/DX2                !
 ! A19   A(9,11,12)            113.2348         estimate D2E/DX2                !
 ! A20   A(9,11,13)            109.2443         estimate D2E/DX2                !
 ! A21   A(9,11,14)            110.2211         estimate D2E/DX2                !
 ! A22   A(12,11,13)           107.1111         estimate D2E/DX2                !
 ! A23   A(12,11,14)           108.497          estimate D2E/DX2                !
 ! A24   A(13,11,14)           108.3824         estimate D2E/DX2                !
 ! A25   A(16,15,17)           107.8538         estimate D2E/DX2                !
 ! A26   A(16,15,18)           107.7911         estimate D2E/DX2                !
 ! A27   A(16,15,19)           112.327          estimate D2E/DX2                !
 ! A28   A(17,15,18)           108.5369         estimate D2E/DX2                !
 ! A29   A(17,15,19)           110.4396         estimate D2E/DX2                !
 ! A30   A(18,15,19)           109.7762         estimate D2E/DX2                !
 ! A31   A(15,19,20)           114.1773         estimate D2E/DX2                !
 ! A32   A(15,19,24)           120.81           estimate D2E/DX2                !
 ! A33   A(20,19,24)           124.922          estimate D2E/DX2                !
 ! A34   A(19,20,21)           113.7169         estimate D2E/DX2                !
 ! A35   A(19,20,22)           110.1468         estimate D2E/DX2                !
 ! A36   A(19,20,23)           110.0755         estimate D2E/DX2                !
 ! A37   A(21,20,22)           106.9017         estimate D2E/DX2                !
 ! A38   A(21,20,23)           107.4559         estimate D2E/DX2                !
 ! A39   A(22,20,23)           108.351          estimate D2E/DX2                !
 ! A40   A(19,24,25)           118.7226         estimate D2E/DX2                !
 ! A41   A(19,24,26)           126.8318         estimate D2E/DX2                !
 ! A42   A(25,24,26)           114.4213         estimate D2E/DX2                !
 ! A43   A(1,26,24)            113.6878         estimate D2E/DX2                !
 ! A44   A(1,26,27)            109.8549         estimate D2E/DX2                !
 ! A45   A(1,26,28)            108.5569         estimate D2E/DX2                !
 ! A46   A(24,26,27)           111.341          estimate D2E/DX2                !
 ! A47   A(24,26,28)           107.9386         estimate D2E/DX2                !
 ! A48   A(27,26,28)           105.041          estimate D2E/DX2                !
 ! D1    D(2,1,4,5)            145.9031         estimate D2E/DX2                !
 ! D2    D(2,1,4,9)            -35.3659         estimate D2E/DX2                !
 ! D3    D(3,1,4,5)             30.9814         estimate D2E/DX2                !
 ! D4    D(3,1,4,9)           -150.2875         estimate D2E/DX2                !
 ! D5    D(26,1,4,5)           -92.9085         estimate D2E/DX2                !
 ! D6    D(26,1,4,9)            85.8226         estimate D2E/DX2                !
 ! D7    D(2,1,26,24)          179.9841         estimate D2E/DX2                !
 ! D8    D(2,1,26,27)           54.4675         estimate D2E/DX2                !
 ! D9    D(2,1,26,28)          -59.8797         estimate D2E/DX2                !
 ! D10   D(3,1,26,24)          -65.756          estimate D2E/DX2                !
 ! D11   D(3,1,26,27)          168.7275         estimate D2E/DX2                !
 ! D12   D(3,1,26,28)           54.3802         estimate D2E/DX2                !
 ! D13   D(4,1,26,24)           58.1387         estimate D2E/DX2                !
 ! D14   D(4,1,26,27)          -67.3778         estimate D2E/DX2                !
 ! D15   D(4,1,26,28)          178.2749         estimate D2E/DX2                !
 ! D16   D(1,4,5,6)           -144.1641         estimate D2E/DX2                !
 ! D17   D(1,4,5,7)            -25.5505         estimate D2E/DX2                !
 ! D18   D(1,4,5,8)             94.7738         estimate D2E/DX2                !
 ! D19   D(9,4,5,6)             37.145          estimate D2E/DX2                !
 ! D20   D(9,4,5,7)            155.7586         estimate D2E/DX2                !
 ! D21   D(9,4,5,8)            -83.9171         estimate D2E/DX2                !
 ! D22   D(1,4,9,10)             1.8229         estimate D2E/DX2                !
 ! D23   D(1,4,9,11)          -173.3553         estimate D2E/DX2                !
 ! D24   D(5,4,9,10)          -179.541          estimate D2E/DX2                !
 ! D25   D(5,4,9,11)             5.2808         estimate D2E/DX2                !
 ! D26   D(4,9,11,12)            3.6932         estimate D2E/DX2                !
 ! D27   D(4,9,11,13)          122.9695         estimate D2E/DX2                !
 ! D28   D(4,9,11,14)         -118.0473         estimate D2E/DX2                !
 ! D29   D(10,9,11,12)        -171.6603         estimate D2E/DX2                !
 ! D30   D(10,9,11,13)         -52.384          estimate D2E/DX2                !
 ! D31   D(10,9,11,14)          66.5992         estimate D2E/DX2                !
 ! D32   D(16,15,19,20)       -175.6628         estimate D2E/DX2                !
 ! D33   D(16,15,19,24)          7.6342         estimate D2E/DX2                !
 ! D34   D(17,15,19,20)        -55.2146         estimate D2E/DX2                !
 ! D35   D(17,15,19,24)        128.0824         estimate D2E/DX2                !
 ! D36   D(18,15,19,20)         64.4249         estimate D2E/DX2                !
 ! D37   D(18,15,19,24)       -112.2781         estimate D2E/DX2                !
 ! D38   D(15,19,20,21)       -170.2055         estimate D2E/DX2                !
 ! D39   D(15,19,20,22)        -50.2438         estimate D2E/DX2                !
 ! D40   D(15,19,20,23)         69.171          estimate D2E/DX2                !
 ! D41   D(24,19,20,21)          6.3407         estimate D2E/DX2                !
 ! D42   D(24,19,20,22)        126.3024         estimate D2E/DX2                !
 ! D43   D(24,19,20,23)       -114.2828         estimate D2E/DX2                !
 ! D44   D(15,19,24,25)         -1.4803         estimate D2E/DX2                !
 ! D45   D(15,19,24,26)        176.6186         estimate D2E/DX2                !
 ! D46   D(20,19,24,25)       -177.8115         estimate D2E/DX2                !
 ! D47   D(20,19,24,26)          0.2874         estimate D2E/DX2                !
 ! D48   D(19,24,26,1)         -98.1748         estimate D2E/DX2                !
 ! D49   D(19,24,26,27)         26.5476         estimate D2E/DX2                !
 ! D50   D(19,24,26,28)        141.3403         estimate D2E/DX2                !
 ! D51   D(25,24,26,1)          79.9943         estimate D2E/DX2                !
 ! D52   D(25,24,26,27)       -155.2833         estimate D2E/DX2                !
 ! D53   D(25,24,26,28)        -40.4907         estimate D2E/DX2                !
 --------------------------------------------------------------------------------
 Trust Radius=3.00D-01 FncErr=1.00D-07 GrdErr=1.00D-06 EigMax=2.50D+02 EigMin=1.00D-04
 Number of steps in this run=    138 maximum allowed number of steps=    168.
 GradGradGradGradGradGradGradGradGradGradGradGradGradGradGradGradGradGrad

 Leave Link  103 at Mon Jul 19 22:09:43 2021, MaxMem=   524288000 cpu:               0.2 elap:               0.1
 (Enter /opt/gaussian/g16_legacy/l202.exe)
                          Input orientation:                          
 ---------------------------------------------------------------------
 Center     Atomic      Atomic             Coordinates (Angstroms)
 Number     Number       Type             X           Y           Z
 ---------------------------------------------------------------------
      1          6           0        2.174000    1.264800   -9.065600
      2          1           0        1.824100    0.256700   -9.325500
      3          1           0        1.974800    1.875700   -9.955400
      4          6           0        3.668200    1.223400   -8.790500
      5          6           0        4.451100    2.445900   -9.192600
      6          1           0        5.446700    2.183500   -9.564900
      7          1           0        3.951800    2.987400  -10.003000
      8          1           0        4.567100    3.130200   -8.348400
      9          6           0        4.224600    0.149700   -8.195000
     10          1           0        3.587400   -0.697100   -7.943500
     11          6           0        5.642000    0.015900   -7.735100
     12          1           0        6.226800    0.930900   -7.867300
     13          1           0        5.653700   -0.222200   -6.667100
     14          1           0        6.139200   -0.794300   -8.274300
     15          6           0        2.862100    4.904500   -6.083700
     16          1           0        2.297300    5.607100   -6.703100
     17          1           0        2.654200    5.139300   -5.035400
     18          1           0        3.927500    5.072700   -6.273500
     19          6           0        2.511900    3.470700   -6.380800
     20          6           0        3.188700    2.471900   -5.481500
     21          1           0        3.066900    1.438300   -5.804400
     22          1           0        4.265600    2.668500   -5.442300
     23          1           0        2.786400    2.548300   -4.463800
     24          6           0        1.710900    3.155900   -7.420400
     25          1           0        1.301100    3.961600   -8.028200
     26          6           0        1.332200    1.774000   -7.881600
     27          1           0        1.374600    1.052100   -7.056500
     28          1           0        0.279300    1.796400   -8.186200
 ---------------------------------------------------------------------
                    Distance matrix (angstroms):
                    1          2          3          4          5
     1  C    0.000000
     2  H    1.098291   0.000000
     3  H    1.097553   1.743745   0.000000
     4  C    1.519877   2.149753   2.156407   0.000000
     5  C    2.568328   3.422191   2.653121   1.506361   0.000000
     6  H    3.435677   4.110122   3.507324   2.164382   1.094843
     7  H    2.647006   3.527440   2.268628   2.159232   1.095112
     8  H    3.117855   4.090938   3.297914   2.153917   1.092884
     9  C    2.491255   2.655538   3.337617   1.347974   2.513771
    10  H    2.665682   2.434930   3.642461   2.100538   3.490656
    11  C    3.918802   4.142912   4.673002   2.543189   3.073670
    12  H    4.239410   4.686647   4.830353   2.735743   2.684168
    13  H    4.480210   4.686392   5.361754   3.246659   3.865638
    14  H    4.537495   4.563958   5.224675   3.231628   3.767208
    15  C    4.755273   5.760968   4.995097   4.639726   4.270234
    16  H    4.944914   5.977264   4.960323   5.045139   4.563951
    17  H    5.611137   6.552389   5.942985   5.519352   5.269304
    18  H    5.036932   6.077240   5.252641   4.606478   3.961740
    19  C    3.491178   4.412949   3.950983   3.491997   3.566081
    20  C    3.915671   4.641722   4.673841   3.569055   3.920025
    21  H    3.385675   3.916488   4.314487   3.053610   3.796204
    22  H    4.412875   5.182369   5.122926   3.695354   3.761477
    23  H    4.816531   5.460181   5.591847   4.610126   5.014306
    24  C    2.549001   3.470963   2.852154   3.072906   3.339684
    25  H    3.018424   3.960152   2.918724   3.698919   3.684518
    26  C    1.539405   2.151514   2.173459   2.566351   3.449305
    27  H    2.172732   2.446032   3.072813   2.880399   3.996305
    28  H    2.155419   2.460709   2.451750   3.489721   4.340346
                    6          7          8          9         10
     6  H    0.000000
     7  H    1.752973   0.000000
     8  H    1.774770   1.771069   0.000000
     9  C    2.739799   3.375770   3.004034   0.000000
    10  H    3.792597   4.236728   3.971395   1.089195   0.000000
    11  C    2.843378   4.102433   3.351181   1.496139   2.184761
    12  H    2.249313   3.737115   2.796959   2.174044   3.102035
    13  H    3.771934   4.932162   3.904620   2.124880   2.474737
    14  H    3.318508   4.698338   4.228320   2.136146   2.574987
    15  C    5.118862   4.497069   3.344254   5.377929   5.946666
    16  H    5.461653   4.526537   3.740861   5.976911   6.553311
    17  H    6.086968   5.567000   4.321069   6.111083   6.587220
    18  H    4.635597   4.272966   2.913349   5.293048   6.016241
    19  C    4.517569   3.927750   2.865526   4.153758   4.579224
    20  C    4.675029   4.614328   3.248455   3.718707   4.032737
    21  H    4.512220   4.561908   3.403684   2.952241   3.067018
    22  H    4.315791   4.582592   2.957953   3.731406   4.247731
    23  H    5.764677   5.677473   4.312727   4.662998   4.825198
    24  C    4.415953   3.423426   3.003285   3.994488   4.317464
    25  H    4.765405   3.446028   3.385338   4.806793   5.190166
    26  C    4.464336   3.582594   3.538610   3.332049   3.346056
    27  H    4.914686   4.366830   4.022383   3.198907   2.956849
    28  H    5.362153   4.266907   4.493391   4.275171   4.149695
                   11         12         13         14         15
    11  C    0.000000
    12  H    1.093935   0.000000
    13  H    1.094282   1.760274   0.000000
    14  H    1.092872   1.774722   1.773725   0.000000
    15  C    5.861175   5.503811   5.866553   6.929245   0.000000
    16  H    6.596481   6.217972   6.726623   7.629337   1.093756
    17  H    6.516483   6.204334   6.356503   7.605479   1.094206
    18  H    5.535974   4.998148   5.583068   6.581528   1.095168
    19  C    4.854616   4.739277   4.856993   5.910404   1.505553
    20  C    4.138759   4.158939   3.839277   5.212796   2.527223
    21  H    3.518802   3.807621   3.192655   4.530335   3.483460
    22  H    3.766656   3.570180   3.432652   4.849906   2.716782
    23  H    5.026819   5.102563   4.555394   6.077348   2.860330
    24  C    5.041050   5.054077   5.246398   5.995254   2.483874
    25  H    5.873489   5.785633   6.188853   6.788694   2.665870
    26  C    4.656904   4.966702   4.912758   5.464213   3.920851
    27  H    4.443525   4.920968   4.481760   5.252965   4.242639
    28  H    5.668529   6.018600   5.938568   6.407645   4.555398
                   16         17         18         19         20
    16  H    0.000000
    17  H    1.768456   0.000000
    18  H    1.768528   1.777251   0.000000
    19  C    2.171206   2.148157   2.140523   0.000000
    20  C    3.480859   2.756759   2.817313   1.504792   0.000000
    21  H    4.333456   3.802510   3.764246   2.184242   1.089692
    22  H    3.754889   2.977756   2.566200   2.144708   1.095400
    23  H    3.822295   2.656593   3.309036   2.145008   1.096994
    24  C    2.620451   3.242208   3.146874   1.349618   2.532011
    25  H    2.335803   3.489228   3.348357   2.102605   3.502559
    26  C    4.124674   4.601498   4.494774   2.553994   3.113541
    27  H    4.660933   4.735760   4.826553   2.756746   2.790594
    28  H    4.559972   5.171332   5.263262   3.323741   4.029431
                   21         22         23         24         25
    21  H    0.000000
    22  H    1.755389   0.000000
    23  H    1.762949   1.777623   0.000000
    24  C    2.720357   3.267557   3.204272   0.000000
    25  H    3.798734   4.140923   4.111992   1.089270   0.000000
    26  C    2.727020   3.918565   3.794153   1.505246   2.192727
    27  H    2.140277   3.684599   3.309666   2.161364   3.068354
    28  H    3.684009   4.917330   4.550513   2.117586   2.399402
                   26         27         28
    26  C    0.000000
    27  H    1.097145   0.000000
    28  H    1.096303   1.740657   0.000000
 Stoichiometry    C10H18
 Framework group  C1[X(C10H18)]
 Deg. of freedom    78
 Full point group                 C1      NOp   1
 Largest Abelian subgroup         C1      NOp   1
 Largest concise Abelian subgroup C1      NOp   1
                         Standard orientation:                         
 ---------------------------------------------------------------------
 Center     Atomic      Atomic             Coordinates (Angstroms)
 Number     Number       Type             X           Y           Z
 ---------------------------------------------------------------------
      1          6           0        0.815309    1.821411   -0.070864
      2          1           0        1.525361    2.356395   -0.715737
      3          1           0        0.678347    2.469489    0.804270
      4          6           0        1.424201    0.496214    0.357078
      5          6           0        1.066535    0.017306    1.739773
      6          1           0        1.906650   -0.495229    2.219557
      7          1           0        0.802741    0.855338    2.393520
      8          1           0        0.216214   -0.668483    1.707487
      9          6           0        2.213281   -0.198253   -0.486783
     10          1           0        2.428772    0.223873   -1.467457
     11          6           0        2.768984   -1.569967   -0.267634
     12          1           0        2.422153   -2.032832    0.660891
     13          1           0        2.455414   -2.221597   -1.088917
     14          1           0        3.861239   -1.536935   -0.251663
     15          6           0       -2.971566   -0.939930    0.733624
     16          1           0       -3.475792   -0.186609    1.345642
     17          1           0       -3.733596   -1.456819    0.142504
     18          1           0       -2.505664   -1.663880    1.410546
     19          6           0       -1.925783   -0.338559   -0.167143
     20          6           0       -1.277314   -1.323476   -1.101929
     21          1           0       -0.411071   -0.923325   -1.628173
     22          1           0       -0.933854   -2.202128   -0.545237
     23          1           0       -1.998417   -1.654674   -1.859368
     24          6           0       -1.584638    0.962642   -0.057756
     25          1           0       -2.098178    1.578234    0.679694
     26          6           0       -0.514752    1.683281   -0.833507
     27          1           0       -0.338690    1.208265   -1.806693
     28          1           0       -0.887178    2.686896   -1.070014
 ---------------------------------------------------------------------
 Rotational constants (GHZ):           1.6539320           0.8587601           0.7393346
 Leave Link  202 at Mon Jul 19 22:09:43 2021, MaxMem=   524288000 cpu:               0.1 elap:               0.1
 (Enter /opt/gaussian/g16_legacy/l301.exe)
 Standard basis: 6-31G(d,p) (6D, 7F)
 Ernie: Thresh=  0.10000D-02 Tol=  0.10000D-05 Strict=F.
 There are   240 symmetry adapted cartesian basis functions of A   symmetry.
 There are   240 symmetry adapted basis functions of A   symmetry.
   240 basis functions,   406 primitive gaussians,   240 cartesian basis functions
    39 alpha electrons       39 beta electrons
       nuclear repulsion energy       541.9660770113 Hartrees.
 IExCor= 4336 DFT=T Ex+Corr=M062X ExCW=0 ScaHFX=  0.540000
 ScaDFX=  1.000000  1.000000  1.000000  1.000000 ScalE2=  1.000000  1.000000
 IRadAn=      5 IRanWt=     -1 IRanGd=            0 ICorTp=0 IEmpDi=  4
 NAtoms=   28 NActive=   28 NUniq=   28 SFac= 1.00D+00 NAtFMM=   60 NAOKFM=F Big=F
 Integral buffers will be    131072 words long.
 Raffenetti 2 integral format.
 Two-electron integral symmetry is turned on.
 Leave Link  301 at Mon Jul 19 22:09:43 2021, MaxMem=   524288000 cpu:               0.5 elap:               0.2
 (Enter /opt/gaussian/g16_legacy/l302.exe)
 NPDir=0 NMtPBC=     1 NCelOv=     1 NCel=       1 NClECP=     1 NCelD=      1
         NCelK=      1 NCelE2=     1 NClLst=     1 CellRange=     0.0.
 One-electron integrals computed using PRISM.
 One-electron integral symmetry used in STVInt
 NBasis=   240 RedAO= T EigKep=  2.40D-03  NBF=   240
 NBsUse=   240 1.00D-06 EigRej= -1.00D+00 NBFU=   240
 Precomputing XC quadrature grid using
 IXCGrd= 4 IRadAn=           5 IRanWt=          -1 IRanGd=           0 AccXCQ= 0.00D+00.
 Generated NRdTot=       0 NPtTot=           0 NUsed=           0 NTot=          32
 NSgBfM=   240   240   240   240   240 MxSgAt=    28 MxSgA2=    28.
 Leave Link  302 at Mon Jul 19 22:09:44 2021, MaxMem=   524288000 cpu:               3.6 elap:               1.1
 (Enter /opt/gaussian/g16_legacy/l303.exe)
 DipDrv:  MaxL=1.
 Leave Link  303 at Mon Jul 19 22:09:45 2021, MaxMem=   524288000 cpu:               0.2 elap:               0.1
 (Enter /opt/gaussian/g16_legacy/l401.exe)
 ExpMin= 1.61D-01 ExpMax= 3.05D+03 ExpMxC= 4.57D+02 IAcc=3 IRadAn=         5 AccDes= 0.00D+00
 Harris functional with IExCor= 1009 and IRadAn=       5 diagonalized for initial guess.
 HarFok:  IExCor= 1009 AccDes= 0.00D+00 IRadAn=         5 IDoV= 1 UseB2=F ITyADJ=14
 ICtDFT=  3500011 ScaDFX=  1.000000  1.000000  1.000000  1.000000
 FoFCou: FMM=F IPFlag=           0 FMFlag=      100000 FMFlg1=           0
         NFxFlg=           0 DoJE=T BraDBF=F KetDBF=T FulRan=T
         wScrn=  0.000000 ICntrl=       500 IOpCl=  0 I1Cent=   200000004 NGrid=           0
         NMat0=    1 NMatS0=      1 NMatT0=    0 NMatD0=    1 NMtDS0=    0 NMtDT0=    0
 Petite list used in FoFCou.
 Harris En= -391.651462137938    
 JPrj=0 DoOrth=F DoCkMO=F.
 Leave Link  401 at Mon Jul 19 22:09:50 2021, MaxMem=   524288000 cpu:              21.3 elap:               5.5
 (Enter /opt/gaussian/g16_legacy/l502.exe)
 Keep R1 ints in memory in canonical form, NReq=425198025.
 FoFCou: FMM=F IPFlag=           0 FMFlag=           0 FMFlg1=           0
         NFxFlg=           0 DoJE=F BraDBF=F KetDBF=F FulRan=T
         wScrn=  0.000000 ICntrl=       600 IOpCl=  0 I1Cent=           0 NGrid=           0
         NMat0=    1 NMatS0=  28920 NMatT0=    0 NMatD0=    1 NMtDS0=    0 NMtDT0=    0
 Symmetry not used in FoFCou.
 Two-electron integral symmetry not used.
 Closed shell SCF:
 Using DIIS extrapolation, IDIIS=  1040.
 NGot=   524288000 LenX=   105970886 LenY=   105912845
 Requested convergence on RMS density matrix=1.00D-08 within 128 cycles.
 Requested convergence on MAX density matrix=1.00D-06.
 Requested convergence on             energy=1.00D-06.
 No special actions if energy rises.
 Integral accuracy reduced to 1.0D-05 until final iterations.

 Cycle   1  Pass 0  IDiag  1:
 E= -391.295902503577    
 DIIS: error= 3.02D-02 at cycle   1 NSaved=   1.
 NSaved= 1 IEnMin= 1 EnMin= -391.295902503577     IErMin= 1 ErrMin= 3.02D-02
 ErrMax= 3.02D-02  0.00D+00 EMaxC= 1.00D-01 BMatC= 3.73D-01 BMatP= 3.73D-01
 IDIUse=3 WtCom= 6.98D-01 WtEn= 3.02D-01
 Coeff-Com:  0.100D+01
 Coeff-En:   0.100D+01
 Coeff:      0.100D+01
 Gap=     0.338 Goal=   None    Shift=    0.000
 GapD=    0.338 DampG=1.000 DampE=0.500 DampFc=0.5000 IDamp=-1.
 Damping current iteration by 5.00D-01
 RMSDP=4.51D-03 MaxDP=1.15D-01              OVMax= 1.44D-01

 Cycle   2  Pass 0  IDiag  1:
 E= -391.504140870561     Delta-E=       -0.208238366984 Rises=F Damp=T
 DIIS: error= 8.03D-03 at cycle   2 NSaved=   2.
 NSaved= 2 IEnMin= 2 EnMin= -391.504140870561     IErMin= 2 ErrMin= 8.03D-03
 ErrMax= 8.03D-03  0.00D+00 EMaxC= 1.00D-01 BMatC= 2.13D-02 BMatP= 3.73D-01
 IDIUse=3 WtCom= 9.20D-01 WtEn= 8.03D-02
 Coeff-Com: -0.137D+00 0.114D+01
 Coeff-En:   0.000D+00 0.100D+01
 Coeff:     -0.126D+00 0.113D+01
 Gap=     0.362 Goal=   None    Shift=    0.000
 RMSDP=9.38D-04 MaxDP=2.76D-02 DE=-2.08D-01 OVMax= 6.67D-02

 Cycle   3  Pass 0  IDiag  1:
 E= -391.686134363355     Delta-E=       -0.181993492795 Rises=F Damp=F
 DIIS: error= 1.61D-03 at cycle   3 NSaved=   3.
 NSaved= 3 IEnMin= 3 EnMin= -391.686134363355     IErMin= 3 ErrMin= 1.61D-03
 ErrMax= 1.61D-03  0.00D+00 EMaxC= 1.00D-01 BMatC= 1.60D-03 BMatP= 2.13D-02
 IDIUse=3 WtCom= 9.84D-01 WtEn= 1.61D-02
 Coeff-Com: -0.414D-01 0.205D+00 0.837D+00
 Coeff-En:   0.000D+00 0.000D+00 0.100D+01
 Coeff:     -0.407D-01 0.201D+00 0.839D+00
 Gap=     0.334 Goal=   None    Shift=    0.000
 RMSDP=3.02D-04 MaxDP=9.13D-03 DE=-1.82D-01 OVMax= 1.64D-02

 Cycle   4  Pass 0  IDiag  1:
 E= -391.686959285887     Delta-E=       -0.000824922532 Rises=F Damp=F
 DIIS: error= 1.54D-03 at cycle   4 NSaved=   4.
 NSaved= 4 IEnMin= 4 EnMin= -391.686959285887     IErMin= 4 ErrMin= 1.54D-03
 ErrMax= 1.54D-03  0.00D+00 EMaxC= 1.00D-01 BMatC= 7.58D-04 BMatP= 1.60D-03
 IDIUse=3 WtCom= 9.85D-01 WtEn= 1.54D-02
 Coeff-Com: -0.121D-01 0.461D-01 0.420D+00 0.546D+00
 Coeff-En:   0.000D+00 0.000D+00 0.304D+00 0.696D+00
 Coeff:     -0.119D-01 0.454D-01 0.419D+00 0.548D+00
 Gap=     0.334 Goal=   None    Shift=    0.000
 RMSDP=1.32D-04 MaxDP=5.88D-03 DE=-8.25D-04 OVMax= 1.15D-02

 Cycle   5  Pass 0  IDiag  1:
 E= -391.687664590321     Delta-E=       -0.000705304433 Rises=F Damp=F
 DIIS: error= 3.74D-04 at cycle   5 NSaved=   5.
 NSaved= 5 IEnMin= 5 EnMin= -391.687664590321     IErMin= 5 ErrMin= 3.74D-04
 ErrMax= 3.74D-04  0.00D+00 EMaxC= 1.00D-01 BMatC= 5.06D-05 BMatP= 7.58D-04
 IDIUse=3 WtCom= 9.96D-01 WtEn= 3.74D-03
 Coeff-Com: -0.112D-02 0.269D-02 0.120D+00 0.259D+00 0.619D+00
 Coeff-En:   0.000D+00 0.000D+00 0.000D+00 0.000D+00 0.100D+01
 Coeff:     -0.112D-02 0.268D-02 0.119D+00 0.259D+00 0.620D+00
 Gap=     0.334 Goal=   None    Shift=    0.000
 RMSDP=3.19D-05 MaxDP=1.32D-03 DE=-7.05D-04 OVMax= 2.58D-03

 Cycle   6  Pass 0  IDiag  1:
 E= -391.687713963386     Delta-E=       -0.000049373065 Rises=F Damp=F
 DIIS: error= 4.11D-05 at cycle   6 NSaved=   6.
 NSaved= 6 IEnMin= 6 EnMin= -391.687713963386     IErMin= 6 ErrMin= 4.11D-05
 ErrMax= 4.11D-05  0.00D+00 EMaxC= 1.00D-01 BMatC= 1.66D-06 BMatP= 5.06D-05
 IDIUse=1 WtCom= 1.00D+00 WtEn= 0.00D+00
 Coeff-Com:  0.717D-03-0.272D-02 0.120D-01 0.519D-01 0.205D+00 0.733D+00
 Coeff:      0.717D-03-0.272D-02 0.120D-01 0.519D-01 0.205D+00 0.733D+00
 Gap=     0.334 Goal=   None    Shift=    0.000
 RMSDP=6.36D-06 MaxDP=2.62D-04 DE=-4.94D-05 OVMax= 4.46D-04

 Initial convergence to 1.0D-05 achieved.  Increase integral accuracy.
 Cycle   7  Pass 1  IDiag  1:
 E= -391.687759002772     Delta-E=       -0.000045039386 Rises=F Damp=F
 DIIS: error= 2.37D-05 at cycle   1 NSaved=   1.
 NSaved= 1 IEnMin= 1 EnMin= -391.687759002772     IErMin= 1 ErrMin= 2.37D-05
 ErrMax= 2.37D-05  0.00D+00 EMaxC= 1.00D-01 BMatC= 2.59D-07 BMatP= 2.59D-07
 IDIUse=1 WtCom= 1.00D+00 WtEn= 0.00D+00
 Coeff-Com:  0.100D+01
 Coeff:      0.100D+01
 Gap=     0.334 Goal=   None    Shift=    0.000
 RMSDP=6.36D-06 MaxDP=2.62D-04 DE=-4.50D-05 OVMax= 3.01D-04

 Cycle   8  Pass 1  IDiag  1:
 E= -391.687759064723     Delta-E=       -0.000000061951 Rises=F Damp=F
 DIIS: error= 2.40D-05 at cycle   2 NSaved=   2.
 NSaved= 2 IEnMin= 2 EnMin= -391.687759064723     IErMin= 1 ErrMin= 2.37D-05
 ErrMax= 2.40D-05  0.00D+00 EMaxC= 1.00D-01 BMatC= 2.36D-07 BMatP= 2.59D-07
 IDIUse=1 WtCom= 1.00D+00 WtEn= 0.00D+00
 Coeff-Com:  0.486D+00 0.514D+00
 Coeff:      0.486D+00 0.514D+00
 Gap=     0.334 Goal=   None    Shift=    0.000
 RMSDP=2.03D-06 MaxDP=1.08D-04 DE=-6.20D-08 OVMax= 1.81D-04

 Cycle   9  Pass 1  IDiag  1:
 E= -391.687759281189     Delta-E=       -0.000000216466 Rises=F Damp=F
 DIIS: error= 5.32D-06 at cycle   3 NSaved=   3.
 NSaved= 3 IEnMin= 3 EnMin= -391.687759281189     IErMin= 3 ErrMin= 5.32D-06
 ErrMax= 5.32D-06  0.00D+00 EMaxC= 1.00D-01 BMatC= 1.12D-08 BMatP= 2.36D-07
 IDIUse=1 WtCom= 1.00D+00 WtEn= 0.00D+00
 Coeff-Com:  0.269D-01 0.169D+00 0.804D+00
 Coeff:      0.269D-01 0.169D+00 0.804D+00
 Gap=     0.334 Goal=   None    Shift=    0.000
 RMSDP=6.01D-07 MaxDP=2.27D-05 DE=-2.16D-07 OVMax= 5.63D-05

 Cycle  10  Pass 1  IDiag  1:
 E= -391.687759291205     Delta-E=       -0.000000010016 Rises=F Damp=F
 DIIS: error= 2.74D-06 at cycle   4 NSaved=   4.
 NSaved= 4 IEnMin= 4 EnMin= -391.687759291205     IErMin= 4 ErrMin= 2.74D-06
 ErrMax= 2.74D-06  0.00D+00 EMaxC= 1.00D-01 BMatC= 2.37D-09 BMatP= 1.12D-08
 IDIUse=1 WtCom= 1.00D+00 WtEn= 0.00D+00
 Coeff-Com: -0.324D-01 0.331D-01 0.403D+00 0.597D+00
 Coeff:     -0.324D-01 0.331D-01 0.403D+00 0.597D+00
 Gap=     0.334 Goal=   None    Shift=    0.000
 RMSDP=2.27D-07 MaxDP=6.36D-06 DE=-1.00D-08 OVMax= 1.46D-05

 Cycle  11  Pass 1  IDiag  1:
 E= -391.687759293661     Delta-E=       -0.000000002456 Rises=F Damp=F
 DIIS: error= 2.22D-07 at cycle   5 NSaved=   5.
 NSaved= 5 IEnMin= 5 EnMin= -391.687759293661     IErMin= 5 ErrMin= 2.22D-07
 ErrMax= 2.22D-07  0.00D+00 EMaxC= 1.00D-01 BMatC= 3.82D-11 BMatP= 2.37D-09
 IDIUse=1 WtCom= 1.00D+00 WtEn= 0.00D+00
 Coeff-Com: -0.884D-02-0.140D-02 0.561D-01 0.138D+00 0.816D+00
 Coeff:     -0.884D-02-0.140D-02 0.561D-01 0.138D+00 0.816D+00
 Gap=     0.334 Goal=   None    Shift=    0.000
 RMSDP=4.69D-08 MaxDP=1.54D-06 DE=-2.46D-09 OVMax= 3.34D-06

 Cycle  12  Pass 1  IDiag  1:
 E= -391.687759293685     Delta-E=       -0.000000000024 Rises=F Damp=F
 DIIS: error= 2.75D-07 at cycle   6 NSaved=   6.
 NSaved= 6 IEnMin= 6 EnMin= -391.687759293685     IErMin= 5 ErrMin= 2.22D-07
 ErrMax= 2.75D-07  0.00D+00 EMaxC= 1.00D-01 BMatC= 1.54D-11 BMatP= 3.82D-11
 IDIUse=1 WtCom= 1.00D+00 WtEn= 0.00D+00
 Coeff-Com: -0.108D-04-0.519D-02-0.250D-01-0.886D-02 0.421D+00 0.618D+00
 Coeff:     -0.108D-04-0.519D-02-0.250D-01-0.886D-02 0.421D+00 0.618D+00
 Gap=     0.334 Goal=   None    Shift=    0.000
 RMSDP=1.99D-08 MaxDP=8.98D-07 DE=-2.40D-11 OVMax= 2.10D-06

 Cycle  13  Pass 1  IDiag  1:
 E= -391.687759293715     Delta-E=       -0.000000000030 Rises=F Damp=F
 DIIS: error= 5.84D-08 at cycle   7 NSaved=   7.
 NSaved= 7 IEnMin= 7 EnMin= -391.687759293715     IErMin= 7 ErrMin= 5.84D-08
 ErrMax= 5.84D-08  0.00D+00 EMaxC= 1.00D-01 BMatC= 9.96D-13 BMatP= 1.54D-11
 IDIUse=1 WtCom= 1.00D+00 WtEn= 0.00D+00
 Coeff-Com:  0.875D-03-0.215D-02-0.164D-01-0.179D-01 0.925D-01 0.266D+00
 Coeff-Com:  0.677D+00
 Coeff:      0.875D-03-0.215D-02-0.164D-01-0.179D-01 0.925D-01 0.266D+00
 Coeff:      0.677D+00
 Gap=     0.334 Goal=   None    Shift=    0.000
 RMSDP=5.22D-09 MaxDP=1.79D-07 DE=-2.97D-11 OVMax= 3.43D-07

 SCF Done:  E(RM062X) =  -391.687759294     A.U. after   13 cycles
            NFock= 13  Conv=0.52D-08     -V/T= 2.0093
 KE= 3.880726735947D+02 PE=-1.989066601125D+03 EE= 6.673400912255D+02
 Leave Link  502 at Mon Jul 19 22:11:47 2021, MaxMem=   524288000 cpu:             437.0 elap:             116.3
 (Enter /opt/gaussian/g16_legacy/l601.exe)
 Copying SCF densities to generalized density rwf, IOpCl= 0 IROHF=0.

 **********************************************************************

            Population analysis using the SCF density.

 **********************************************************************

 Orbital symmetries:
       Occupied  (A) (A) (A) (A) (A) (A) (A) (A) (A) (A) (A) (A)
                 (A) (A) (A) (A) (A) (A) (A) (A) (A) (A) (A) (A)
                 (A) (A) (A) (A) (A) (A) (A) (A) (A) (A) (A) (A)
                 (A) (A) (A)
       Virtual   (A) (A) (A) (A) (A) (A) (A) (A) (A) (A) (A) (A)
                 (A) (A) (A) (A) (A) (A) (A) (A) (A) (A) (A) (A)
                 (A) (A) (A) (A) (A) (A) (A) (A) (A) (A) (A) (A)
                 (A) (A) (A) (A) (A) (A) (A) (A) (A) (A) (A) (A)
                 (A) (A) (A) (A) (A) (A) (A) (A) (A) (A) (A) (A)
                 (A) (A) (A) (A) (A) (A) (A) (A) (A) (A) (A) (A)
                 (A) (A) (A) (A) (A) (A) (A) (A) (A) (A) (A) (A)
                 (A) (A) (A) (A) (A) (A) (A) (A) (A) (A) (A) (A)
                 (A) (A) (A) (A) (A) (A) (A) (A) (A) (A) (A) (A)
                 (A) (A) (A) (A) (A) (A) (A) (A) (A) (A) (A) (A)
                 (A) (A) (A) (A) (A) (A) (A) (A) (A) (A) (A) (A)
                 (A) (A) (A) (A) (A) (A) (A) (A) (A) (A) (A) (A)
                 (A) (A) (A) (A) (A) (A) (A) (A) (A) (A) (A) (A)
                 (A) (A) (A) (A) (A) (A) (A) (A) (A) (A) (A) (A)
                 (A) (A) (A) (A) (A) (A) (A) (A) (A) (A) (A) (A)
                 (A) (A) (A) (A) (A) (A) (A) (A) (A) (A) (A) (A)
                 (A) (A) (A) (A) (A) (A) (A) (A) (A)
 The electronic state is 1-A.
 Alpha  occ. eigenvalues --  -10.54562 -10.54152 -10.53806 -10.53766 -10.53290
 Alpha  occ. eigenvalues --  -10.53277 -10.53183 -10.53156 -10.53094 -10.52925
 Alpha  occ. eigenvalues --   -0.91930  -0.89514  -0.84834  -0.80750  -0.77578
 Alpha  occ. eigenvalues --   -0.76507  -0.72193  -0.67663  -0.58621  -0.57756
 Alpha  occ. eigenvalues --   -0.53522  -0.52234  -0.50446  -0.49439  -0.48254
 Alpha  occ. eigenvalues --   -0.48067  -0.46428  -0.45045  -0.44468  -0.43918
 Alpha  occ. eigenvalues --   -0.43616  -0.42281  -0.41089  -0.40471  -0.39327
 Alpha  occ. eigenvalues --   -0.37139  -0.36406  -0.28596  -0.26767
 Alpha virt. eigenvalues --    0.06652   0.06990   0.12027   0.15438   0.16171
 Alpha virt. eigenvalues --    0.16351   0.17752   0.19257   0.19780   0.20230
 Alpha virt. eigenvalues --    0.21406   0.21488   0.22447   0.22995   0.23011
 Alpha virt. eigenvalues --    0.25166   0.25263   0.26300   0.26949   0.27304
 Alpha virt. eigenvalues --    0.28781   0.29080   0.30383   0.30618   0.33028
 Alpha virt. eigenvalues --    0.37957   0.40124   0.45328   0.47692   0.51339
 Alpha virt. eigenvalues --    0.53704   0.54780   0.56544   0.58641   0.60420
 Alpha virt. eigenvalues --    0.60759   0.62267   0.62781   0.64319   0.66816
 Alpha virt. eigenvalues --    0.67217   0.70293   0.70755   0.71379   0.72420
 Alpha virt. eigenvalues --    0.74958   0.76759   0.77818   0.79612   0.81327
 Alpha virt. eigenvalues --    0.81348   0.84056   0.84168   0.85617   0.86677
 Alpha virt. eigenvalues --    0.87517   0.89685   0.90598   0.92734   0.93496
 Alpha virt. eigenvalues --    0.94229   0.94681   0.95138   0.95617   0.96631
 Alpha virt. eigenvalues --    0.97170   0.97916   0.99052   1.00630   1.01033
 Alpha virt. eigenvalues --    1.02134   1.03333   1.03991   1.04513   1.08478
 Alpha virt. eigenvalues --    1.09972   1.11888   1.21029   1.22014   1.24297
 Alpha virt. eigenvalues --    1.27327   1.29599   1.35395   1.38243   1.40274
 Alpha virt. eigenvalues --    1.40627   1.45196   1.46332   1.48808   1.50262
 Alpha virt. eigenvalues --    1.53121   1.56228   1.67267   1.68884   1.72396
 Alpha virt. eigenvalues --    1.75518   1.77487   1.78887   1.82344   1.83206
 Alpha virt. eigenvalues --    1.84189   1.85422   1.87071   1.88249   1.89628
 Alpha virt. eigenvalues --    1.91982   1.93316   1.94131   2.01422   2.02370
 Alpha virt. eigenvalues --    2.03532   2.05021   2.07715   2.09744   2.09954
 Alpha virt. eigenvalues --    2.10519   2.11161   2.11554   2.13161   2.14568
 Alpha virt. eigenvalues --    2.16429   2.17034   2.17552   2.17691   2.18910
 Alpha virt. eigenvalues --    2.20134   2.20659   2.21193   2.24112   2.26957
 Alpha virt. eigenvalues --    2.29122   2.30108   2.31301   2.34716   2.36086
 Alpha virt. eigenvalues --    2.38641   2.38676   2.42640   2.43744   2.44589
 Alpha virt. eigenvalues --    2.46430   2.48594   2.51126   2.52845   2.55072
 Alpha virt. eigenvalues --    2.55862   2.59364   2.60504   2.62061   2.63645
 Alpha virt. eigenvalues --    2.64597   2.68147   2.69054   2.70104   2.72215
 Alpha virt. eigenvalues --    2.74229   2.75312   2.77997   2.79591   2.81248
 Alpha virt. eigenvalues --    2.84172   2.85083   2.86902   2.87985   2.89218
 Alpha virt. eigenvalues --    2.91013   2.91526   2.92596   2.94078   3.03345
 Alpha virt. eigenvalues --    3.03757   3.08659   3.09316   3.17717   3.19453
 Alpha virt. eigenvalues --    3.23485   3.24576   3.27597   3.32437   3.40240
 Alpha virt. eigenvalues --    3.40730   3.43123   3.43355   3.44316   3.44655
 Alpha virt. eigenvalues --    3.46397   3.47231   3.48806   3.51835   3.52377
 Alpha virt. eigenvalues --    3.54222   4.18354   4.24878   4.34952   4.46952
 Alpha virt. eigenvalues --    4.49540   4.52227   4.53870   4.68797   4.70774
 Alpha virt. eigenvalues --    4.74859
          Condensed to atoms (all electrons):
               1          2          3          4          5          6
     1  C    5.020725   0.381410   0.382687   0.371450  -0.066538   0.003602
     2  H    0.381410   0.603484  -0.033988  -0.037495   0.005077  -0.000195
     3  H    0.382687  -0.033988   0.620154  -0.035575  -0.008294   0.000231
     4  C    0.371450  -0.037495  -0.035575   4.782928   0.373554  -0.030780
     5  C   -0.066538   0.005077  -0.008294   0.373554   5.002717   0.381163
     6  H    0.003602  -0.000195   0.000231  -0.030780   0.381163   0.583267
     7  H   -0.009117   0.000178   0.005991  -0.031259   0.386314  -0.029740
     8  H    0.003220  -0.000096  -0.000050  -0.034001   0.380282  -0.027775
     9  C   -0.041634  -0.007762   0.004285   0.695783  -0.058921  -0.007442
    10  H   -0.010669   0.004495   0.000236  -0.039239   0.005936  -0.000010
    11  C    0.005246   0.000082  -0.000188  -0.041835  -0.012616   0.000422
    12  H    0.000151   0.000000   0.000001  -0.009531   0.003792   0.001250
    13  H   -0.000110  -0.000017  -0.000001   0.000917   0.000227  -0.000163
    14  H   -0.000165   0.000013   0.000008  -0.000806   0.000348   0.000421
    15  C   -0.000098   0.000003   0.000004  -0.000079  -0.000197  -0.000001
    16  H   -0.000005   0.000000   0.000001   0.000004   0.000001   0.000000
    17  H   -0.000006   0.000000   0.000000  -0.000000   0.000003   0.000000
    18  H    0.000038  -0.000000  -0.000001  -0.000019   0.000157  -0.000022
    19  C   -0.005066   0.000017   0.000190   0.004420  -0.002683   0.000235
    20  C    0.000273  -0.000036  -0.000020  -0.001241  -0.000166  -0.000008
    21  H   -0.000823   0.000061   0.000024   0.002588  -0.000073   0.000010
    22  H    0.000115  -0.000005   0.000000  -0.000411   0.000193  -0.000053
    23  H   -0.000053   0.000002   0.000001   0.000147   0.000005   0.000001
    24  C   -0.055725   0.005502  -0.004125  -0.008482   0.002264   0.000202
    25  H    0.001064  -0.000145   0.001901  -0.000561   0.000130   0.000000
    26  C    0.350898  -0.031534  -0.041763  -0.051113   0.000334  -0.000029
    27  H   -0.035835  -0.005263   0.005386  -0.006231  -0.000013   0.000002
    28  H   -0.038573  -0.002819  -0.004567   0.005885  -0.000171   0.000005
               7          8          9         10         11         12
     1  C   -0.009117   0.003220  -0.041634  -0.010669   0.005246   0.000151
     2  H    0.000178  -0.000096  -0.007762   0.004495   0.000082   0.000000
     3  H    0.005991  -0.000050   0.004285   0.000236  -0.000188   0.000001
     4  C   -0.031259  -0.034001   0.695783  -0.039239  -0.041835  -0.009531
     5  C    0.386314   0.380282  -0.058921   0.005936  -0.012616   0.003792
     6  H   -0.029740  -0.027775  -0.007442  -0.000010   0.000422   0.001250
     7  H    0.583803  -0.030078   0.004249  -0.000145   0.000288  -0.000091
     8  H   -0.030078   0.574445  -0.005597  -0.000182   0.000890   0.000233
     9  C    0.004249  -0.005597   4.918448   0.381609   0.362461  -0.033624
    10  H   -0.000145  -0.000182   0.381609   0.615550  -0.054725   0.004511
    11  C    0.000288   0.000890   0.362461  -0.054725   4.969825   0.390960
    12  H   -0.000091   0.000233  -0.033624   0.004511   0.390960   0.578427
    13  H   -0.000013   0.000212  -0.034326  -0.003153   0.385648  -0.029315
    14  H    0.000009  -0.000109  -0.035791  -0.000347   0.385586  -0.028488
    15  C    0.000015   0.000011   0.000008  -0.000000  -0.000001  -0.000001
    16  H    0.000003  -0.000031   0.000000  -0.000000  -0.000000  -0.000000
    17  H    0.000000   0.000021  -0.000000  -0.000000   0.000000  -0.000000
    18  H   -0.000008   0.000536  -0.000001  -0.000000  -0.000000   0.000001
    19  C    0.000079   0.001593   0.000303  -0.000009   0.000005  -0.000019
    20  C    0.000012  -0.000287  -0.002271  -0.000110   0.000072   0.000002
    21  H    0.000011  -0.000378   0.004566   0.000305  -0.000345  -0.000024
    22  H   -0.000003   0.000378  -0.000172   0.000004   0.000180   0.000154
    23  H   -0.000000  -0.000009   0.000116   0.000001  -0.000003  -0.000001
    24  C    0.000226   0.002695  -0.001672   0.000097   0.000018  -0.000003
    25  H    0.000063   0.000084   0.000000   0.000000  -0.000000   0.000000
    26  C   -0.000329   0.000003  -0.006738   0.000076  -0.000049  -0.000008
    27  H    0.000012   0.000063   0.002412   0.000879  -0.000118   0.000003
    28  H   -0.000008  -0.000009   0.000122  -0.000058   0.000003   0.000000
              13         14         15         16         17         18
     1  C   -0.000110  -0.000165  -0.000098  -0.000005  -0.000006   0.000038
     2  H   -0.000017   0.000013   0.000003   0.000000   0.000000  -0.000000
     3  H   -0.000001   0.000008   0.000004   0.000001   0.000000  -0.000001
     4  C    0.000917  -0.000806  -0.000079   0.000004  -0.000000  -0.000019
     5  C    0.000227   0.000348  -0.000197   0.000001   0.000003   0.000157
     6  H   -0.000163   0.000421  -0.000001   0.000000   0.000000  -0.000022
     7  H   -0.000013   0.000009   0.000015   0.000003   0.000000  -0.000008
     8  H    0.000212  -0.000109   0.000011  -0.000031   0.000021   0.000536
     9  C   -0.034326  -0.035791   0.000008   0.000000  -0.000000  -0.000001
    10  H   -0.003153  -0.000347  -0.000000  -0.000000  -0.000000  -0.000000
    11  C    0.385648   0.385586  -0.000001  -0.000000   0.000000  -0.000000
    12  H   -0.029315  -0.028488  -0.000001  -0.000000  -0.000000   0.000001
    13  H    0.581403  -0.031540   0.000000  -0.000000  -0.000000   0.000000
    14  H   -0.031540   0.577354   0.000000   0.000000  -0.000000  -0.000000
    15  C    0.000000   0.000000   5.004012   0.384999   0.382412   0.380294
    16  H   -0.000000   0.000000   0.384999   0.572419  -0.027596  -0.027082
    17  H   -0.000000  -0.000000   0.382412  -0.027596   0.590480  -0.034312
    18  H    0.000000  -0.000000   0.380294  -0.027082  -0.034312   0.592309
    19  C   -0.000005   0.000000   0.367704  -0.032767  -0.038048  -0.036434
    20  C    0.000234   0.000001  -0.078671   0.004763  -0.000720  -0.002424
    21  H   -0.000035   0.000025   0.004876  -0.000166  -0.000001  -0.000083
    22  H    0.000205  -0.000002  -0.002994   0.000057  -0.001040   0.004415
    23  H   -0.000020   0.000000  -0.002546  -0.000082   0.003779  -0.000584
    24  C    0.000002  -0.000001  -0.039233  -0.004941   0.000075  -0.002196
    25  H    0.000000  -0.000000  -0.012914   0.005944   0.000207   0.000274
    26  C    0.000028  -0.000006   0.005683   0.000093  -0.000195  -0.000120
    27  H    0.000000   0.000001   0.000089   0.000009   0.000008  -0.000007
    28  H   -0.000001   0.000000  -0.000168  -0.000008   0.000010  -0.000003
              19         20         21         22         23         24
     1  C   -0.005066   0.000273  -0.000823   0.000115  -0.000053  -0.055725
     2  H    0.000017  -0.000036   0.000061  -0.000005   0.000002   0.005502
     3  H    0.000190  -0.000020   0.000024   0.000000   0.000001  -0.004125
     4  C    0.004420  -0.001241   0.002588  -0.000411   0.000147  -0.008482
     5  C   -0.002683  -0.000166  -0.000073   0.000193   0.000005   0.002264
     6  H    0.000235  -0.000008   0.000010  -0.000053   0.000001   0.000202
     7  H    0.000079   0.000012   0.000011  -0.000003  -0.000000   0.000226
     8  H    0.001593  -0.000287  -0.000378   0.000378  -0.000009   0.002695
     9  C    0.000303  -0.002271   0.004566  -0.000172   0.000116  -0.001672
    10  H   -0.000009  -0.000110   0.000305   0.000004   0.000001   0.000097
    11  C    0.000005   0.000072  -0.000345   0.000180  -0.000003   0.000018
    12  H   -0.000019   0.000002  -0.000024   0.000154  -0.000001  -0.000003
    13  H   -0.000005   0.000234  -0.000035   0.000205  -0.000020   0.000002
    14  H    0.000000   0.000001   0.000025  -0.000002   0.000000  -0.000001
    15  C    0.367704  -0.078671   0.004876  -0.002994  -0.002546  -0.039233
    16  H   -0.032767   0.004763  -0.000166   0.000057  -0.000082  -0.004941
    17  H   -0.038048  -0.000720  -0.000001  -0.001040   0.003779   0.000075
    18  H   -0.036434  -0.002424  -0.000083   0.004415  -0.000584  -0.002196
    19  C    4.741028   0.380250  -0.025026  -0.037237  -0.035917   0.707262
    20  C    0.380250   5.004314   0.380434   0.385009   0.379156  -0.052179
    21  H   -0.025026   0.380434   0.568050  -0.029522  -0.026683  -0.009129
    22  H   -0.037237   0.385009  -0.029522   0.590418  -0.032907   0.000797
    23  H   -0.035917   0.379156  -0.026683  -0.032907   0.586637   0.000184
    24  C    0.707262  -0.052179  -0.009129   0.000797   0.000184   4.925670
    25  H   -0.033495   0.006020   0.000015  -0.000159  -0.000152   0.377262
    26  C   -0.040460  -0.013083   0.002011   0.000447   0.000197   0.369126
    27  H   -0.006733   0.000290   0.002869  -0.000167   0.000199  -0.039861
    28  H    0.003190   0.000234   0.000002  -0.000016   0.000034  -0.034425
              25         26         27         28
     1  C    0.001064   0.350898  -0.035835  -0.038573
     2  H   -0.000145  -0.031534  -0.005263  -0.002819
     3  H    0.001901  -0.041763   0.005386  -0.004567
     4  C   -0.000561  -0.051113  -0.006231   0.005885
     5  C    0.000130   0.000334  -0.000013  -0.000171
     6  H    0.000000  -0.000029   0.000002   0.000005
     7  H    0.000063  -0.000329   0.000012  -0.000008
     8  H    0.000084   0.000003   0.000063  -0.000009
     9  C    0.000000  -0.006738   0.002412   0.000122
    10  H    0.000000   0.000076   0.000879  -0.000058
    11  C   -0.000000  -0.000049  -0.000118   0.000003
    12  H    0.000000  -0.000008   0.000003   0.000000
    13  H    0.000000   0.000028   0.000000  -0.000001
    14  H   -0.000000  -0.000006   0.000001   0.000000
    15  C   -0.012914   0.005683   0.000089  -0.000168
    16  H    0.005944   0.000093   0.000009  -0.000008
    17  H    0.000207  -0.000195   0.000008   0.000010
    18  H    0.000274  -0.000120  -0.000007  -0.000003
    19  C   -0.033495  -0.040460  -0.006733   0.003190
    20  C    0.006020  -0.013083   0.000290   0.000234
    21  H    0.000015   0.002011   0.002869   0.000002
    22  H   -0.000159   0.000447  -0.000167  -0.000016
    23  H   -0.000152   0.000197   0.000199   0.000034
    24  C    0.377262   0.369126  -0.039861  -0.034425
    25  H    0.614659  -0.053921   0.004775  -0.005760
    26  C   -0.053921   4.977942   0.392607   0.380275
    27  H    0.004775   0.392607   0.604156  -0.034723
    28  H   -0.005760   0.380275  -0.034723   0.614802
 Mulliken charges:
               1
     1  C   -0.256462
     2  H    0.119029
     3  H    0.107472
     4  C    0.090982
     5  C   -0.392825
     6  H    0.125405
     7  H    0.119538
     8  H    0.133938
     9  C   -0.138410
    10  H    0.094946
    11  C   -0.391804
    12  H    0.121620
    13  H    0.129823
    14  H    0.133487
    15  C   -0.393206
    16  H    0.124385
    17  H    0.124921
    18  H    0.125275
    19  C    0.087621
    20  C   -0.389850
    21  H    0.126441
    22  H    0.122315
    23  H    0.128498
    24  C   -0.139411
    25  H    0.094709
    26  C   -0.240372
    27  H    0.115189
    28  H    0.116749
 Sum of Mulliken charges =  -0.00000
 Mulliken charges with hydrogens summed into heavy atoms:
               1
     1  C   -0.029961
     4  C    0.090982
     5  C   -0.013944
     9  C   -0.043464
    11  C   -0.006875
    15  C   -0.018625
    19  C    0.087621
    20  C   -0.012596
    24  C   -0.044702
    26  C   -0.008435
 Electronic spatial extent (au):  <R**2>=           1844.3673
 Charge=             -0.0000 electrons
 Dipole moment (field-independent basis, Debye):
    X=             -0.0663    Y=             -0.3123    Z=              0.0454  Tot=              0.3225
 Quadrupole moment (field-independent basis, Debye-Ang):
   XX=            -65.6094   YY=            -63.0196   ZZ=            -63.7860
   XY=             -0.2357   XZ=             -1.3230   YZ=              0.3440
 Traceless Quadrupole moment (field-independent basis, Debye-Ang):
   XX=             -1.4710   YY=              1.1187   ZZ=              0.3523
   XY=             -0.2357   XZ=             -1.3230   YZ=              0.3440
 Octapole moment (field-independent basis, Debye-Ang**2):
  XXX=             -0.7196  YYY=              2.2047  ZZZ=             -0.9627  XYY=             -1.4852
  XXY=             -5.9135  XXZ=             -0.0982  XZZ=              1.8405  YZZ=             -0.0138
  YYZ=              0.8261  XYZ=             -2.8456
 Hexadecapole moment (field-independent basis, Debye-Ang**3):
 XXXX=          -1470.9505 YYYY=           -677.5050 ZZZZ=           -405.8099 XXXY=             -5.3983
 XXXZ=            -10.9702 YYYX=             -2.3727 YYYZ=             -0.7216 ZZZX=             -0.6295
 ZZZY=              2.9955 XXYY=           -358.6516 XXZZ=           -308.5537 YYZZ=           -176.9818
 XXYZ=              5.5910 YYXZ=             -1.1977 ZZXY=              0.5669
 N-N= 5.419660770113D+02 E-N=-1.989066601330D+03  KE= 3.880726735947D+02
 No NMR shielding tensors so no spin-rotation constants.
 Leave Link  601 at Mon Jul 19 22:11:47 2021, MaxMem=   524288000 cpu:               1.9 elap:               0.7
 (Enter /opt/gaussian/g16_legacy/l701.exe)
 ... and contract with generalized density number  0.
 Compute integral first derivatives.
 Leave Link  701 at Mon Jul 19 22:11:48 2021, MaxMem=   524288000 cpu:               0.9 elap:               0.3
 (Enter /opt/gaussian/g16_legacy/l702.exe)
 L702 exits ... SP integral derivatives will be done elsewhere.
 Leave Link  702 at Mon Jul 19 22:11:48 2021, MaxMem=   524288000 cpu:               0.1 elap:               0.0
 (Enter /opt/gaussian/g16_legacy/l703.exe)
 Integral derivatives from FoFJK, PRISM(SPDF).
 Compute integral first derivatives, UseDBF=F ICtDFT=           0.
 Calling FoFJK, ICntrl=      2127 FMM=F ISym2X=0 I1Cent= 0 IOpClX= 0 NMat=1 NMatS=1 NMatT=0.
 FoFJK:  IHMeth= 1 ICntrl=    2127 DoSepK=F KAlg= 0 I1Cent=           0 FoldK=F
 IRaf=         0 NMat=       1 IRICut=       1 DoRegI=T DoRafI=F ISym2E= 0 IDoP0=0 IntGTp=1.
 FoFCou: FMM=F IPFlag=           0 FMFlag=      100000 FMFlg1=         800
         NFxFlg=           0 DoJE=F BraDBF=F KetDBF=F FulRan=T
         wScrn=  0.000000 ICntrl=      2127 IOpCl=  0 I1Cent=           0 NGrid=           0
         NMat0=    1 NMatS0=      1 NMatT0=    0 NMatD0=    1 NMtDS0=    0 NMtDT0=    0
 Symmetry not used in FoFCou.
 Leave Link  703 at Mon Jul 19 22:12:09 2021, MaxMem=   524288000 cpu:              86.1 elap:              21.5
 (Enter /opt/gaussian/g16_legacy/l716.exe)
 Dipole        =-2.60791740D-02-1.22872911D-01 1.78454305D-02
 ***** Axes restored to original set *****
 -------------------------------------------------------------------
 Center     Atomic                   Forces (Hartrees/Bohr)
 Number     Number              X              Y              Z
 -------------------------------------------------------------------
      1        6           0.000837262   -0.008230814   -0.003810211
      2        1           0.000289198    0.000364221    0.001840160
      3        1           0.000644747    0.002004654    0.002046114
      4        6          -0.001364255   -0.010224835    0.002999127
      5        6           0.005422607   -0.000809494   -0.002617023
      6        1           0.000098798    0.000225078    0.002258520
      7        1          -0.001170933    0.000047657    0.002825683
      8        1           0.000106412    0.002720583    0.000271784
      9        6          -0.007394062    0.014158322   -0.002973198
     10        1          -0.002731233   -0.000034707   -0.001620607
     11        6           0.000864682    0.002708112   -0.001406118
     12        1          -0.001488610   -0.000927644   -0.001277847
     13        1           0.001741879   -0.002009185    0.000250591
     14        1           0.002896299   -0.001664745    0.001667413
     15        6          -0.003897357    0.000201355   -0.001683464
     16        1          -0.000045134   -0.001511308   -0.000210734
     17        1           0.002416728    0.001156485    0.001316452
     18        1           0.001201054    0.001054070    0.002607894
     19        6          -0.006643011   -0.001582793   -0.015888656
     20        6          -0.003536634   -0.003156000    0.000454356
     21        1          -0.001005566   -0.000084638   -0.002255275
     22        1           0.000185414    0.001287643    0.001595073
     23        1           0.002879276    0.001637405    0.000842210
     24        6           0.008491148   -0.001614524    0.011040213
     25        1           0.001426215    0.002495261    0.001027678
     26        6          -0.003699121    0.001501583    0.003785678
     27        1           0.003767378    0.000985298   -0.001448125
     28        1          -0.000293181   -0.000697039   -0.001637685
 -------------------------------------------------------------------
 Cartesian Forces:  Max     0.015888656 RMS     0.003808731
 Leave Link  716 at Mon Jul 19 22:12:09 2021, MaxMem=   524288000 cpu:               0.2 elap:               0.1
 (Enter /opt/gaussian/g16_legacy/l103.exe)

 GradGradGradGradGradGradGradGradGradGradGradGradGradGradGradGradGradGrad
 Berny optimization.
 FormGI is forming the generalized inverse of G from B-inverse, IUseBI=4.
 Internal  Forces:  Max     0.015432221 RMS     0.002512240
 Search for a local minimum.
 Step number   1 out of a maximum of  138
 All quantities printed in internal units (Hartrees-Bohrs-Radians)
 RMS Force = .25122D-02 SwitMx=.10000D-02 MixMth= 1
 Mixed Optimization -- RFO/linear search
 Second derivative matrix not updated -- first step.
 ITU=  0
     Eigenvalues ---    0.00245   0.00503   0.00682   0.00692   0.00697
     Eigenvalues ---    0.00703   0.00817   0.01189   0.01284   0.01559
     Eigenvalues ---    0.01646   0.02755   0.02777   0.03792   0.03858
     Eigenvalues ---    0.05304   0.05357   0.06940   0.07061   0.07097
     Eigenvalues ---    0.07099   0.07175   0.07324   0.07345   0.07494
     Eigenvalues ---    0.09565   0.09580   0.13005   0.13006   0.15971
     Eigenvalues ---    0.15995   0.16000   0.16000   0.16000   0.16000
     Eigenvalues ---    0.16000   0.16000   0.16000   0.16000   0.16000
     Eigenvalues ---    0.16000   0.16000   0.16000   0.21903   0.21914
     Eigenvalues ---    0.22001   0.22009   0.24947   0.24974   0.24993
     Eigenvalues ---    0.24996   0.28572   0.30378   0.31719   0.31802
     Eigenvalues ---    0.31833   0.31880   0.32786   0.33872   0.33954
     Eigenvalues ---    0.34000   0.34017   0.34094   0.34196   0.34222
     Eigenvalues ---    0.34228   0.34259   0.34322   0.34331   0.34362
     Eigenvalues ---    0.34382   0.34481   0.34483   0.34848   0.34897
     Eigenvalues ---    0.34906   0.55103   0.55455
 RFO step:  Lambda=-3.96475583D-03 EMin= 2.44694379D-03
 Linear search not attempted -- first point.
 Iteration  1 RMS(Cart)=  0.10406451 RMS(Int)=  0.00230599
 Iteration  2 RMS(Cart)=  0.00436132 RMS(Int)=  0.00015670
 Iteration  3 RMS(Cart)=  0.00000474 RMS(Int)=  0.00015667
 Iteration  4 RMS(Cart)=  0.00000000 RMS(Int)=  0.00015667
 ITry= 1 IFail=0 DXMaxC= 4.56D-01 DCOld= 1.00D+10 DXMaxT= 3.00D-01 DXLimC= 3.00D+00 Rises=F
 Variable       Old X    -DE/DX   Delta X   Delta X   Delta X     New X
                                 (Linear)    (Quad)   (Total)
    R1        2.07547  -0.00086   0.00000  -0.00252  -0.00252   2.07295
    R2        2.07408  -0.00066   0.00000  -0.00192  -0.00192   2.07215
    R3        2.87215  -0.00301   0.00000  -0.00978  -0.00978   2.86237
    R4        2.90905  -0.00048   0.00000  -0.00165  -0.00165   2.90740
    R5        2.84661   0.00336   0.00000   0.01046   0.01046   2.85706
    R6        2.54730  -0.01463   0.00000  -0.02619  -0.02619   2.52111
    R7        2.06895  -0.00073   0.00000  -0.00211  -0.00211   2.06684
    R8        2.06946  -0.00153   0.00000  -0.00443  -0.00443   2.06503
    R9        2.06525   0.00192   0.00000   0.00552   0.00552   2.07077
   R10        2.05828   0.00125   0.00000   0.00354   0.00354   2.06182
   R11        2.82729   0.00374   0.00000   0.01126   0.01126   2.83856
   R12        2.06724  -0.00142   0.00000  -0.00408  -0.00408   2.06316
   R13        2.06789   0.00070   0.00000   0.00202   0.00202   2.06991
   R14        2.06523   0.00173   0.00000   0.00496   0.00496   2.07019
   R15        2.06690  -0.00083   0.00000  -0.00238  -0.00238   2.06452
   R16        2.06775   0.00105   0.00000   0.00302   0.00302   2.07077
   R17        2.06957   0.00088   0.00000   0.00254   0.00254   2.07210
   R18        2.84508   0.00118   0.00000   0.00367   0.00367   2.84876
   R19        2.84365  -0.00008   0.00000  -0.00024  -0.00024   2.84341
   R20        2.55041  -0.01543   0.00000  -0.02781  -0.02781   2.52260
   R21        2.05922   0.00086   0.00000   0.00244   0.00244   2.06166
   R22        2.07001   0.00047   0.00000   0.00136   0.00136   2.07137
   R23        2.07302  -0.00016   0.00000  -0.00047  -0.00047   2.07255
   R24        2.05842   0.00074   0.00000   0.00209   0.00209   2.06051
   R25        2.84450  -0.00009   0.00000  -0.00028  -0.00028   2.84422
   R26        2.07330  -0.00159   0.00000  -0.00463  -0.00463   2.06867
   R27        2.07171   0.00072   0.00000   0.00209   0.00209   2.07381
    A1        1.83509   0.00074   0.00000   0.02630   0.02629   1.86138
    A2        1.90819   0.00141   0.00000   0.00918   0.00922   1.91741
    A3        1.88747   0.00157   0.00000   0.00991   0.01002   1.89749
    A4        1.91806   0.00200   0.00000   0.00198   0.00139   1.91946
    A5        1.91791  -0.00018   0.00000  -0.01324  -0.01354   1.90437
    A6        1.99039  -0.00507   0.00000  -0.02924  -0.02948   1.96091
    A7        2.02698   0.00607   0.00000   0.02372   0.02350   2.05048
    A8        2.10302  -0.00379   0.00000  -0.01519  -0.01538   2.08765
    A9        2.15295  -0.00229   0.00000  -0.00927  -0.00946   2.14349
   A10        1.94860   0.00025   0.00000   0.00576   0.00574   1.95435
   A11        1.94106  -0.00149   0.00000  -0.00914  -0.00916   1.93190
   A12        1.93598   0.00185   0.00000   0.00715   0.00712   1.94310
   A13        1.85613   0.00206   0.00000   0.02041   0.02041   1.87654
   A14        1.89254  -0.00112   0.00000  -0.00662  -0.00664   1.88590
   A15        1.88642  -0.00163   0.00000  -0.01789  -0.01792   1.86851
   A16        2.07122  -0.00267   0.00000  -0.01535  -0.01573   2.05549
   A17        2.21189  -0.00043   0.00000  -0.00118  -0.00154   2.21035
   A18        1.99734   0.00317   0.00000   0.01999   0.01963   2.01697
   A19        1.97632  -0.00276   0.00000  -0.01591  -0.01584   1.96048
   A20        1.90667   0.00227   0.00000   0.01422   0.01419   1.92086
   A21        1.92372   0.00398   0.00000   0.02300   0.02299   1.94671
   A22        1.86944   0.00062   0.00000   0.00627   0.00632   1.87576
   A23        1.89363  -0.00086   0.00000  -0.00586  -0.00578   1.88785
   A24        1.89163  -0.00347   0.00000  -0.02308  -0.02320   1.86843
   A25        1.88240   0.00056   0.00000   0.00683   0.00684   1.88925
   A26        1.88131   0.00056   0.00000   0.00637   0.00639   1.88769
   A27        1.96048  -0.00204   0.00000  -0.00914  -0.00912   1.95135
   A28        1.89433  -0.00326   0.00000  -0.02645  -0.02644   1.86788
   A29        1.92753   0.00209   0.00000   0.01130   0.01131   1.93884
   A30        1.91596   0.00194   0.00000   0.01002   0.01003   1.92599
   A31        1.99277   0.00122   0.00000   0.00539   0.00516   1.99793
   A32        2.10853   0.00119   0.00000   0.00538   0.00515   2.11368
   A33        2.18030  -0.00237   0.00000  -0.00867  -0.00890   2.17140
   A34        1.98473  -0.00279   0.00000  -0.01274  -0.01275   1.97199
   A35        1.92242  -0.00018   0.00000  -0.00531  -0.00532   1.91710
   A36        1.92118   0.00163   0.00000   0.00999   0.01000   1.93118
   A37        1.86579   0.00166   0.00000   0.01042   0.01039   1.87618
   A38        1.87546   0.00196   0.00000   0.01968   0.01969   1.89515
   A39        1.89108  -0.00229   0.00000  -0.02249  -0.02249   1.86859
   A40        2.07210  -0.00317   0.00000  -0.01918  -0.01919   2.05291
   A41        2.21363   0.00029   0.00000   0.00124   0.00123   2.21486
   A42        1.99703   0.00287   0.00000   0.01767   0.01765   2.01468
   A43        1.98423  -0.00195   0.00000  -0.01401  -0.01427   1.96996
   A44        1.91733  -0.00118   0.00000  -0.02189  -0.02221   1.89512
   A45        1.89468  -0.00012   0.00000   0.00294   0.00308   1.89776
   A46        1.94327   0.00071   0.00000  -0.00668  -0.00726   1.93601
   A47        1.88388   0.00167   0.00000   0.02054   0.02057   1.90445
   A48        1.83331   0.00117   0.00000   0.02344   0.02348   1.85679
    D1        2.54649   0.00193   0.00000   0.09518   0.09531   2.64180
    D2       -0.61725   0.00134   0.00000   0.05893   0.05892  -0.55833
    D3        0.54073  -0.00086   0.00000   0.05737   0.05742   0.59815
    D4       -2.62301  -0.00145   0.00000   0.02112   0.02103  -2.60198
    D5       -1.62156   0.00155   0.00000   0.09480   0.09483  -1.52672
    D6        1.49789   0.00096   0.00000   0.05855   0.05844   1.55633
    D7        3.14131  -0.00109   0.00000   0.02530   0.02544  -3.11643
    D8        0.95064   0.00039   0.00000   0.06222   0.06207   1.01271
    D9       -1.04510  -0.00031   0.00000   0.04439   0.04441  -1.00068
   D10       -1.14766   0.00055   0.00000   0.05495   0.05492  -1.09274
   D11        2.94485   0.00203   0.00000   0.09187   0.09155   3.03640
   D12        0.94911   0.00133   0.00000   0.07403   0.07389   1.02301
   D13        1.01471  -0.00068   0.00000   0.02571   0.02600   1.04071
   D14       -1.17596   0.00080   0.00000   0.06263   0.06263  -1.11334
   D15        3.11148   0.00010   0.00000   0.04480   0.04497  -3.12673
   D16       -2.51614  -0.00113   0.00000  -0.04783  -0.04795  -2.56408
   D17       -0.44594   0.00065   0.00000  -0.02435  -0.02448  -0.47042
   D18        1.65412  -0.00116   0.00000  -0.04829  -0.04841   1.60571
   D19        0.64830  -0.00050   0.00000  -0.01036  -0.01024   0.63806
   D20        2.71850   0.00128   0.00000   0.01311   0.01322   2.73172
   D21       -1.46463  -0.00053   0.00000  -0.01082  -0.01070  -1.47533
   D22        0.03182   0.00009   0.00000   0.02136   0.02081   0.05263
   D23       -3.02562  -0.00114   0.00000  -0.03261  -0.03261  -3.05823
   D24       -3.13358  -0.00044   0.00000  -0.01718  -0.01718   3.13243
   D25        0.09217  -0.00167   0.00000  -0.07115  -0.07060   0.02157
   D26        0.06446   0.00006   0.00000   0.00724   0.00742   0.07188
   D27        2.14622   0.00064   0.00000   0.01474   0.01486   2.16108
   D28       -2.06031   0.00019   0.00000   0.00908   0.00935  -2.05096
   D29       -2.99604  -0.00089   0.00000  -0.04334  -0.04354  -3.03958
   D30       -0.91427  -0.00031   0.00000  -0.03584  -0.03610  -0.95037
   D31        1.16238  -0.00076   0.00000  -0.04150  -0.04161   1.12077
   D32       -3.06589   0.00012   0.00000   0.00697   0.00708  -3.05882
   D33        0.13324  -0.00043   0.00000  -0.03075  -0.03087   0.10237
   D34       -0.96368   0.00092   0.00000   0.01737   0.01748  -0.94620
   D35        2.23546   0.00036   0.00000  -0.02035  -0.02047   2.21499
   D36        1.12443  -0.00058   0.00000  -0.00194  -0.00182   1.12260
   D37       -1.95962  -0.00113   0.00000  -0.03966  -0.03977  -1.99939
   D38       -2.97065  -0.00011   0.00000  -0.04009  -0.04004  -3.01068
   D39       -0.87692   0.00001   0.00000  -0.03914  -0.03906  -0.91598
   D40        1.20726  -0.00190   0.00000  -0.06399  -0.06392   1.14334
   D41        0.11067   0.00062   0.00000  -0.00001  -0.00010   0.11057
   D42        2.20439   0.00074   0.00000   0.00094   0.00088   2.20528
   D43       -1.99461  -0.00118   0.00000  -0.02392  -0.02398  -2.01859
   D44       -0.02584   0.00068   0.00000   0.03350   0.03339   0.00755
   D45        3.08258   0.00053   0.00000   0.02335   0.02335   3.10592
   D46       -3.10340  -0.00008   0.00000  -0.00902  -0.00902  -3.11242
   D47        0.00502  -0.00022   0.00000  -0.01918  -0.01907  -0.01405
   D48       -1.71347   0.00094   0.00000   0.02766   0.02764  -1.68584
   D49        0.46334  -0.00160   0.00000  -0.01800  -0.01795   0.44539
   D50        2.46685   0.00116   0.00000   0.01846   0.01856   2.48541
   D51        1.39616   0.00070   0.00000   0.01729   0.01719   1.41335
   D52       -2.71021  -0.00184   0.00000  -0.02837  -0.02840  -2.73861
   D53       -0.70670   0.00092   0.00000   0.00809   0.00811  -0.69859
         Item               Value     Threshold  Converged?
 Maximum Force            0.015432     0.002500     NO 
 RMS     Force            0.002512     0.001667     NO 
 Maximum Displacement     0.455680     0.010000     NO 
 RMS     Displacement     0.104156     0.006667     NO 
 Predicted change in Energy=-2.186067D-03
 Lowest energy point so far.  Saving SCF results.
 GradGradGradGradGradGradGradGradGradGradGradGradGradGradGradGradGradGrad

 Leave Link  103 at Mon Jul 19 22:12:09 2021, MaxMem=   524288000 cpu:               0.2 elap:               0.1
 (Enter /opt/gaussian/g16_legacy/l202.exe)
                          Input orientation:                          
 ---------------------------------------------------------------------
 Center     Atomic      Atomic             Coordinates (Angstroms)
 Number     Number       Type             X           Y           Z
 ---------------------------------------------------------------------
      1          6           0        2.167270    1.248077   -9.061927
      2          1           0        1.824916    0.242152   -9.334380
      3          1           0        1.975927    1.890782   -9.929517
      4          6           0        3.650262    1.221309   -8.754786
      5          6           0        4.437798    2.487203   -9.006029
      6          1           0        5.462690    2.275365   -9.323765
      7          1           0        3.967308    3.085377   -9.790227
      8          1           0        4.483250    3.113270   -8.107830
      9          6           0        4.192811    0.126739   -8.218677
     10          1           0        3.546003   -0.738493   -8.065555
[...]
                 (A) (A) (A) (A) (A) (A) (A) (A) (A) (A) (A) (A)
                 (A) (A) (A) (A) (A) (A) (A) (A) (A) (A) (A) (A)
                 (A) (A) (A) (A) (A) (A) (A) (A) (A) (A) (A) (A)
                 (A) (A) (A) (A) (A) (A) (A) (A) (A) (A) (A) (A)
                 (A) (A) (A) (A) (A) (A) (A) (A) (A) (A) (A) (A)
                 (A) (A) (A) (A) (A) (A) (A) (A) (A) (A) (A) (A)
                 (A) (A) (A) (A) (A) (A) (A) (A) (A) (A) (A) (A)
                 (A) (A) (A) (A) (A) (A) (A) (A) (A) (A) (A) (A)
                 (A) (A) (A) (A) (A) (A) (A) (A) (A)
 The electronic state is 1-A.
 Alpha  occ. eigenvalues --  -10.54422 -10.53969 -10.53826 -10.53781 -10.53318
 Alpha  occ. eigenvalues --  -10.53270 -10.53189 -10.53037 -10.52993 -10.52984
 Alpha  occ. eigenvalues --   -0.92205  -0.89633  -0.84817  -0.80467  -0.77602
 Alpha  occ. eigenvalues --   -0.76696  -0.72368  -0.67769  -0.58546  -0.57771
 Alpha  occ. eigenvalues --   -0.53708  -0.52354  -0.50362  -0.49731  -0.48385
 Alpha  occ. eigenvalues --   -0.47733  -0.46035  -0.44998  -0.44111  -0.43896
 Alpha  occ. eigenvalues --   -0.43628  -0.42518  -0.41285  -0.40563  -0.39570
 Alpha  occ. eigenvalues --   -0.37153  -0.36629  -0.28727  -0.26947
 Alpha virt. eigenvalues --    0.06707   0.07299   0.12018   0.15642   0.16221
 Alpha virt. eigenvalues --    0.16409   0.17909   0.18569   0.19632   0.20242
 Alpha virt. eigenvalues --    0.21320   0.21927   0.22489   0.23230   0.23647
 Alpha virt. eigenvalues --    0.24422   0.25284   0.25831   0.26938   0.27727
 Alpha virt. eigenvalues --    0.28784   0.29570   0.30428   0.31536   0.32816
 Alpha virt. eigenvalues --    0.38044   0.40018   0.45799   0.48300   0.50971
 Alpha virt. eigenvalues --    0.53917   0.55251   0.57034   0.57731   0.60105
 Alpha virt. eigenvalues --    0.60511   0.61256   0.62790   0.64758   0.66992
 Alpha virt. eigenvalues --    0.67442   0.69725   0.70913   0.71763   0.73478
 Alpha virt. eigenvalues --    0.75930   0.76486   0.77690   0.79411   0.81561
 Alpha virt. eigenvalues --    0.82354   0.83044   0.84210   0.85584   0.87321
 Alpha virt. eigenvalues --    0.87819   0.89357   0.91484   0.92656   0.92961
 Alpha virt. eigenvalues --    0.93787   0.94905   0.95477   0.96043   0.96379
 Alpha virt. eigenvalues --    0.97403   0.97920   0.99520   0.99866   1.01808
 Alpha virt. eigenvalues --    1.02297   1.04281   1.04493   1.06176   1.07682
 Alpha virt. eigenvalues --    1.10898   1.11552   1.20269   1.23421   1.26879
 Alpha virt. eigenvalues --    1.28080   1.32825   1.35907   1.37794   1.39097
 Alpha virt. eigenvalues --    1.40311   1.46497   1.47299   1.48485   1.50638
 Alpha virt. eigenvalues --    1.52863   1.56441   1.67376   1.68284   1.72273
 Alpha virt. eigenvalues --    1.76030   1.77598   1.78691   1.82097   1.83637
 Alpha virt. eigenvalues --    1.84281   1.85105   1.87055   1.88576   1.89658
 Alpha virt. eigenvalues --    1.91832   1.94185   1.95078   2.01821   2.02766
 Alpha virt. eigenvalues --    2.04756   2.05411   2.09506   2.09734   2.10094
 Alpha virt. eigenvalues --    2.10300   2.11503   2.12126   2.13334   2.15114
 Alpha virt. eigenvalues --    2.16190   2.16715   2.17454   2.18146   2.19221
 Alpha virt. eigenvalues --    2.20589   2.21902   2.22333   2.24240   2.27061
 Alpha virt. eigenvalues --    2.29554   2.30360   2.31940   2.34529   2.35794
 Alpha virt. eigenvalues --    2.39100   2.39932   2.42855   2.43944   2.44653
 Alpha virt. eigenvalues --    2.46089   2.48113   2.51195   2.52501   2.54771
 Alpha virt. eigenvalues --    2.55717   2.59675   2.60082   2.62762   2.63241
 Alpha virt. eigenvalues --    2.65438   2.66869   2.68591   2.71133   2.72192
 Alpha virt. eigenvalues --    2.74284   2.75876   2.78489   2.78829   2.82853
 Alpha virt. eigenvalues --    2.85035   2.86086   2.86340   2.87664   2.88975
 Alpha virt. eigenvalues --    2.90287   2.91468   2.92427   2.93783   3.04058
 Alpha virt. eigenvalues --    3.04397   3.09479   3.10640   3.17133   3.18725
 Alpha virt. eigenvalues --    3.24430   3.25082   3.27976   3.32196   3.40307
 Alpha virt. eigenvalues --    3.41227   3.42457   3.43318   3.44167   3.44830
 Alpha virt. eigenvalues --    3.46007   3.46530   3.48717   3.52012   3.52664
 Alpha virt. eigenvalues --    3.55592   4.18860   4.25660   4.35025   4.46454
 Alpha virt. eigenvalues --    4.49568   4.52529   4.54395   4.70172   4.71774
 Alpha virt. eigenvalues --    4.75444
          Condensed to atoms (all electrons):
               1          2          3          4          5          6
     1  C    5.016103   0.384603   0.381274   0.375096  -0.060871   0.001980
     2  H    0.384603   0.601404  -0.032318  -0.038439   0.004999  -0.000163
     3  H    0.381274  -0.032318   0.617820  -0.035596  -0.007015   0.000485
     4  C    0.375096  -0.038439  -0.035596   4.779741   0.369102  -0.030347
     5  C   -0.060871   0.004999  -0.007015   0.369102   5.000247   0.379624
     6  H    0.001980  -0.000163   0.000485  -0.030347   0.379624   0.580834
     7  H   -0.006706   0.000151   0.004413  -0.032174   0.386485  -0.027902
     8  H    0.003767  -0.000139  -0.000016  -0.030602   0.382510  -0.031295
     9  C   -0.041858  -0.008206   0.003920   0.702246  -0.063089  -0.005950
    10  H   -0.011668   0.005199   0.000255  -0.039291   0.006122  -0.000086
    11  C    0.005417   0.000097  -0.000197  -0.044954  -0.012511   0.000243
    12  H    0.000168   0.000001   0.000003  -0.011286   0.005422   0.000991
    13  H   -0.000100  -0.000014  -0.000001   0.000069   0.000200  -0.000174
    14  H   -0.000157   0.000006   0.000008   0.000302   0.000251   0.000342
    15  C   -0.000084   0.000003   0.000001  -0.000078  -0.000144  -0.000000
    16  H   -0.000006   0.000000   0.000002   0.000005  -0.000018   0.000000
    17  H   -0.000007   0.000000   0.000000  -0.000001   0.000010   0.000000
    18  H    0.000035  -0.000000  -0.000001  -0.000016   0.000122  -0.000027
    19  C   -0.005564  -0.000006   0.000278   0.003113  -0.001998   0.000341
    20  C    0.000142  -0.000021  -0.000014   0.000259  -0.001353   0.000023
    21  H   -0.000883   0.000061   0.000022   0.002022  -0.000107   0.000013
    22  H    0.000196  -0.000006  -0.000001  -0.000380  -0.000588  -0.000083
    23  H   -0.000048   0.000001   0.000001   0.000147   0.000046   0.000001
    24  C   -0.055679   0.005423  -0.004550  -0.007844   0.003206   0.000329
    25  H    0.000595  -0.000132   0.002081  -0.000408  -0.000231  -0.000005
    26  C    0.350276  -0.032629  -0.042486  -0.052878  -0.001478  -0.000009
    27  H   -0.038624  -0.004666   0.005661  -0.006503  -0.000047   0.000000
    28  H   -0.039193  -0.003270  -0.003634   0.006055  -0.000158   0.000007
               7          8          9         10         11         12
     1  C   -0.006706   0.003767  -0.041858  -0.011668   0.005417   0.000168
     2  H    0.000151  -0.000139  -0.008206   0.005199   0.000097   0.000001
     3  H    0.004413  -0.000016   0.003920   0.000255  -0.000197   0.000003
     4  C   -0.032174  -0.030602   0.702246  -0.039291  -0.044954  -0.011286
     5  C    0.386485   0.382510  -0.063089   0.006122  -0.012511   0.005422
     6  H   -0.027902  -0.031295  -0.005950  -0.000086   0.000243   0.000991
     7  H    0.579645  -0.029372   0.004715  -0.000161   0.000355  -0.000079
     8  H   -0.029372   0.585166  -0.008258  -0.000118   0.000608   0.000121
     9  C    0.004715  -0.008258   4.910456   0.380303   0.365959  -0.034058
    10  H   -0.000161  -0.000118   0.380303   0.615720  -0.052554   0.004462
    11  C    0.000355   0.000608   0.365959  -0.052554   4.971350   0.390801
    12  H   -0.000079   0.000121  -0.034058   0.004462   0.390801   0.579268
    13  H   -0.000009   0.000544  -0.034226  -0.001205   0.384084  -0.028994
    14  H   -0.000006  -0.000143  -0.032493  -0.001662   0.385872  -0.028442
    15  C    0.000107  -0.000216   0.000005  -0.000000  -0.000000  -0.000000
    16  H    0.000039  -0.000019   0.000000  -0.000000  -0.000000  -0.000000
    17  H    0.000004   0.000002  -0.000000  -0.000000   0.000000  -0.000000
    18  H   -0.000017   0.000711  -0.000003  -0.000000  -0.000000  -0.000000
    19  C    0.000063   0.000122   0.000259  -0.000020   0.000002  -0.000014
    20  C    0.000056  -0.000504  -0.001185  -0.000036  -0.000020  -0.000021
    21  H    0.000003  -0.000340   0.002960   0.000107  -0.000156  -0.000007
    22  H   -0.000055   0.002430  -0.000473   0.000002   0.000281   0.000088
    23  H   -0.000000  -0.000057   0.000109   0.000001  -0.000003   0.000000
    24  C    0.002013  -0.000609  -0.001135   0.000105   0.000008  -0.000001
    25  H    0.000558   0.000061  -0.000001   0.000001  -0.000000  -0.000000
    26  C   -0.000885   0.000203  -0.007486  -0.000006  -0.000047  -0.000012
    27  H    0.000067   0.000042   0.002969   0.000916  -0.000160   0.000003
    28  H   -0.000051  -0.000003   0.000153  -0.000065   0.000003   0.000000
              13         14         15         16         17         18
     1  C   -0.000100  -0.000157  -0.000084  -0.000006  -0.000007   0.000035
     2  H   -0.000014   0.000006   0.000003   0.000000   0.000000  -0.000000
     3  H   -0.000001   0.000008   0.000001   0.000002   0.000000  -0.000001
     4  C    0.000069   0.000302  -0.000078   0.000005  -0.000001  -0.000016
     5  C    0.000200   0.000251  -0.000144  -0.000018   0.000010   0.000122
     6  H   -0.000174   0.000342  -0.000000   0.000000   0.000000  -0.000027
     7  H   -0.000009  -0.000006   0.000107   0.000039   0.000004  -0.000017
     8  H    0.000544  -0.000143  -0.000216  -0.000019   0.000002   0.000711
     9  C   -0.034226  -0.032493   0.000005   0.000000  -0.000000  -0.000003
    10  H   -0.001205  -0.001662  -0.000000  -0.000000  -0.000000  -0.000000
    11  C    0.384084   0.385872  -0.000000  -0.000000   0.000000  -0.000000
    12  H   -0.028994  -0.028442  -0.000000  -0.000000  -0.000000  -0.000000
    13  H    0.582297  -0.033402   0.000000  -0.000000   0.000000   0.000000
    14  H   -0.033402   0.577681   0.000000  -0.000000  -0.000000  -0.000000
    15  C    0.000000   0.000000   5.006366   0.384728   0.381283   0.380156
    16  H   -0.000000  -0.000000   0.384728   0.571818  -0.026425  -0.026673
    17  H    0.000000  -0.000000   0.381283  -0.026425   0.589838  -0.036845
    18  H    0.000000  -0.000000   0.380156  -0.026673  -0.036845   0.596199
    19  C   -0.000002   0.000000   0.367565  -0.033454  -0.035389  -0.036583
    20  C    0.000155   0.000004  -0.078646   0.004781  -0.001363  -0.001829
    21  H   -0.000002   0.000012   0.004913  -0.000172  -0.000012  -0.000059
    22  H    0.000313  -0.000002  -0.002542  -0.000015  -0.000837   0.004216
    23  H   -0.000020   0.000000  -0.003165  -0.000019   0.004349  -0.000871
    24  C    0.000003  -0.000001  -0.037977  -0.005092  -0.000862  -0.001328
    25  H    0.000000  -0.000000  -0.014451   0.006668   0.000261   0.000252
    26  C    0.000034  -0.000006   0.005847   0.000097  -0.000191  -0.000126
    27  H   -0.000002   0.000002   0.000074   0.000011   0.000009  -0.000008
    28  H   -0.000001   0.000000  -0.000167  -0.000008   0.000011  -0.000003
              19         20         21         22         23         24
     1  C   -0.005564   0.000142  -0.000883   0.000196  -0.000048  -0.055679
     2  H   -0.000006  -0.000021   0.000061  -0.000006   0.000001   0.005423
     3  H    0.000278  -0.000014   0.000022  -0.000001   0.000001  -0.004550
     4  C    0.003113   0.000259   0.002022  -0.000380   0.000147  -0.007844
     5  C   -0.001998  -0.001353  -0.000107  -0.000588   0.000046   0.003206
     6  H    0.000341   0.000023   0.000013  -0.000083   0.000001   0.000329
     7  H    0.000063   0.000056   0.000003  -0.000055  -0.000000   0.002013
     8  H    0.000122  -0.000504  -0.000340   0.002430  -0.000057  -0.000609
     9  C    0.000259  -0.001185   0.002960  -0.000473   0.000109  -0.001135
    10  H   -0.000020  -0.000036   0.000107   0.000002   0.000001   0.000105
    11  C    0.000002  -0.000020  -0.000156   0.000281  -0.000003   0.000008
    12  H   -0.000014  -0.000021  -0.000007   0.000088   0.000000  -0.000001
    13  H   -0.000002   0.000155  -0.000002   0.000313  -0.000020   0.000003
    14  H    0.000000   0.000004   0.000012  -0.000002   0.000000  -0.000001
    15  C    0.367565  -0.078646   0.004913  -0.002542  -0.003165  -0.037977
    16  H   -0.033454   0.004781  -0.000172  -0.000015  -0.000019  -0.005092
    17  H   -0.035389  -0.001363  -0.000012  -0.000837   0.004349  -0.000862
    18  H   -0.036583  -0.001829  -0.000059   0.004216  -0.000871  -0.001328
    19  C    4.723958   0.381979  -0.026220  -0.036872  -0.036258   0.715684
    20  C    0.381979   5.002800   0.382176   0.381378   0.380550  -0.052295
    21  H   -0.026220   0.382176   0.566168  -0.028365  -0.025456  -0.008888
    22  H   -0.036872   0.381378  -0.028365   0.594819  -0.035568  -0.000284
    23  H   -0.036258   0.380550  -0.025456  -0.035568   0.590013   0.000974
    24  C    0.715684  -0.052295  -0.008888  -0.000284   0.000974   4.918698
    25  H   -0.034179   0.006443   0.000002  -0.000175  -0.000159   0.375618
    26  C   -0.039709  -0.014626   0.001568   0.000580   0.000204   0.370671
    27  H   -0.006177  -0.000193   0.003744  -0.000267   0.000139  -0.041408
    28  H    0.002971   0.000291   0.000023  -0.000021   0.000025  -0.033145
              25         26         27         28
     1  C    0.000595   0.350276  -0.038624  -0.039193
     2  H   -0.000132  -0.032629  -0.004666  -0.003270
     3  H    0.002081  -0.042486   0.005661  -0.003634
     4  C   -0.000408  -0.052878  -0.006503   0.006055
     5  C   -0.000231  -0.001478  -0.000047  -0.000158
     6  H   -0.000005  -0.000009   0.000000   0.000007
     7  H    0.000558  -0.000885   0.000067  -0.000051
     8  H    0.000061   0.000203   0.000042  -0.000003
     9  C   -0.000001  -0.007486   0.002969   0.000153
    10  H    0.000001  -0.000006   0.000916  -0.000065
    11  C   -0.000000  -0.000047  -0.000160   0.000003
    12  H   -0.000000  -0.000012   0.000003   0.000000
    13  H    0.000000   0.000034  -0.000002  -0.000001
    14  H   -0.000000  -0.000006   0.000002   0.000000
    15  C   -0.014451   0.005847   0.000074  -0.000167
    16  H    0.006668   0.000097   0.000011  -0.000008
    17  H    0.000261  -0.000191   0.000009   0.000011
    18  H    0.000252  -0.000126  -0.000008  -0.000003
    19  C   -0.034179  -0.039709  -0.006177   0.002971
    20  C    0.006443  -0.014626  -0.000193   0.000291
    21  H    0.000002   0.001568   0.003744   0.000023
    22  H   -0.000175   0.000580  -0.000267  -0.000021
    23  H   -0.000159   0.000204   0.000139   0.000025
    24  C    0.375618   0.370671  -0.041408  -0.033145
    25  H    0.618681  -0.053119   0.004770  -0.005171
    26  C   -0.053119   4.983907   0.391892   0.379843
    27  H    0.004770   0.391892   0.604448  -0.032076
    28  H   -0.005171   0.379843  -0.032076   0.610121
 Mulliken charges:
               1
     1  C   -0.258204
     2  H    0.118059
     3  H    0.109604
     4  C    0.092639
     5  C   -0.388735
     6  H    0.130831
     7  H    0.118742
     8  H    0.125402
     9  C   -0.135629
    10  H    0.093680
    11  C   -0.394477
    12  H    0.121586
    13  H    0.130455
    14  H    0.131834
    15  C   -0.393576
    16  H    0.123752
    17  H    0.126165
    18  H    0.122697
    19  C    0.096112
    20  C   -0.388930
    21  H    0.126872
    22  H    0.122231
    23  H    0.125065
    24  C   -0.141634
    25  H    0.092042
    26  C   -0.239429
    27  H    0.115383
    28  H    0.117462
 Sum of Mulliken charges =  -0.00000
 Mulliken charges with hydrogens summed into heavy atoms:
               1
     1  C   -0.030540
     4  C    0.092639
     5  C   -0.013760
     9  C   -0.041949
    11  C   -0.010603
    15  C   -0.020962
    19  C    0.096112
    20  C   -0.014762
    24  C   -0.049592
    26  C   -0.006583
 Electronic spatial extent (au):  <R**2>=           1824.8488
 Charge=             -0.0000 electrons
 Dipole moment (field-independent basis, Debye):
    X=             -0.0550    Y=             -0.3210    Z=              0.0631  Tot=              0.3317
 Quadrupole moment (field-independent basis, Debye-Ang):
   XX=            -65.3382   YY=            -63.0039   ZZ=            -64.1557
   XY=             -0.0600   XZ=             -1.5590   YZ=              0.2101
 Traceless Quadrupole moment (field-independent basis, Debye-Ang):
   XX=             -1.1723   YY=              1.1620   ZZ=              0.0103
   XY=             -0.0600   XZ=             -1.5590   YZ=              0.2101
 Octapole moment (field-independent basis, Debye-Ang**2):
  XXX=              0.4029  YYY=              1.6207  ZZZ=             -0.1723  XYY=             -1.4870
  XXY=             -5.7156  XXZ=             -0.5601  XZZ=              1.5877  YZZ=             -0.0798
  YYZ=              0.1317  XYZ=             -3.6475
 Hexadecapole moment (field-independent basis, Debye-Ang**3):
 XXXX=          -1471.9086 YYYY=           -665.1857 ZZZZ=           -384.3033 XXXY=             -2.7808
 XXXZ=            -13.4277 YYYX=             -1.2276 YYYZ=             -2.0308 ZZZX=             -0.5131
 ZZZY=              2.3712 XXYY=           -356.7210 XXZZ=           -305.9915 YYZZ=           -172.8659
 XXYZ=              5.3826 YYXZ=             -2.2601 ZZXY=             -0.0062
 N-N= 5.449619127457D+02 E-N=-1.995094639516D+03  KE= 3.881295107023D+02
 No NMR shielding tensors so no spin-rotation constants.
 Leave Link  601 at Mon Jul 19 22:54:56 2021, MaxMem=   524288000 cpu:               1.7 elap:               0.6
 (Enter /opt/gaussian/g16_legacy/l9999.exe)
 1\1\GINC-TRUENO90\FOpt\RM062X\6-31G(d,p)\C10H18\JRAMOS\19-Jul-2021\0\\
 #p opt=loose m062x/6-31g(d,p)\\Conformer number 041. Energy MM = 26.84
 1 kcal/mol\\0,1\C,2.1837018047,1.2449712754,-9.0744756435\H,1.84230518
 65,0.2396877411,-9.3437096578\H,2.0081554966,1.8882554376,-9.945547026
 \C,3.660312546,1.2152851304,-8.7441398024\C,4.4593462842,2.4788559774,
 -8.9893411042\H,5.2893243459,2.2951122103,-9.6800081037\H,3.8319144895
 ,3.2627622651,-9.4178073972\H,4.8833617747,2.8780299134,-8.0616653144\
 C,4.2059147196,0.1141162535,-8.2187190699\H,3.5650850627,-0.7573336101
 ,-8.0783503454\C,5.6301550854,-0.0390609133,-7.7741935953\H,6.22581724
 74,0.8491896454,-7.9941991931\H,5.6836455221,-0.2188091445,-6.69408293
 65\H,6.1076342993,-0.8957891517,-8.2613431735\C,2.8209375674,4.9311634
 257,-6.1647435971\H,2.287254048,5.601222554,-6.8423470546\H,2.55589353
 2,5.1981116138,-5.1351108702\H,3.8964203374,5.1192430931,-6.2713850599
 \C,2.5066838003,3.4851593754,-6.4446692305\C,3.2044752833,2.5113601127
 ,-5.5323259727\H,2.9681736217,1.4704675305,-5.7524404779\H,4.291995069
 9,2.6278808754,-5.6234771997\H,2.9536987237,2.7181362066,-4.4853743465
 \C,1.6958528194,3.1388509474,-7.4501521825\H,1.2803075304,3.9439622467
 ,-8.0581189564\C,1.3314075136,1.7477779108,-7.888043454\H,1.4456252802
 ,1.0372192739,-7.0639571019\H,0.274801008,1.725971804,-8.1798721334\\V
 ersion=EM64L-G16RevA.03\State=1-A\HF=-391.690131\RMSD=3.557e-09\RMSF=9
 .312e-06\Dipole=0.0995062,0.0516727,0.0667788\Quadrupole=-0.1321821,0.
 5763196,-0.4441375,0.315298,1.1927954,-0.5720752\PG=C01 [X(C10H18)]\\@


 THE CHYMISTS ARE A STRANGE CLASS OF MORTALS IMPELLED
 BY AN ALMOST INSANE IMPULSE TO SEEK THEIR PLEASURE
 AMONG SMOKE AND VAPOR, SOOT AND FLAME, POISONS AND
 POVERTY; YET AMONG ALL THESE EVILS I SEEM TO LIVE
 SO SWEETLY, THAT I MAY DIE IF I WOULD CHANGE PLACES
 WITH THE PERSIAN KING.
   --  JOHANN JOACHIM BECHER, 1635-1682
 ACTA LABORATORII CHYMICA MONACENSIS, 1669
 Job cpu time:       0 days  2 hours 51 minutes  3.8 seconds.
 Elapsed time:       0 days  0 hours 45 minutes  9.3 seconds.
 File lengths (MBytes):  RWF=     33 Int=      0 D2E=      0 Chk=      6 Scr=      1
 Normal termination of Gaussian 16 at Mon Jul 19 22:54:56 2021.
