 Entering Gaussian System, Link 0=/opt/gaussian/g16_legacy/g16
 Input=IsoP_pybabel_01_005_gaussian.com
 Output=IsoP_pybabel_01_005_gaussian.log
 Initial command:
 /opt/gaussian/g16_legacy/l1.exe "/scratch-local/jramos/2644943/Gau-10764.inp" -scrdir="/scratch-local/jramos/2644943/"
 Entering Link 1 = /opt/gaussian/g16_legacy/l1.exe PID=     10767.
  
 Copyright (c) 1988,1990,1992,1993,1995,1998,2003,2009,2016,
            Gaussian, Inc.  All Rights Reserved.
  
 This is part of the Gaussian(R) 16 program.  It is based on
 the Gaussian(R) 09 system (copyright 2009, Gaussian, Inc.),
 the Gaussian(R) 03 system (copyright 2003, Gaussian, Inc.),
 the Gaussian(R) 98 system (copyright 1998, Gaussian, Inc.),
 the Gaussian(R) 94 system (copyright 1995, Gaussian, Inc.),
 the Gaussian 92(TM) system (copyright 1992, Gaussian, Inc.),
 the Gaussian 90(TM) system (copyright 1990, Gaussian, Inc.),
 the Gaussian 88(TM) system (copyright 1988, Gaussian, Inc.),
 the Gaussian 86(TM) system (copyright 1986, Carnegie Mellon
 University), and the Gaussian 82(TM) system (copyright 1983,
 Carnegie Mellon University). Gaussian is a federally registered
 trademark of Gaussian, Inc.
  
 This software contains proprietary and confidential information,
 including trade secrets, belonging to Gaussian, Inc.
  
 This software is provided under written license and may be
 used, copied, transmitted, or stored only in accord with that
 written license.
  
 The following legend is applicable only to US Government
 contracts under FAR:
  
                    RESTRICTED RIGHTS LEGEND
  
 Use, reproduction and disclosure by the US Government is
 subject to restrictions as set forth in subparagraphs (a)
 and (c) of the Commercial Computer Software - Restricted
 Rights clause in FAR 52.227-19.
  
 Gaussian, Inc.
 340 Quinnipiac St., Bldg. 40, Wallingford CT 06492
  
  
 ---------------------------------------------------------------
 Warning -- This program may not be used in any manner that
 competes with the business of Gaussian, Inc. or will provide
 assistance to any competitor of Gaussian, Inc.  The licensee
 of this program is prohibited from giving any competitor of
 Gaussian, Inc. access to this program.  By using this program,
 the user acknowledges that Gaussian, Inc. is engaged in the
 business of creating and licensing software in the field of
 computational chemistry and represents and warrants to the
 licensee that it is not a competitor of Gaussian, Inc. and that
 it will not use this program in any manner prohibited above.
 ---------------------------------------------------------------
  

 Cite this work as:
 Gaussian 16, Revision A.03,
 M. J. Frisch, G. W. Trucks, H. B. Schlegel, G. E. Scuseria, 
 M. A. Robb, J. R. Cheeseman, G. Scalmani, V. Barone, 
 G. A. Petersson, H. Nakatsuji, X. Li, M. Caricato, A. V. Marenich, 
 J. Bloino, B. G. Janesko, R. Gomperts, B. Mennucci, H. P. Hratchian, 
 J. V. Ortiz, A. F. Izmaylov, J. L. Sonnenberg, D. Williams-Young, 
 F. Ding, F. Lipparini, F. Egidi, J. Goings, B. Peng, A. Petrone, 
 T. Henderson, D. Ranasinghe, V. G. Zakrzewski, J. Gao, N. Rega, 
 G. Zheng, W. Liang, M. Hada, M. Ehara, K. Toyota, R. Fukuda, 
 J. Hasegawa, M. Ishida, T. Nakajima, Y. Honda, O. Kitao, H. Nakai, 
 T. Vreven, K. Throssell, J. A. Montgomery, Jr., J. E. Peralta, 
 F. Ogliaro, M. J. Bearpark, J. J. Heyd, E. N. Brothers, K. N. Kudin, 
 V. N. Staroverov, T. A. Keith, R. Kobayashi, J. Normand, 
 K. Raghavachari, A. P. Rendell, J. C. Burant, S. S. Iyengar, 
 J. Tomasi, M. Cossi, J. M. Millam, M. Klene, C. Adamo, R. Cammi, 
 J. W. Ochterski, R. L. Martin, K. Morokuma, O. Farkas, 
 J. B. Foresman, and D. J. Fox, Gaussian, Inc., Wallingford CT, 2016.
 
 ******************************************
 Gaussian 16:  EM64L-G16RevA.03 25-Dec-2016
                19-Jul-2021 
 ******************************************
 %chk=IsoP_pybabel_01_005_gaussian.chk
 %nproc=4
 Will use up to    4 processors via shared memory.
 %mem=4000Mb
 -----------------------------
 #p opt=loose m062x/6-31g(d,p)
 -----------------------------
 1/7=-1,18=20,19=15,26=3,38=1/1,3;
 2/9=110,12=2,17=6,18=5,40=1/2;
 3/5=1,6=6,7=101,11=2,25=1,30=1,71=1,74=-55/1,2,3;
 4//1;
 5/5=2,38=5/2;
 6/7=2,8=2,9=2,10=2,28=1/1;
 7//1,2,3,16;
 1/7=-1,18=20,19=15,26=3/3(2);
 2/9=110/2;
 99//99;
 2/9=110/2;
 3/5=1,6=6,7=101,11=2,25=1,30=1,71=1,74=-55/1,2,3;
 4/5=5,16=3,69=1/1;
 5/5=2,38=5/2;
 7//1,2,3,16;
 1/7=-1,18=20,19=15,26=3/3(-5);
 2/9=110/2;
 6/7=2,8=2,9=2,10=2,19=2,28=1/1;
 99/9=1/99;
 Leave Link    1 at Mon Jul 19 20:20:49 2021, MaxMem=   524288000 cpu:               0.3 elap:               0.1
 (Enter /opt/gaussian/g16_legacy/l101.exe)
 -------------------------------------------------
 Conformer number 005. Energy MM = 25.430 kcal/mol
 -------------------------------------------------
 Symbolic Z-matrix:
 Charge =  0 Multiplicity = 1
 C                     2.1612    1.33     -8.9633 
 H                     1.8542    0.3127   -9.2452 
 H                     2.016     1.9468   -9.8605 
 C                     3.6327    1.3456   -8.5902 
 C                     4.2061    2.6973   -8.2619 
 H                     5.2558    2.7858   -8.5561 
 H                     3.6686    3.4879   -8.7958 
 H                     4.1205    2.8908   -7.1872 
 C                     4.3502    0.2052   -8.5739 
 H                     3.8559   -0.7287   -8.8401 
 C                     5.7895    0.0456   -8.1954 
 H                     6.2585    0.9746   -7.8635 
 H                     5.8739   -0.6749   -7.3761 
 H                     6.3566   -0.3386   -9.0481 
 C                    -2.4228    0.6149   -8.3394 
 H                    -2.7295    1.5517   -8.8155 
 H                    -2.6078   -0.1982   -9.0494 
 H                    -3.0614    0.4653   -7.462 
 C                    -0.9749    0.6276   -7.933 
 C                    -0.4806   -0.6404   -7.293 
 H                     0.3181   -0.4623   -6.568 
 H                    -1.2876   -1.1427   -6.7499 
 H                    -0.1083   -1.3262   -8.0616 
 C                    -0.1973    1.7029   -8.1664 
 H                    -0.6327    2.5718   -8.6584 
 C                     1.263     1.8366   -7.8291 
 H                     1.4652    2.897    -7.6316 
 H                     1.499     1.3144   -6.8926 
 
 ITRead=  0  0  0  0  0  0  0  0  0  0  0  0  0  0  0  0  0  0  0  0
 ITRead=  0  0  0  0  0  0  0  0
 MicOpt= -1 -1 -1 -1 -1 -1 -1 -1 -1 -1 -1 -1 -1 -1 -1 -1 -1 -1 -1 -1
 MicOpt= -1 -1 -1 -1 -1 -1 -1 -1
 NAtoms=     28 NQM=       28 NQMF=       0 NMMI=      0 NMMIF=      0
                NMic=       0 NMicF=      0.
                    Isotopes and Nuclear Properties:
 (Nuclear quadrupole moments (NQMom) in fm**2, nuclear magnetic moments (NMagM)
  in nuclear magnetons)

  Atom         1           2           3           4           5           6           7           8           9          10
 IAtWgt=          12           1           1          12          12           1           1           1          12           1
 AtmWgt=  12.0000000   1.0078250   1.0078250  12.0000000  12.0000000   1.0078250   1.0078250   1.0078250  12.0000000   1.0078250
 NucSpn=           0           1           1           0           0           1           1           1           0           1
 AtZEff=  -0.0000000  -0.0000000  -0.0000000  -0.0000000  -0.0000000  -0.0000000  -0.0000000  -0.0000000  -0.0000000  -0.0000000
 NQMom=    0.0000000   0.0000000   0.0000000   0.0000000   0.0000000   0.0000000   0.0000000   0.0000000   0.0000000   0.0000000
 NMagM=    0.0000000   2.7928460   2.7928460   0.0000000   0.0000000   2.7928460   2.7928460   2.7928460   0.0000000   2.7928460
 AtZNuc=   6.0000000   1.0000000   1.0000000   6.0000000   6.0000000   1.0000000   1.0000000   1.0000000   6.0000000   1.0000000

  Atom        11          12          13          14          15          16          17          18          19          20
 IAtWgt=          12           1           1           1          12           1           1           1          12          12
 AtmWgt=  12.0000000   1.0078250   1.0078250   1.0078250  12.0000000   1.0078250   1.0078250   1.0078250  12.0000000  12.0000000
 NucSpn=           0           1           1           1           0           1           1           1           0           0
 AtZEff=  -0.0000000  -0.0000000  -0.0000000  -0.0000000  -0.0000000  -0.0000000  -0.0000000  -0.0000000  -0.0000000  -0.0000000
 NQMom=    0.0000000   0.0000000   0.0000000   0.0000000   0.0000000   0.0000000   0.0000000   0.0000000   0.0000000   0.0000000
 NMagM=    0.0000000   2.7928460   2.7928460   2.7928460   0.0000000   2.7928460   2.7928460   2.7928460   0.0000000   0.0000000
 AtZNuc=   6.0000000   1.0000000   1.0000000   1.0000000   6.0000000   1.0000000   1.0000000   1.0000000   6.0000000   6.0000000

  Atom        21          22          23          24          25          26          27          28
 IAtWgt=           1           1           1          12           1          12           1           1
 AtmWgt=   1.0078250   1.0078250   1.0078250  12.0000000   1.0078250  12.0000000   1.0078250   1.0078250
 NucSpn=           1           1           1           0           1           0           1           1
 AtZEff=  -0.0000000  -0.0000000  -0.0000000  -0.0000000  -0.0000000  -0.0000000  -0.0000000  -0.0000000
 NQMom=    0.0000000   0.0000000   0.0000000   0.0000000   0.0000000   0.0000000   0.0000000   0.0000000
 NMagM=    2.7928460   2.7928460   2.7928460   0.0000000   2.7928460   0.0000000   2.7928460   2.7928460
 AtZNuc=   1.0000000   1.0000000   1.0000000   6.0000000   1.0000000   6.0000000   1.0000000   1.0000000
 Leave Link  101 at Mon Jul 19 20:20:50 2021, MaxMem=   524288000 cpu:               1.2 elap:               0.4
 (Enter /opt/gaussian/g16_legacy/l103.exe)

 GradGradGradGradGradGradGradGradGradGradGradGradGradGradGradGradGradGrad
 Berny optimization.
 Initialization pass.
                           ----------------------------
                           !    Initial Parameters    !
                           ! (Angstroms and Degrees)  !
 --------------------------                            --------------------------
 ! Name  Definition              Value          Derivative Info.                !
 --------------------------------------------------------------------------------
 ! R1    R(1,2)                  1.0994         estimate D2E/DX2                !
 ! R2    R(1,3)                  1.0984         estimate D2E/DX2                !
 ! R3    R(1,4)                  1.5181         estimate D2E/DX2                !
 ! R4    R(1,26)                 1.5329         estimate D2E/DX2                !
 ! R5    R(4,5)                  1.5045         estimate D2E/DX2                !
 ! R6    R(4,9)                  1.3474         estimate D2E/DX2                !
 ! R7    R(5,6)                  1.0937         estimate D2E/DX2                !
 ! R8    R(5,7)                  1.095          estimate D2E/DX2                !
 ! R9    R(5,8)                  1.0953         estimate D2E/DX2                !
 ! R10   R(9,10)                 1.0897         estimate D2E/DX2                !
 ! R11   R(9,11)                 1.4968         estimate D2E/DX2                !
 ! R12   R(11,12)                1.0923         estimate D2E/DX2                !
 ! R13   R(11,13)                1.0943         estimate D2E/DX2                !
 ! R14   R(11,14)                1.0938         estimate D2E/DX2                !
 ! R15   R(15,16)                1.0947         estimate D2E/DX2                !
 ! R16   R(15,17)                1.0952         estimate D2E/DX2                !
 ! R17   R(15,18)                1.0955         estimate D2E/DX2                !
 ! R18   R(15,19)                1.5039         estimate D2E/DX2                !
 ! R19   R(19,20)                1.5039         estimate D2E/DX2                !
 ! R20   R(19,24)                1.3474         estimate D2E/DX2                !
 ! R21   R(20,21)                1.0933         estimate D2E/DX2                !
 ! R22   R(20,22)                1.0948         estimate D2E/DX2                !
 ! R23   R(20,23)                1.0953         estimate D2E/DX2                !
 ! R24   R(24,25)                1.0893         estimate D2E/DX2                !
 ! R25   R(24,26)                1.5047         estimate D2E/DX2                !
 ! R26   R(26,27)                1.0974         estimate D2E/DX2                !
 ! R27   R(26,28)                1.0979         estimate D2E/DX2                !
 ! A1    A(2,1,3)              105.8582         estimate D2E/DX2                !
 ! A2    A(2,1,4)              110.0718         estimate D2E/DX2                !
 ! A3    A(2,1,26)             109.3848         estimate D2E/DX2                !
 ! A4    A(3,1,4)              108.8507         estimate D2E/DX2                !
 ! A5    A(3,1,26)             109.9579         estimate D2E/DX2                !
 ! A6    A(4,1,26)             112.5015         estimate D2E/DX2                !
 ! A7    A(1,4,5)              115.6111         estimate D2E/DX2                !
 ! A8    A(1,4,9)              120.6911         estimate D2E/DX2                !
 ! A9    A(5,4,9)              123.6962         estimate D2E/DX2                !
 ! A10   A(4,5,6)              112.3193         estimate D2E/DX2                !
 ! A11   A(4,5,7)              110.8054         estimate D2E/DX2                !
 ! A12   A(4,5,8)              110.0612         estimate D2E/DX2                !
 ! A13   A(6,5,7)              106.3517         estimate D2E/DX2                !
 ! A14   A(6,5,8)              108.9431         estimate D2E/DX2                !
 ! A15   A(7,5,8)              108.2093         estimate D2E/DX2                !
 ! A16   A(4,9,10)             118.7415         estimate D2E/DX2                !
 ! A17   A(4,9,11)             127.2542         estimate D2E/DX2                !
 ! A18   A(10,9,11)            113.9914         estimate D2E/DX2                !
 ! A19   A(9,11,12)            113.5173         estimate D2E/DX2                !
 ! A20   A(9,11,13)            109.4935         estimate D2E/DX2                !
 ! A21   A(9,11,14)            109.8093         estimate D2E/DX2                !
 ! A22   A(12,11,13)           107.4193         estimate D2E/DX2                !
 ! A23   A(12,11,14)           108.2407         estimate D2E/DX2                !
 ! A24   A(13,11,14)           108.2052         estimate D2E/DX2                !
 ! A25   A(16,15,17)           107.8224         estimate D2E/DX2                !
 ! A26   A(16,15,18)           107.571          estimate D2E/DX2                !
 ! A27   A(16,15,19)           112.3362         estimate D2E/DX2                !
 ! A28   A(17,15,18)           108.6255         estimate D2E/DX2                !
 ! A29   A(17,15,19)           110.1259         estimate D2E/DX2                !
 ! A30   A(18,15,19)           110.2403         estimate D2E/DX2                !
 ! A31   A(15,19,20)           115.1072         estimate D2E/DX2                !
 ! A32   A(15,19,24)           121.0349         estimate D2E/DX2                !
 ! A33   A(20,19,24)           123.8426         estimate D2E/DX2                !
 ! A34   A(19,20,21)           112.6418         estimate D2E/DX2                !
 ! A35   A(19,20,22)           110.835          estimate D2E/DX2                !
 ! A36   A(19,20,23)           109.9383         estimate D2E/DX2                !
 ! A37   A(21,20,22)           106.5164         estimate D2E/DX2                !
 ! A38   A(21,20,23)           108.6038         estimate D2E/DX2                !
 ! A39   A(22,20,23)           108.1435         estimate D2E/DX2                !
 ! A40   A(19,24,25)           118.9566         estimate D2E/DX2                !
 ! A41   A(19,24,26)           126.3116         estimate D2E/DX2                !
 ! A42   A(25,24,26)           114.7256         estimate D2E/DX2                !
 ! A43   A(1,26,24)            111.9273         estimate D2E/DX2                !
 ! A44   A(1,26,27)            110.1531         estimate D2E/DX2                !
 ! A45   A(1,26,28)            110.3639         estimate D2E/DX2                !
 ! A46   A(24,26,27)           107.7589         estimate D2E/DX2                !
 ! A47   A(24,26,28)           110.9501         estimate D2E/DX2                !
 ! A48   A(27,26,28)           105.4542         estimate D2E/DX2                !
 ! D1    D(2,1,4,5)            176.4656         estimate D2E/DX2                !
 ! D2    D(2,1,4,9)             -3.0795         estimate D2E/DX2                !
 ! D3    D(3,1,4,5)             60.8605         estimate D2E/DX2                !
 ! D4    D(3,1,4,9)           -118.6846         estimate D2E/DX2                !
 ! D5    D(26,1,4,5)           -61.2683         estimate D2E/DX2                !
 ! D6    D(26,1,4,9)           119.1867         estimate D2E/DX2                !
 ! D7    D(2,1,26,24)          -52.339          estimate D2E/DX2                !
 ! D8    D(2,1,26,27)         -172.2053         estimate D2E/DX2                !
 ! D9    D(2,1,26,28)           71.755          estimate D2E/DX2                !
 ! D10   D(3,1,26,24)           63.5074         estimate D2E/DX2                !
 ! D11   D(3,1,26,27)          -56.3589         estimate D2E/DX2                !
 ! D12   D(3,1,26,28)         -172.3985         estimate D2E/DX2                !
 ! D13   D(4,1,26,24)         -174.9925         estimate D2E/DX2                !
 ! D14   D(4,1,26,27)           65.1412         estimate D2E/DX2                !
 ! D15   D(4,1,26,28)          -50.8984         estimate D2E/DX2                !
 ! D16   D(1,4,5,6)           -147.1525         estimate D2E/DX2                !
 ! D17   D(1,4,5,7)            -28.3658         estimate D2E/DX2                !
 ! D18   D(1,4,5,8)             91.2801         estimate D2E/DX2                !
 ! D19   D(9,4,5,6)             32.3773         estimate D2E/DX2                !
 ! D20   D(9,4,5,7)            151.164          estimate D2E/DX2                !
 ! D21   D(9,4,5,8)            -89.1902         estimate D2E/DX2                !
 ! D22   D(1,4,9,10)             0.3969         estimate D2E/DX2                !
 ! D23   D(1,4,9,11)          -178.2082         estimate D2E/DX2                !
 ! D24   D(5,4,9,10)          -179.1099         estimate D2E/DX2                !
 ! D25   D(5,4,9,11)             2.285          estimate D2E/DX2                !
 ! D26   D(4,9,11,12)            2.6754         estimate D2E/DX2                !
 ! D27   D(4,9,11,13)          122.7004         estimate D2E/DX2                !
 ! D28   D(4,9,11,14)         -118.629          estimate D2E/DX2                !
 ! D29   D(10,9,11,12)        -175.9859         estimate D2E/DX2                !
 ! D30   D(10,9,11,13)         -55.9609         estimate D2E/DX2                !
 ! D31   D(10,9,11,14)          62.7097         estimate D2E/DX2                !
 ! D32   D(16,15,19,20)       -178.9878         estimate D2E/DX2                !
 ! D33   D(16,15,19,24)         -0.3589         estimate D2E/DX2                !
 ! D34   D(17,15,19,20)        -58.7905         estimate D2E/DX2                !
 ! D35   D(17,15,19,24)        119.8384         estimate D2E/DX2                !
 ! D36   D(18,15,19,20)         61.0549         estimate D2E/DX2                !
 ! D37   D(18,15,19,24)       -120.3162         estimate D2E/DX2                !
 ! D38   D(15,19,20,21)       -149.5659         estimate D2E/DX2                !
 ! D39   D(15,19,20,22)        -30.3356         estimate D2E/DX2                !
 ! D40   D(15,19,20,23)         89.1681         estimate D2E/DX2                !
 ! D41   D(24,19,20,21)         31.8486         estimate D2E/DX2                !
 ! D42   D(24,19,20,22)        151.0789         estimate D2E/DX2                !
 ! D43   D(24,19,20,23)        -89.4174         estimate D2E/DX2                !
 ! D44   D(15,19,24,25)         -0.0473         estimate D2E/DX2                !
 ! D45   D(15,19,24,26)       -179.0956         estimate D2E/DX2                !
 ! D46   D(20,19,24,25)        178.4578         estimate D2E/DX2                !
 ! D47   D(20,19,24,26)         -0.5905         estimate D2E/DX2                !
 ! D48   D(19,24,26,1)          88.5778         estimate D2E/DX2                !
 ! D49   D(19,24,26,27)       -150.1632         estimate D2E/DX2                !
 ! D50   D(19,24,26,28)        -35.1877         estimate D2E/DX2                !
 ! D51   D(25,24,26,1)         -90.5055         estimate D2E/DX2                !
 ! D52   D(25,24,26,27)         30.7535         estimate D2E/DX2                !
 ! D53   D(25,24,26,28)        145.729          estimate D2E/DX2                !
 --------------------------------------------------------------------------------
 Trust Radius=3.00D-01 FncErr=1.00D-07 GrdErr=1.00D-06 EigMax=2.50D+02 EigMin=1.00D-04
 Number of steps in this run=    138 maximum allowed number of steps=    168.
 GradGradGradGradGradGradGradGradGradGradGradGradGradGradGradGradGradGrad

 Leave Link  103 at Mon Jul 19 20:20:50 2021, MaxMem=   524288000 cpu:               0.4 elap:               0.2
 (Enter /opt/gaussian/g16_legacy/l202.exe)
                          Input orientation:                          
 ---------------------------------------------------------------------
 Center     Atomic      Atomic             Coordinates (Angstroms)
 Number     Number       Type             X           Y           Z
 ---------------------------------------------------------------------
      1          6           0        2.161200    1.330000   -8.963300
      2          1           0        1.854200    0.312700   -9.245200
      3          1           0        2.016000    1.946800   -9.860500
      4          6           0        3.632700    1.345600   -8.590200
      5          6           0        4.206100    2.697300   -8.261900
      6          1           0        5.255800    2.785800   -8.556100
      7          1           0        3.668600    3.487900   -8.795800
      8          1           0        4.120500    2.890800   -7.187200
      9          6           0        4.350200    0.205200   -8.573900
     10          1           0        3.855900   -0.728700   -8.840100
     11          6           0        5.789500    0.045600   -8.195400
     12          1           0        6.258500    0.974600   -7.863500
     13          1           0        5.873900   -0.674900   -7.376100
     14          1           0        6.356600   -0.338600   -9.048100
     15          6           0       -2.422800    0.614900   -8.339400
     16          1           0       -2.729500    1.551700   -8.815500
     17          1           0       -2.607800   -0.198200   -9.049400
     18          1           0       -3.061400    0.465300   -7.462000
     19          6           0       -0.974900    0.627600   -7.933000
     20          6           0       -0.480600   -0.640400   -7.293000
     21          1           0        0.318100   -0.462300   -6.568000
     22          1           0       -1.287600   -1.142700   -6.749900
     23          1           0       -0.108300   -1.326200   -8.061600
     24          6           0       -0.197300    1.702900   -8.166400
     25          1           0       -0.632700    2.571800   -8.658400
     26          6           0        1.263000    1.836600   -7.829100
     27          1           0        1.465200    2.897000   -7.631600
     28          1           0        1.499000    1.314400   -6.892600
 ---------------------------------------------------------------------
                    Distance matrix (angstroms):
                    1          2          3          4          5
     1  C    0.000000
     2  H    1.099371   0.000000
     3  H    1.098405   1.753584   0.000000
     4  C    1.518143   2.158465   2.142154   0.000000
     5  C    2.557946   3.490649   2.813416   1.504547   0.000000
     6  H    3.444084   4.261686   3.591891   2.170206   1.093735
     7  H    2.637583   3.684549   2.497932   2.152443   1.094990
     8  H    3.070747   4.002259   3.530806   2.143362   1.095331
     9  C    2.491692   2.586932   3.183866   1.347436   2.515685
    10  H    2.669350   2.292471   3.403638   2.101187   3.492053
    11  C    3.924782   4.081667   4.541632   2.549049   3.089189
    12  H    4.257198   4.663160   4.788736   2.749647   2.709015
    13  H    4.508100   4.541682   5.284784   3.252605   3.864962
    14  H    4.515839   4.553531   4.972309   3.235094   3.802558
    15  C    4.681204   4.382297   4.877566   6.104581   6.948720
    16  H    4.897953   4.767606   4.875233   6.369523   7.051342
    17  H    5.008610   4.495420   5.161244   6.445000   7.445355
    18  H    5.502468   5.231273   5.807550   6.845344   7.644490
    19  C    3.374908   3.134460   3.794869   4.709290   5.588792
    20  C    3.694792   3.189165   4.417994   4.748280   5.834738
    21  H    3.513804   3.182393   4.418957   4.283033   5.288564
    22  H    4.786189   4.267976   5.489500   5.812718   6.871134
    23  H    3.608198   2.817500   4.296652   4.627420   5.902772
    24  C    2.517266   2.702798   2.797885   3.869906   4.515294
    25  H    3.072606   3.410651   2.975110   4.438677   4.856640
    26  C    1.532911   2.162667   2.169272   2.536894   3.096766
    27  H    2.171020   3.071422   2.484805   2.832633   2.819520
    28  H    2.174063   2.581530   3.078254   2.726810   3.334034
                    6          7          8          9         10
     6  H    0.000000
     7  H    1.752029   0.000000
     8  H    1.781521   1.774355   0.000000
     9  C    2.734945   3.360050   3.031196   0.000000
    10  H    3.793690   4.220990   3.987840   1.089662   0.000000
    11  C    2.814895   4.087557   3.449231   1.496769   2.180364
    12  H    2.183013   3.727391   2.949618   2.176753   3.102816
    13  H    3.708220   4.920142   3.977978   2.128606   2.493695
    14  H    3.348985   4.683065   4.346506   2.132188   2.539477
    15  C    7.982522   6.750377   7.022967   6.789431   6.440344
    16  H    8.084263   6.684680   7.167081   7.210658   6.969098
    17  H    8.425189   7.283189   7.634116   6.985885   6.488810
    18  H    8.703884   7.497202   7.585397   7.499052   7.153589
    19  C    6.623270   5.521579   5.625068   5.380136   5.098922
    20  C    6.800041   6.042940   5.800921   5.068764   4.605057
    21  H    6.235670   5.638530   5.107341   4.552694   4.213008
    22  H    7.842930   7.084637   6.760762   6.076891   5.567398
    23  H    6.776920   6.162758   6.035761   4.741926   4.083865
    24  C    5.573225   4.304364   4.584031   4.805093   4.774409
    25  H    5.893275   4.399920   4.985890   5.516994   5.574392
    26  C    4.167969   3.073794   3.112664   3.570294   3.784972
    27  H    3.903295   2.561151   2.692238   4.056716   4.507951
    28  H    4.364149   3.612954   3.073124   3.490908   3.677226
                   11         12         13         14         15
    11  C    0.000000
    12  H    1.092318   0.000000
    13  H    1.094302   1.762477   0.000000
    14  H    1.093759   1.771269   1.772479   0.000000
    15  C    8.233268   8.701772   8.451435   8.859418   0.000000
    16  H    8.673305   9.056682   9.002672   9.283563   1.094683
    17  H    8.444134   9.021812   8.658315   8.965499   1.095197
    18  H    8.891145   9.342437   9.008164   9.584398   1.095455
    19  C    6.794460   7.242052   6.993762   7.478495   1.503907
    20  C    6.371740   6.953356   6.355137   7.065321   2.538281
    21  H    5.730847   6.247508   5.618286   6.529141   3.436677
    22  H    7.320305   7.916229   7.204030   8.022599   2.627612
    23  H    6.056714   6.772671   6.056469   6.613884   3.033472
    24  C    6.212025   6.503808   6.567951   6.920890   2.483249
    25  H    6.916698   7.118395   7.383847   7.581069   2.671269
    26  C    4.881707   5.069443   5.270032   5.671174   3.916386
    27  H    5.210367   5.169635   5.679823   6.033355   4.563497
    28  H    4.659993   4.869389   4.830200   5.565507   4.238283
                   16         17         18         19         20
    16  H    0.000000
    17  H    1.769653   0.000000
    18  H    1.767027   1.779276   0.000000
    19  C    2.170573   2.143515   2.145149   0.000000
    20  C    3.490109   2.793826   2.812768   1.503914   0.000000
    21  H    4.288976   3.845515   3.616725   2.173236   1.093282
    22  H    3.688573   2.814731   2.497822   2.152085   1.094766
    23  H    3.965017   2.914727   3.505680   2.141230   1.095297
    24  C    2.618440   3.194430   3.198578   1.347371   2.516772
    25  H    2.337061   3.424442   3.430350   2.103145   3.493663
    26  C    4.122403   4.540114   4.551446   2.545717   3.076211
    27  H    4.561465   5.308460   5.141210   3.345909   4.051418
    28  H    4.651244   4.879093   4.673589   2.770254   2.810761
                   21         22         23         24         25
    21  H    0.000000
    22  H    1.753369   0.000000
    23  H    1.777352   1.773408   0.000000
    24  C    2.740184   3.360456   3.032219   0.000000
    25  H    3.805201   4.227148   3.978136   1.089323   0.000000
    26  C    2.787140   4.067734   3.455116   1.504700   2.195891
    27  H    3.705669   4.967341   4.527275   2.115607   2.358232
    28  H    2.157905   3.717908   3.304957   2.156602   3.040271
                   26         27         28
    26  C    0.000000
    27  H    1.097424   0.000000
    28  H    1.097917   1.746965   0.000000
 Stoichiometry    C10H18
 Framework group  C1[X(C10H18)]
 Deg. of freedom    78
 Full point group                 C1      NOp   1
 Largest Abelian subgroup         C1      NOp   1
 Largest concise Abelian subgroup C1      NOp   1
                         Standard orientation:                         
 ---------------------------------------------------------------------
 Center     Atomic      Atomic             Coordinates (Angstroms)
 Number     Number       Type             X           Y           Z
 ---------------------------------------------------------------------
      1          6           0       -0.487379   -0.450452   -0.673461
      2          1           0       -0.124779    0.481200   -1.130804
      3          1           0       -0.441364   -1.210947   -1.464677
      4          6           0       -1.931120   -0.287289   -0.233293
      5          6           0       -2.580434   -1.519045    0.336646
      6          1           0       -3.649527   -1.567295    0.110884
      7          1           0       -2.134709   -2.425079   -0.086952
      8          1           0       -2.444864   -1.546689    1.423203
      9          6           0       -2.561666    0.895862   -0.368011
     10          1           0       -2.017712    1.732698   -0.805257
     11          6           0       -3.960308    1.229675    0.047549
     12          1           0       -4.474781    0.405982    0.547555
     13          1           0       -3.942931    2.074976    0.742286
     14          1           0       -4.548092    1.519179   -0.828240
     15          6           0        4.165567   -0.020723   -0.392202
     16          1           0        4.374366   -1.042747   -0.724168
     17          1           0        4.366231    0.652277   -1.232596
     18          1           0        4.864767    0.213174    0.418002
     19          6           0        2.747526    0.148634    0.079196
     20          6           0        2.385826    1.537724    0.527928
     21          1           0        1.621187    1.541871    1.309321
     22          1           0        3.258253    2.052229    0.943462
     23          1           0        2.018912    2.121484   -0.323114
     24          6           0        1.881328   -0.883235    0.060401
     25          1           0        2.222232   -1.851409   -0.304357
     26          6           0        0.438018   -0.842859    0.483896
     27          1           0        0.171566   -1.838772    0.860061
     28          1           0        0.297093   -0.161874    1.333496
 ---------------------------------------------------------------------
 Rotational constants (GHZ):           2.8087906           0.5009487           0.4497229
 Leave Link  202 at Mon Jul 19 20:20:50 2021, MaxMem=   524288000 cpu:               0.5 elap:               0.2
 (Enter /opt/gaussian/g16_legacy/l301.exe)
 Standard basis: 6-31G(d,p) (6D, 7F)
 Ernie: Thresh=  0.10000D-02 Tol=  0.10000D-05 Strict=F.
 There are   240 symmetry adapted cartesian basis functions of A   symmetry.
 There are   240 symmetry adapted basis functions of A   symmetry.
   240 basis functions,   406 primitive gaussians,   240 cartesian basis functions
    39 alpha electrons       39 beta electrons
       nuclear repulsion energy       512.4644535509 Hartrees.
 IExCor= 4336 DFT=T Ex+Corr=M062X ExCW=0 ScaHFX=  0.540000
 ScaDFX=  1.000000  1.000000  1.000000  1.000000 ScalE2=  1.000000  1.000000
 IRadAn=      5 IRanWt=     -1 IRanGd=            0 ICorTp=0 IEmpDi=  4
 NAtoms=   28 NActive=   28 NUniq=   28 SFac= 1.00D+00 NAtFMM=   60 NAOKFM=F Big=F
 Integral buffers will be    131072 words long.
 Raffenetti 2 integral format.
 Two-electron integral symmetry is turned on.
 Leave Link  301 at Mon Jul 19 20:20:51 2021, MaxMem=   524288000 cpu:               0.7 elap:               0.5
 (Enter /opt/gaussian/g16_legacy/l302.exe)
 NPDir=0 NMtPBC=     1 NCelOv=     1 NCel=       1 NClECP=     1 NCelD=      1
         NCelK=      1 NCelE2=     1 NClLst=     1 CellRange=     0.0.
 One-electron integrals computed using PRISM.
 One-electron integral symmetry used in STVInt
 NBasis=   240 RedAO= T EigKep=  2.26D-03  NBF=   240
 NBsUse=   240 1.00D-06 EigRej= -1.00D+00 NBFU=   240
 Precomputing XC quadrature grid using
 IXCGrd= 4 IRadAn=           5 IRanWt=          -1 IRanGd=           0 AccXCQ= 0.00D+00.
 Generated NRdTot=       0 NPtTot=           0 NUsed=           0 NTot=          32
 NSgBfM=   240   240   240   240   240 MxSgAt=    28 MxSgA2=    28.
 Leave Link  302 at Mon Jul 19 20:20:52 2021, MaxMem=   524288000 cpu:               3.7 elap:               1.3
 (Enter /opt/gaussian/g16_legacy/l303.exe)
 DipDrv:  MaxL=1.
 Leave Link  303 at Mon Jul 19 20:20:52 2021, MaxMem=   524288000 cpu:               0.2 elap:               0.3
 (Enter /opt/gaussian/g16_legacy/l401.exe)
 ExpMin= 1.61D-01 ExpMax= 3.05D+03 ExpMxC= 4.57D+02 IAcc=3 IRadAn=         5 AccDes= 0.00D+00
 Harris functional with IExCor= 1009 and IRadAn=       5 diagonalized for initial guess.
 HarFok:  IExCor= 1009 AccDes= 0.00D+00 IRadAn=         5 IDoV= 1 UseB2=F ITyADJ=14
 ICtDFT=  3500011 ScaDFX=  1.000000  1.000000  1.000000  1.000000
 FoFCou: FMM=F IPFlag=           0 FMFlag=      100000 FMFlg1=           0
         NFxFlg=           0 DoJE=T BraDBF=F KetDBF=T FulRan=T
         wScrn=  0.000000 ICntrl=       500 IOpCl=  0 I1Cent=   200000004 NGrid=           0
         NMat0=    1 NMatS0=      1 NMatT0=    0 NMatD0=    1 NMtDS0=    0 NMtDT0=    0
 Petite list used in FoFCou.
 Harris En= -391.654649449720    
 JPrj=0 DoOrth=F DoCkMO=F.
 Leave Link  401 at Mon Jul 19 20:20:58 2021, MaxMem=   524288000 cpu:              19.0 elap:               5.1
 (Enter /opt/gaussian/g16_legacy/l502.exe)
 Keep R1 ints in memory in canonical form, NReq=425198025.
 FoFCou: FMM=F IPFlag=           0 FMFlag=           0 FMFlg1=           0
         NFxFlg=           0 DoJE=F BraDBF=F KetDBF=F FulRan=T
         wScrn=  0.000000 ICntrl=       600 IOpCl=  0 I1Cent=           0 NGrid=           0
         NMat0=    1 NMatS0=  28920 NMatT0=    0 NMatD0=    1 NMtDS0=    0 NMtDT0=    0
 Symmetry not used in FoFCou.
 Two-electron integral symmetry not used.
 Closed shell SCF:
 Using DIIS extrapolation, IDIIS=  1040.
 NGot=   524288000 LenX=   105970886 LenY=   105912845
 Requested convergence on RMS density matrix=1.00D-08 within 128 cycles.
 Requested convergence on MAX density matrix=1.00D-06.
 Requested convergence on             energy=1.00D-06.
 No special actions if energy rises.
 Integral accuracy reduced to 1.0D-05 until final iterations.

 Cycle   1  Pass 0  IDiag  1:
 E= -391.296621891756    
 DIIS: error= 2.75D-02 at cycle   1 NSaved=   1.
 NSaved= 1 IEnMin= 1 EnMin= -391.296621891756     IErMin= 1 ErrMin= 2.75D-02
 ErrMax= 2.75D-02  0.00D+00 EMaxC= 1.00D-01 BMatC= 3.71D-01 BMatP= 3.71D-01
 IDIUse=3 WtCom= 7.25D-01 WtEn= 2.75D-01
 Coeff-Com:  0.100D+01
 Coeff-En:   0.100D+01
 Coeff:      0.100D+01
 Gap=     0.340 Goal=   None    Shift=    0.000
 GapD=    0.340 DampG=1.000 DampE=0.500 DampFc=0.5000 IDamp=-1.
 Damping current iteration by 5.00D-01
 RMSDP=4.38D-03 MaxDP=1.14D-01              OVMax= 1.41D-01

 Cycle   2  Pass 0  IDiag  1:
 E= -391.505810639203     Delta-E=       -0.209188747447 Rises=F Damp=T
 DIIS: error= 9.67D-03 at cycle   2 NSaved=   2.
 NSaved= 2 IEnMin= 2 EnMin= -391.505810639203     IErMin= 2 ErrMin= 9.67D-03
 ErrMax= 9.67D-03  0.00D+00 EMaxC= 1.00D-01 BMatC= 2.10D-02 BMatP= 3.71D-01
 IDIUse=3 WtCom= 9.03D-01 WtEn= 9.67D-02
 Coeff-Com: -0.152D+00 0.115D+01
 Coeff-En:   0.000D+00 0.100D+01
 Coeff:     -0.137D+00 0.114D+01
 Gap=     0.364 Goal=   None    Shift=    0.000
 RMSDP=8.26D-04 MaxDP=2.61D-02 DE=-2.09D-01 OVMax= 6.22D-02

 Cycle   3  Pass 0  IDiag  1:
 E= -391.686125768749     Delta-E=       -0.180315129546 Rises=F Damp=F
 DIIS: error= 1.14D-03 at cycle   3 NSaved=   3.
 NSaved= 3 IEnMin= 3 EnMin= -391.686125768749     IErMin= 3 ErrMin= 1.14D-03
 ErrMax= 1.14D-03  0.00D+00 EMaxC= 1.00D-01 BMatC= 5.97D-04 BMatP= 2.10D-02
 IDIUse=3 WtCom= 9.89D-01 WtEn= 1.14D-02
 Coeff-Com: -0.274D-01 0.124D+00 0.904D+00
 Coeff-En:   0.000D+00 0.000D+00 0.100D+01
 Coeff:     -0.271D-01 0.122D+00 0.905D+00
 Gap=     0.338 Goal=   None    Shift=    0.000
 RMSDP=1.66D-04 MaxDP=4.01D-03 DE=-1.80D-01 OVMax= 6.45D-03

 Cycle   4  Pass 0  IDiag  1:
 E= -391.686540509050     Delta-E=       -0.000414740301 Rises=F Damp=F
 DIIS: error= 6.33D-04 at cycle   4 NSaved=   4.
 NSaved= 4 IEnMin= 4 EnMin= -391.686540509050     IErMin= 4 ErrMin= 6.33D-04
 ErrMax= 6.33D-04  0.00D+00 EMaxC= 1.00D-01 BMatC= 1.73D-04 BMatP= 5.97D-04
 IDIUse=3 WtCom= 9.94D-01 WtEn= 6.33D-03
 Coeff-Com: -0.559D-02 0.218D-01 0.355D+00 0.629D+00
 Coeff-En:   0.000D+00 0.000D+00 0.938D-01 0.906D+00
 Coeff:     -0.556D-02 0.217D-01 0.353D+00 0.631D+00
 Gap=     0.338 Goal=   None    Shift=    0.000
 RMSDP=7.29D-05 MaxDP=2.78D-03 DE=-4.15D-04 OVMax= 5.50D-03

 Cycle   5  Pass 0  IDiag  1:
 E= -391.686689459382     Delta-E=       -0.000148950333 Rises=F Damp=F
 DIIS: error= 3.49D-04 at cycle   5 NSaved=   5.
 NSaved= 5 IEnMin= 5 EnMin= -391.686689459382     IErMin= 5 ErrMin= 3.49D-04
 ErrMax= 3.49D-04  0.00D+00 EMaxC= 1.00D-01 BMatC= 2.74D-05 BMatP= 1.73D-04
 IDIUse=3 WtCom= 9.97D-01 WtEn= 3.49D-03
 Coeff-Com:  0.357D-03-0.137D-02 0.926D-01 0.319D+00 0.590D+00
 Coeff-En:   0.000D+00 0.000D+00 0.000D+00 0.568D-01 0.943D+00
 Coeff:      0.356D-03-0.137D-02 0.923D-01 0.318D+00 0.591D+00
 Gap=     0.338 Goal=   None    Shift=    0.000
 RMSDP=2.34D-05 MaxDP=1.05D-03 DE=-1.49D-04 OVMax= 1.93D-03

 Cycle   6  Pass 0  IDiag  1:
 E= -391.686715912566     Delta-E=       -0.000026453184 Rises=F Damp=F
 DIIS: error= 5.79D-05 at cycle   6 NSaved=   6.
 NSaved= 6 IEnMin= 6 EnMin= -391.686715912566     IErMin= 6 ErrMin= 5.79D-05
 ErrMax= 5.79D-05  0.00D+00 EMaxC= 1.00D-01 BMatC= 1.36D-06 BMatP= 2.74D-05
 IDIUse=1 WtCom= 1.00D+00 WtEn= 0.00D+00
 Coeff-Com:  0.810D-03-0.278D-02 0.637D-02 0.765D-01 0.233D+00 0.687D+00
 Coeff:      0.810D-03-0.278D-02 0.637D-02 0.765D-01 0.233D+00 0.687D+00
 Gap=     0.338 Goal=   None    Shift=    0.000
 RMSDP=5.93D-06 MaxDP=2.02D-04 DE=-2.65D-05 OVMax= 4.55D-04

 Initial convergence to 1.0D-05 achieved.  Increase integral accuracy.
 Cycle   7  Pass 1  IDiag  1:
 E= -391.686683823337     Delta-E=        0.000032089229 Rises=F Damp=F
 DIIS: error= 1.50D-05 at cycle   1 NSaved=   1.
 NSaved= 1 IEnMin= 1 EnMin= -391.686683823337     IErMin= 1 ErrMin= 1.50D-05
 ErrMax= 1.50D-05  0.00D+00 EMaxC= 1.00D-01 BMatC= 1.84D-07 BMatP= 1.84D-07
 IDIUse=1 WtCom= 1.00D+00 WtEn= 0.00D+00
 Coeff-Com:  0.100D+01
 Coeff:      0.100D+01
 Gap=     0.338 Goal=   None    Shift=    0.000
 RMSDP=5.93D-06 MaxDP=2.02D-04 DE= 3.21D-05 OVMax= 2.24D-04

 Cycle   8  Pass 1  IDiag  1:
 E= -391.686683878358     Delta-E=       -0.000000055021 Rises=F Damp=F
 DIIS: error= 1.66D-05 at cycle   2 NSaved=   2.
 NSaved= 2 IEnMin= 2 EnMin= -391.686683878358     IErMin= 1 ErrMin= 1.50D-05
 ErrMax= 1.66D-05  0.00D+00 EMaxC= 1.00D-01 BMatC= 1.44D-07 BMatP= 1.84D-07
 IDIUse=1 WtCom= 1.00D+00 WtEn= 0.00D+00
 Coeff-Com:  0.464D+00 0.536D+00
 Coeff:      0.464D+00 0.536D+00
 Gap=     0.338 Goal=   None    Shift=    0.000
 RMSDP=1.59D-06 MaxDP=6.72D-05 DE=-5.50D-08 OVMax= 1.44D-04

 Cycle   9  Pass 1  IDiag  1:
 E= -391.686684009455     Delta-E=       -0.000000131097 Rises=F Damp=F
 DIIS: error= 5.33D-06 at cycle   3 NSaved=   3.
 NSaved= 3 IEnMin= 3 EnMin= -391.686684009455     IErMin= 3 ErrMin= 5.33D-06
 ErrMax= 5.33D-06  0.00D+00 EMaxC= 1.00D-01 BMatC= 9.28D-09 BMatP= 1.44D-07
 IDIUse=1 WtCom= 1.00D+00 WtEn= 0.00D+00
 Coeff-Com:  0.367D-01 0.197D+00 0.766D+00
 Coeff:      0.367D-01 0.197D+00 0.766D+00
 Gap=     0.338 Goal=   None    Shift=    0.000
 RMSDP=5.16D-07 MaxDP=1.78D-05 DE=-1.31D-07 OVMax= 4.63D-05

 Cycle  10  Pass 1  IDiag  1:
 E= -391.686684017416     Delta-E=       -0.000000007961 Rises=F Damp=F
 DIIS: error= 1.69D-06 at cycle   4 NSaved=   4.
 NSaved= 4 IEnMin= 4 EnMin= -391.686684017416     IErMin= 4 ErrMin= 1.69D-06
 ErrMax= 1.69D-06  0.00D+00 EMaxC= 1.00D-01 BMatC= 1.80D-09 BMatP= 9.28D-09
 IDIUse=1 WtCom= 1.00D+00 WtEn= 0.00D+00
 Coeff-Com: -0.277D-01 0.459D-01 0.390D+00 0.592D+00
 Coeff:     -0.277D-01 0.459D-01 0.390D+00 0.592D+00
 Gap=     0.338 Goal=   None    Shift=    0.000
 RMSDP=1.88D-07 MaxDP=6.17D-06 DE=-7.96D-09 OVMax= 1.37D-05

 Cycle  11  Pass 1  IDiag  1:
 E= -391.686684019301     Delta-E=       -0.000000001885 Rises=F Damp=F
 DIIS: error= 1.95D-07 at cycle   5 NSaved=   5.
 NSaved= 5 IEnMin= 5 EnMin= -391.686684019301     IErMin= 5 ErrMin= 1.95D-07
 ErrMax= 1.95D-07  0.00D+00 EMaxC= 1.00D-01 BMatC= 1.84D-11 BMatP= 1.80D-09
 IDIUse=1 WtCom= 1.00D+00 WtEn= 0.00D+00
 Coeff-Com: -0.608D-02-0.201D-02 0.240D-01 0.100D+00 0.884D+00
 Coeff:     -0.608D-02-0.201D-02 0.240D-01 0.100D+00 0.884D+00
 Gap=     0.338 Goal=   None    Shift=    0.000
 RMSDP=2.99D-08 MaxDP=7.53D-07 DE=-1.89D-09 OVMax= 1.49D-06

 Cycle  12  Pass 1  IDiag  1:
 E= -391.686684019310     Delta-E=       -0.000000000009 Rises=F Damp=F
 DIIS: error= 5.96D-08 at cycle   6 NSaved=   6.
 NSaved= 6 IEnMin= 6 EnMin= -391.686684019310     IErMin= 6 ErrMin= 5.96D-08
 ErrMax= 5.96D-08  0.00D+00 EMaxC= 1.00D-01 BMatC= 2.17D-12 BMatP= 1.84D-11
 IDIUse=1 WtCom= 1.00D+00 WtEn= 0.00D+00
 Coeff-Com:  0.640D-03-0.453D-02-0.270D-01-0.198D-01 0.256D+00 0.794D+00
 Coeff:      0.640D-03-0.453D-02-0.270D-01-0.198D-01 0.256D+00 0.794D+00
 Gap=     0.338 Goal=   None    Shift=    0.000
 RMSDP=9.78D-09 MaxDP=2.46D-07 DE=-9.32D-12 OVMax= 4.78D-07

 SCF Done:  E(RM062X) =  -391.686684019     A.U. after   12 cycles
            NFock= 12  Conv=0.98D-08     -V/T= 2.0093
 KE= 3.880905031106D+02 PE=-1.930027441356D+03 EE= 6.377858006751D+02
 Leave Link  502 at Mon Jul 19 20:22:32 2021, MaxMem=   524288000 cpu:             351.9 elap:              94.7
 (Enter /opt/gaussian/g16_legacy/l601.exe)
 Copying SCF densities to generalized density rwf, IOpCl= 0 IROHF=0.

 **********************************************************************

            Population analysis using the SCF density.

 **********************************************************************

 Orbital symmetries:
       Occupied  (A) (A) (A) (A) (A) (A) (A) (A) (A) (A) (A) (A)
                 (A) (A) (A) (A) (A) (A) (A) (A) (A) (A) (A) (A)
                 (A) (A) (A) (A) (A) (A) (A) (A) (A) (A) (A) (A)
                 (A) (A) (A)
       Virtual   (A) (A) (A) (A) (A) (A) (A) (A) (A) (A) (A) (A)
                 (A) (A) (A) (A) (A) (A) (A) (A) (A) (A) (A) (A)
                 (A) (A) (A) (A) (A) (A) (A) (A) (A) (A) (A) (A)
                 (A) (A) (A) (A) (A) (A) (A) (A) (A) (A) (A) (A)
                 (A) (A) (A) (A) (A) (A) (A) (A) (A) (A) (A) (A)
                 (A) (A) (A) (A) (A) (A) (A) (A) (A) (A) (A) (A)
                 (A) (A) (A) (A) (A) (A) (A) (A) (A) (A) (A) (A)
                 (A) (A) (A) (A) (A) (A) (A) (A) (A) (A) (A) (A)
                 (A) (A) (A) (A) (A) (A) (A) (A) (A) (A) (A) (A)
                 (A) (A) (A) (A) (A) (A) (A) (A) (A) (A) (A) (A)
                 (A) (A) (A) (A) (A) (A) (A) (A) (A) (A) (A) (A)
                 (A) (A) (A) (A) (A) (A) (A) (A) (A) (A) (A) (A)
                 (A) (A) (A) (A) (A) (A) (A) (A) (A) (A) (A) (A)
                 (A) (A) (A) (A) (A) (A) (A) (A) (A) (A) (A) (A)
                 (A) (A) (A) (A) (A) (A) (A) (A) (A) (A) (A) (A)
                 (A) (A) (A) (A) (A) (A) (A) (A) (A) (A) (A) (A)
                 (A) (A) (A) (A) (A) (A) (A) (A) (A)
 The electronic state is 1-A.
 Alpha  occ. eigenvalues --  -10.54489 -10.54112 -10.53730 -10.53691 -10.53449
 Alpha  occ. eigenvalues --  -10.53389 -10.53291 -10.53205 -10.53147 -10.52940
 Alpha  occ. eigenvalues --   -0.91910  -0.89892  -0.84828  -0.80855  -0.77787
 Alpha  occ. eigenvalues --   -0.76473  -0.72303  -0.67440  -0.58551  -0.57934
 Alpha  occ. eigenvalues --   -0.53920  -0.52687  -0.49759  -0.49545  -0.48732
 Alpha  occ. eigenvalues --   -0.48066  -0.46408  -0.45530  -0.44948  -0.43695
 Alpha  occ. eigenvalues --   -0.42689  -0.42512  -0.41790  -0.40379  -0.39222
 Alpha  occ. eigenvalues --   -0.37889  -0.36100  -0.28516  -0.26936
 Alpha virt. eigenvalues --    0.06872   0.07904   0.12770   0.14704   0.16036
 Alpha virt. eigenvalues --    0.16634   0.17258   0.18945   0.19267   0.20835
 Alpha virt. eigenvalues --    0.21149   0.22214   0.22328   0.22710   0.22817
 Alpha virt. eigenvalues --    0.23936   0.24961   0.26017   0.26783   0.27887
 Alpha virt. eigenvalues --    0.28475   0.29001   0.31099   0.31661   0.32309
 Alpha virt. eigenvalues --    0.38734   0.39960   0.47725   0.48152   0.53392
 Alpha virt. eigenvalues --    0.54560   0.56785   0.57589   0.58970   0.59913
 Alpha virt. eigenvalues --    0.60465   0.61607   0.62453   0.64365   0.66203
 Alpha virt. eigenvalues --    0.67442   0.68601   0.69898   0.72099   0.73611
 Alpha virt. eigenvalues --    0.74582   0.74844   0.76997   0.79166   0.80037
 Alpha virt. eigenvalues --    0.80675   0.81553   0.83452   0.84276   0.85473
 Alpha virt. eigenvalues --    0.87605   0.88696   0.90183   0.92339   0.93111
 Alpha virt. eigenvalues --    0.93615   0.94216   0.94562   0.95305   0.96058
 Alpha virt. eigenvalues --    0.96522   0.96967   0.97020   0.98572   0.99981
 Alpha virt. eigenvalues --    1.01321   1.03020   1.03951   1.04708   1.06741
 Alpha virt. eigenvalues --    1.07809   1.19886   1.21524   1.23565   1.25160
 Alpha virt. eigenvalues --    1.27179   1.31934   1.34456   1.35678   1.37576
 Alpha virt. eigenvalues --    1.40985   1.43736   1.45916   1.47840   1.49626
 Alpha virt. eigenvalues --    1.51161   1.58235   1.68006   1.69381   1.72483
 Alpha virt. eigenvalues --    1.75852   1.77368   1.78972   1.81139   1.83059
 Alpha virt. eigenvalues --    1.83393   1.84381   1.87294   1.88688   1.88759
 Alpha virt. eigenvalues --    1.89999   1.93090   1.95308   1.99238   2.01741
 Alpha virt. eigenvalues --    2.02798   2.04163   2.05856   2.09670   2.10023
 Alpha virt. eigenvalues --    2.10210   2.10846   2.12303   2.13773   2.14018
 Alpha virt. eigenvalues --    2.14510   2.15553   2.17194   2.17641   2.18487
 Alpha virt. eigenvalues --    2.19808   2.21992   2.22848   2.23185   2.27253
 Alpha virt. eigenvalues --    2.28788   2.30729   2.34040   2.35107   2.35312
 Alpha virt. eigenvalues --    2.37192   2.40006   2.41537   2.42930   2.44986
 Alpha virt. eigenvalues --    2.47381   2.47871   2.49428   2.52988   2.56097
 Alpha virt. eigenvalues --    2.57329   2.58947   2.59655   2.61162   2.64597
 Alpha virt. eigenvalues --    2.65238   2.69657   2.70695   2.71083   2.73286
 Alpha virt. eigenvalues --    2.74347   2.75646   2.77529   2.79524   2.81328
 Alpha virt. eigenvalues --    2.85733   2.86979   2.87536   2.87946   2.89258
 Alpha virt. eigenvalues --    2.89601   2.91204   2.92181   2.93960   3.02914
 Alpha virt. eigenvalues --    3.03864   3.08055   3.10288   3.17757   3.18413
 Alpha virt. eigenvalues --    3.22510   3.24585   3.26934   3.33768   3.39992
 Alpha virt. eigenvalues --    3.40802   3.41410   3.42804   3.43144   3.44331
 Alpha virt. eigenvalues --    3.44521   3.46877   3.47959   3.51416   3.52616
 Alpha virt. eigenvalues --    3.56563   4.18921   4.22051   4.34693   4.44220
 Alpha virt. eigenvalues --    4.48352   4.51105   4.52601   4.63581   4.69622
 Alpha virt. eigenvalues --    4.76089
          Condensed to atoms (all electrons):
               1          2          3          4          5          6
     1  C    5.003961   0.388146   0.378504   0.369830  -0.069081   0.003846
     2  H    0.388146   0.606326  -0.032589  -0.040094   0.005440  -0.000134
     3  H    0.378504  -0.032589   0.616164  -0.033980  -0.004275  -0.000002
     4  C    0.369830  -0.040094  -0.033980   4.767670   0.360939  -0.027598
     5  C   -0.069081   0.005440  -0.004275   0.360939   5.020230   0.385698
     6  H    0.003846  -0.000134  -0.000002  -0.027598   0.385698   0.568134
     7  H   -0.004087   0.000123   0.004586  -0.035974   0.385152  -0.028623
     8  H   -0.000695  -0.000170  -0.000131  -0.032162   0.382999  -0.027273
     9  C   -0.030876  -0.007081   0.000099   0.712734  -0.059845  -0.007205
    10  H   -0.013277   0.006469   0.000351  -0.032433   0.006094   0.000005
    11  C    0.005438   0.000175  -0.000214  -0.042700  -0.013156   0.000317
    12  H    0.000110   0.000006   0.000001  -0.008453   0.003096   0.002271
    13  H   -0.000110  -0.000010  -0.000004   0.000288   0.000263  -0.000188
    14  H   -0.000168  -0.000007   0.000023  -0.000266   0.000339   0.000333
    15  C   -0.000082  -0.000140   0.000006   0.000003  -0.000000  -0.000000
    16  H   -0.000002  -0.000002   0.000001   0.000000  -0.000000  -0.000000
    17  H    0.000024  -0.000001  -0.000003  -0.000000   0.000000  -0.000000
    18  H   -0.000006   0.000003   0.000000   0.000000  -0.000000   0.000000
    19  C   -0.006560   0.002081   0.000260   0.000193  -0.000005   0.000000
    20  C    0.000373   0.000978  -0.000019  -0.000058   0.000002  -0.000000
    21  H   -0.000773  -0.000000   0.000019   0.000079  -0.000001   0.000000
    22  H   -0.000004   0.000014  -0.000000   0.000001   0.000000   0.000000
    23  H    0.000537   0.000471  -0.000015  -0.000059   0.000000  -0.000000
    24  C   -0.049856  -0.002053  -0.001750   0.005308  -0.000052  -0.000000
    25  H    0.000801  -0.000012   0.001396  -0.000108   0.000005  -0.000000
    26  C    0.347022  -0.041246  -0.044437  -0.054981  -0.001123   0.000121
    27  H   -0.037687   0.005396  -0.006084  -0.006159   0.004521   0.000018
    28  H   -0.042774  -0.003528   0.005801   0.002044  -0.001030  -0.000023
               7          8          9         10         11         12
     1  C   -0.004087  -0.000695  -0.030876  -0.013277   0.005438   0.000110
     2  H    0.000123  -0.000170  -0.007081   0.006469   0.000175   0.000006
     3  H    0.004586  -0.000131   0.000099   0.000351  -0.000214   0.000001
     4  C   -0.035974  -0.032162   0.712734  -0.032433  -0.042700  -0.008453
     5  C    0.385152   0.382999  -0.059845   0.006094  -0.013156   0.003096
     6  H   -0.028623  -0.027273  -0.007205   0.000005   0.000317   0.002271
     7  H    0.585122  -0.031014   0.003537  -0.000152   0.000267  -0.000091
     8  H   -0.031014   0.570991  -0.003805  -0.000154   0.000803  -0.000033
     9  C    0.003537  -0.003805   4.906271   0.378801   0.359588  -0.033805
    10  H   -0.000152  -0.000154   0.378801   0.612174  -0.055895   0.004497
    11  C    0.000267   0.000803   0.359588  -0.055895   4.977984   0.390247
    12  H   -0.000091  -0.000033  -0.033805   0.004497   0.390247   0.579352
    13  H   -0.000014   0.000167  -0.034302  -0.002310   0.386631  -0.028898
    14  H    0.000014  -0.000074  -0.035523  -0.001056   0.384996  -0.028559
    15  C   -0.000000   0.000000   0.000000  -0.000000   0.000000   0.000000
    16  H   -0.000000   0.000000  -0.000000  -0.000000   0.000000   0.000000
    17  H    0.000000  -0.000000   0.000000   0.000000  -0.000000  -0.000000
    18  H   -0.000000   0.000000  -0.000000  -0.000000   0.000000  -0.000000
    19  C   -0.000001  -0.000001  -0.000003  -0.000010   0.000000  -0.000000
    20  C   -0.000000   0.000000  -0.000013   0.000008  -0.000000  -0.000000
    21  H   -0.000000  -0.000001   0.000024   0.000004   0.000000   0.000000
    22  H    0.000000   0.000000   0.000000  -0.000000   0.000000   0.000000
    23  H    0.000000  -0.000000  -0.000002   0.000044  -0.000000   0.000000
    24  C   -0.000072  -0.000002  -0.000037  -0.000022   0.000002   0.000000
    25  H    0.000005   0.000003  -0.000001   0.000000  -0.000000  -0.000000
    26  C   -0.002783   0.002260  -0.003897   0.000229  -0.000099  -0.000002
    27  H    0.001289  -0.000687   0.000036  -0.000008   0.000009  -0.000001
    28  H    0.000272   0.000287   0.001850   0.000094  -0.000082   0.000001
              13         14         15         16         17         18
     1  C   -0.000110  -0.000168  -0.000082  -0.000002   0.000024  -0.000006
     2  H   -0.000010  -0.000007  -0.000140  -0.000002  -0.000001   0.000003
     3  H   -0.000004   0.000023   0.000006   0.000001  -0.000003   0.000000
     4  C    0.000288  -0.000266   0.000003   0.000000  -0.000000   0.000000
     5  C    0.000263   0.000339  -0.000000  -0.000000   0.000000  -0.000000
     6  H   -0.000188   0.000333  -0.000000  -0.000000  -0.000000   0.000000
     7  H   -0.000014   0.000014  -0.000000  -0.000000   0.000000  -0.000000
     8  H    0.000167  -0.000074   0.000000   0.000000  -0.000000   0.000000
     9  C   -0.034302  -0.035523   0.000000  -0.000000   0.000000  -0.000000
    10  H   -0.002310  -0.001056  -0.000000  -0.000000   0.000000  -0.000000
    11  C    0.386631   0.384996   0.000000   0.000000  -0.000000   0.000000
    12  H   -0.028898  -0.028559   0.000000   0.000000  -0.000000  -0.000000
    13  H    0.578061  -0.031786  -0.000000  -0.000000   0.000000  -0.000000
    14  H   -0.031786   0.579172   0.000000  -0.000000  -0.000000   0.000000
    15  C   -0.000000   0.000000   4.997208   0.385981   0.383770   0.379115
    16  H   -0.000000  -0.000000   0.385981   0.574065  -0.027523  -0.027605
    17  H    0.000000  -0.000000   0.383770  -0.027523   0.589947  -0.034000
    18  H   -0.000000   0.000000   0.379115  -0.027605  -0.034000   0.588547
    19  C   -0.000000   0.000000   0.372795  -0.034238  -0.039931  -0.032947
    20  C    0.000000  -0.000000  -0.074981   0.004915   0.000436  -0.003598
    21  H   -0.000000   0.000000   0.004348  -0.000168  -0.000041   0.000028
    22  H   -0.000000   0.000000  -0.005741   0.000125  -0.000808   0.004551
    23  H    0.000000  -0.000000   0.000730  -0.000146   0.001845  -0.000298
    24  C   -0.000000   0.000000  -0.039992  -0.005231  -0.001093  -0.000680
    25  H    0.000000  -0.000000  -0.013319   0.006038   0.000202   0.000283
    26  C    0.000019  -0.000005   0.005941   0.000107  -0.000115  -0.000220
    27  H   -0.000000   0.000000  -0.000176  -0.000011  -0.000001   0.000009
    28  H   -0.000005   0.000002   0.000062   0.000009  -0.000012   0.000020
              19         20         21         22         23         24
     1  C   -0.006560   0.000373  -0.000773  -0.000004   0.000537  -0.049856
     2  H    0.002081   0.000978  -0.000000   0.000014   0.000471  -0.002053
     3  H    0.000260  -0.000019   0.000019  -0.000000  -0.000015  -0.001750
     4  C    0.000193  -0.000058   0.000079   0.000001  -0.000059   0.005308
     5  C   -0.000005   0.000002  -0.000001   0.000000   0.000000  -0.000052
     6  H    0.000000  -0.000000   0.000000   0.000000  -0.000000  -0.000000
     7  H   -0.000001  -0.000000  -0.000000   0.000000   0.000000  -0.000072
     8  H   -0.000001   0.000000  -0.000001   0.000000  -0.000000  -0.000002
     9  C   -0.000003  -0.000013   0.000024   0.000000  -0.000002  -0.000037
    10  H   -0.000010   0.000008   0.000004  -0.000000   0.000044  -0.000022
    11  C    0.000000  -0.000000   0.000000   0.000000  -0.000000   0.000002
    12  H   -0.000000  -0.000000   0.000000   0.000000   0.000000   0.000000
    13  H   -0.000000   0.000000  -0.000000  -0.000000   0.000000  -0.000000
    14  H    0.000000  -0.000000   0.000000   0.000000  -0.000000   0.000000
    15  C    0.372795  -0.074981   0.004348  -0.005741   0.000730  -0.039992
    16  H   -0.034238   0.004915  -0.000168   0.000125  -0.000146  -0.005231
    17  H   -0.039931   0.000436  -0.000041  -0.000808   0.001845  -0.001093
    18  H   -0.032947  -0.003598   0.000028   0.004551  -0.000298  -0.000680
    19  C    4.740823   0.371348  -0.027683  -0.036043  -0.032816   0.714934
    20  C    0.371348   5.016722   0.383076   0.386250   0.383232  -0.057836
    21  H   -0.027683   0.383076   0.565814  -0.028601  -0.026527  -0.007841
    22  H   -0.036043   0.386250  -0.028601   0.584763  -0.030871   0.003961
    23  H   -0.032816   0.383232  -0.026527  -0.030871   0.569351  -0.005066
    24  C    0.714934  -0.057836  -0.007841   0.003961  -0.005066   4.914994
    25  H   -0.033022   0.006093  -0.000002  -0.000145  -0.000157   0.377877
    26  C   -0.043546  -0.013467   0.001144   0.000053   0.001185   0.362678
    27  H    0.003402   0.000335   0.000026   0.000002  -0.000023  -0.028389
    28  H   -0.007822   0.000760   0.004987   0.000026  -0.000588  -0.037653
              25         26         27         28
     1  C    0.000801   0.347022  -0.037687  -0.042774
     2  H   -0.000012  -0.041246   0.005396  -0.003528
     3  H    0.001396  -0.044437  -0.006084   0.005801
     4  C   -0.000108  -0.054981  -0.006159   0.002044
     5  C    0.000005  -0.001123   0.004521  -0.001030
     6  H   -0.000000   0.000121   0.000018  -0.000023
     7  H    0.000005  -0.002783   0.001289   0.000272
     8  H    0.000003   0.002260  -0.000687   0.000287
     9  C   -0.000001  -0.003897   0.000036   0.001850
    10  H    0.000000   0.000229  -0.000008   0.000094
    11  C   -0.000000  -0.000099   0.000009  -0.000082
    12  H   -0.000000  -0.000002  -0.000001   0.000001
    13  H    0.000000   0.000019  -0.000000  -0.000005
    14  H   -0.000000  -0.000005   0.000000   0.000002
    15  C   -0.013319   0.005941  -0.000176   0.000062
    16  H    0.006038   0.000107  -0.000011   0.000009
    17  H    0.000202  -0.000115  -0.000001  -0.000012
    18  H    0.000283  -0.000220   0.000009   0.000020
    19  C   -0.033022  -0.043546   0.003402  -0.007822
    20  C    0.006093  -0.013467   0.000335   0.000760
    21  H   -0.000002   0.001144   0.000026   0.004987
    22  H   -0.000145   0.000053   0.000002   0.000026
    23  H   -0.000157   0.001185  -0.000023  -0.000588
    24  C    0.377877   0.362678  -0.028389  -0.037653
    25  H    0.611501  -0.051858  -0.006571   0.004610
    26  C   -0.051858   5.021956   0.381150   0.387424
    27  H   -0.006571   0.381150   0.610565  -0.035034
    28  H    0.004610   0.387424  -0.035034   0.602398
 Mulliken charges:
               1
     1  C   -0.242554
     2  H    0.111440
     3  H    0.116290
     4  C    0.095938
     5  C   -0.406209
     6  H    0.130304
     7  H    0.122443
     8  H    0.138691
     9  C   -0.146545
    10  H    0.096548
    11  C   -0.394309
    12  H    0.120262
    13  H    0.132198
    14  H    0.132566
    15  C   -0.395529
    16  H    0.123685
    17  H    0.127303
    18  H    0.126798
    19  C    0.088791
    20  C   -0.404554
    21  H    0.132090
    22  H    0.122467
    23  H    0.139169
    24  C   -0.142131
    25  H    0.096380
    26  C   -0.253511
    27  H    0.114074
    28  H    0.117905
 Sum of Mulliken charges =  -0.00000
 Mulliken charges with hydrogens summed into heavy atoms:
               1
     1  C   -0.014825
     4  C    0.095938
     5  C   -0.014771
     9  C   -0.049996
    11  C   -0.009283
    15  C   -0.017743
    19  C    0.088791
    20  C   -0.010828
    24  C   -0.045751
    26  C   -0.021532
 Electronic spatial extent (au):  <R**2>=           2606.0623
 Charge=             -0.0000 electrons
 Dipole moment (field-independent basis, Debye):
    X=              0.0132    Y=              0.1277    Z=              0.1148  Tot=              0.1722
 Quadrupole moment (field-independent basis, Debye-Ang):
   XX=            -62.6201   YY=            -62.3819   ZZ=            -65.9555
   XY=              1.0816   XZ=             -1.1075   YZ=              0.1228
 Traceless Quadrupole moment (field-independent basis, Debye-Ang):
   XX=              1.0324   YY=              1.2706   ZZ=             -2.3030
   XY=              1.0816   XZ=             -1.1075   YZ=              0.1228
 Octapole moment (field-independent basis, Debye-Ang**2):
  XXX=             -0.0674  YYY=             -0.9497  ZZZ=              1.8395  XYY=             -0.2995
  XXY=              3.7533  XXZ=              0.8413  XZZ=              0.0603  YZZ=              1.7108
  YYZ=             -2.1912  XYZ=              2.5783
 Hexadecapole moment (field-independent basis, Debye-Ang**3):
 XXXX=          -2851.4095 YYYY=           -523.1853 ZZZZ=           -182.7964 XXXY=             10.3711
 XXXZ=              0.8833 YYYX=             -8.1916 YYYZ=              2.1930 ZZZX=             -4.8721
 ZZZY=             -0.2598 XXYY=           -559.6562 XXZZ=           -519.4290 YYZZ=           -115.6503
 XXYZ=              3.0710 YYXZ=             -1.7195 ZZXY=              2.9456
 N-N= 5.124644535509D+02 E-N=-1.930027459968D+03  KE= 3.880905031106D+02
 No NMR shielding tensors so no spin-rotation constants.
 Leave Link  601 at Mon Jul 19 20:22:33 2021, MaxMem=   524288000 cpu:               1.8 elap:               0.6
 (Enter /opt/gaussian/g16_legacy/l701.exe)
 ... and contract with generalized density number  0.
 Compute integral first derivatives.
 Leave Link  701 at Mon Jul 19 20:22:34 2021, MaxMem=   524288000 cpu:               1.0 elap:               0.9
 (Enter /opt/gaussian/g16_legacy/l702.exe)
 L702 exits ... SP integral derivatives will be done elsewhere.
 Leave Link  702 at Mon Jul 19 20:22:34 2021, MaxMem=   524288000 cpu:               0.1 elap:               0.1
 (Enter /opt/gaussian/g16_legacy/l703.exe)
 Integral derivatives from FoFJK, PRISM(SPDF).
 Compute integral first derivatives, UseDBF=F ICtDFT=           0.
 Calling FoFJK, ICntrl=      2127 FMM=F ISym2X=0 I1Cent= 0 IOpClX= 0 NMat=1 NMatS=1 NMatT=0.
 FoFJK:  IHMeth= 1 ICntrl=    2127 DoSepK=F KAlg= 0 I1Cent=           0 FoldK=F
 IRaf=         0 NMat=       1 IRICut=       1 DoRegI=T DoRafI=F ISym2E= 0 IDoP0=0 IntGTp=1.
 FoFCou: FMM=F IPFlag=           0 FMFlag=      100000 FMFlg1=         800
         NFxFlg=           0 DoJE=F BraDBF=F KetDBF=F FulRan=T
         wScrn=  0.000000 ICntrl=      2127 IOpCl=  0 I1Cent=           0 NGrid=           0
         NMat0=    1 NMatS0=      1 NMatT0=    0 NMatD0=    1 NMtDS0=    0 NMtDT0=    0
 Symmetry not used in FoFCou.
 Leave Link  703 at Mon Jul 19 20:22:54 2021, MaxMem=   524288000 cpu:              74.4 elap:              18.9
 (Enter /opt/gaussian/g16_legacy/l716.exe)
 Dipole        = 5.18618082D-03 5.02233674D-02 4.51588144D-02
 ***** Axes restored to original set *****
 -------------------------------------------------------------------
 Center     Atomic                   Forces (Hartrees/Bohr)
 Number     Number              X              Y              Z
 -------------------------------------------------------------------
      1        6           0.009192462   -0.005447950   -0.000454634
      2        1           0.000946334    0.001647725    0.002369801
      3        1          -0.001996003    0.001882703    0.001145573
      4        6           0.001752525   -0.015149315   -0.007243922
      5        6           0.001987786    0.001058487   -0.000655585
      6        1          -0.000303484   -0.001226844    0.002943322
      7        1          -0.001606047   -0.000382186    0.001619237
      8        1           0.001039922    0.003276969   -0.000225989
      9        6          -0.007864225    0.011705894    0.001871494
     10        1          -0.002769615    0.001390827   -0.000339849
     11        6           0.000110466    0.002125064    0.000128598
     12        1          -0.001044462    0.000164159   -0.000702404
     13        1           0.002122173   -0.001228972   -0.000673824
     14        1           0.002504080   -0.001676419    0.000993399
     15        6           0.000262460    0.003317904   -0.001900568
     16        1           0.001885707   -0.000839283    0.000306845
     17        1          -0.002434611   -0.001567238    0.001378255
     18        1          -0.000951126   -0.002557021   -0.000900872
     19        6           0.005323671    0.015260739   -0.003515653
     20        6           0.000754807    0.000565444    0.003603445
     21        1           0.002040251    0.000037390   -0.002723736
     22        1          -0.000469809   -0.000675143   -0.002054315
     23        1           0.000124284   -0.002012073    0.001489582
     24        6          -0.005632132   -0.008311099    0.004883337
     25        1          -0.002833819   -0.001817000   -0.001031949
     26        6          -0.005643346    0.003668926    0.003524750
     27        1           0.002423257   -0.000706667   -0.000918553
     28        1           0.001078493   -0.002505023   -0.002915787
 -------------------------------------------------------------------
 Cartesian Forces:  Max     0.015260739 RMS     0.003859140
 Leave Link  716 at Mon Jul 19 20:22:54 2021, MaxMem=   524288000 cpu:               0.3 elap:               0.4
 (Enter /opt/gaussian/g16_legacy/l103.exe)

 GradGradGradGradGradGradGradGradGradGradGradGradGradGradGradGradGradGrad
 Berny optimization.
 FormGI is forming the generalized inverse of G from B-inverse, IUseBI=4.
 Internal  Forces:  Max     0.014243403 RMS     0.002380699
 Search for a local minimum.
 Step number   1 out of a maximum of  138
 All quantities printed in internal units (Hartrees-Bohrs-Radians)
 RMS Force = .23807D-02 SwitMx=.10000D-02 MixMth= 1
 Mixed Optimization -- RFO/linear search
 Second derivative matrix not updated -- first step.
 ITU=  0
     Eigenvalues ---    0.00331   0.00526   0.00704   0.00706   0.00714
     Eigenvalues ---    0.00714   0.00809   0.01214   0.01290   0.01574
     Eigenvalues ---    0.01639   0.02784   0.02785   0.04019   0.04089
     Eigenvalues ---    0.05355   0.05367   0.07035   0.07053   0.07083
     Eigenvalues ---    0.07117   0.07291   0.07300   0.07332   0.07493
     Eigenvalues ---    0.09355   0.09371   0.12821   0.12839   0.15998
     Eigenvalues ---    0.15999   0.16000   0.16000   0.16000   0.16000
     Eigenvalues ---    0.16000   0.16000   0.16000   0.16000   0.16000
     Eigenvalues ---    0.16000   0.16000   0.16000   0.21874   0.21905
     Eigenvalues ---    0.22000   0.22001   0.24991   0.24995   0.24999
     Eigenvalues ---    0.24999   0.29156   0.30546   0.31889   0.31905
     Eigenvalues ---    0.31970   0.31971   0.32719   0.33752   0.33859
     Eigenvalues ---    0.33914   0.33969   0.34190   0.34204   0.34208
     Eigenvalues ---    0.34219   0.34242   0.34268   0.34277   0.34320
     Eigenvalues ---    0.34382   0.34385   0.34436   0.34546   0.34852
     Eigenvalues ---    0.34891   0.55570   0.55585
 RFO step:  Lambda=-3.41105294D-03 EMin= 3.30596770D-03
 Linear search not attempted -- first point.
 Iteration  1 RMS(Cart)=  0.03996249 RMS(Int)=  0.00073049
 Iteration  2 RMS(Cart)=  0.00090352 RMS(Int)=  0.00008603
 Iteration  3 RMS(Cart)=  0.00000034 RMS(Int)=  0.00008603
 ITry= 1 IFail=0 DXMaxC= 1.42D-01 DCOld= 1.00D+10 DXMaxT= 3.00D-01 DXLimC= 3.00D+00 Rises=F
 Variable       Old X    -DE/DX   Delta X   Delta X   Delta X     New X
                                 (Linear)    (Quad)   (Total)
    R1        2.07751  -0.00240   0.00000  -0.00703  -0.00703   2.07048
    R2        2.07568   0.00039   0.00000   0.00113   0.00113   2.07681
    R3        2.86888  -0.00451   0.00000  -0.01459  -0.01459   2.85429
    R4        2.89678   0.00243   0.00000   0.00822   0.00822   2.90501
    R5        2.84318   0.00368   0.00000   0.01141   0.01141   2.85459
    R6        2.54629  -0.01424   0.00000  -0.02547  -0.02547   2.52081
    R7        2.06686  -0.00118   0.00000  -0.00340  -0.00340   2.06346
    R8        2.06923  -0.00028   0.00000  -0.00080  -0.00080   2.06843
    R9        2.06988   0.00028   0.00000   0.00080   0.00080   2.07067
   R10        2.05916   0.00015   0.00000   0.00042   0.00042   2.05958
   R11        2.82848   0.00355   0.00000   0.01075   0.01075   2.83923
   R12        2.06418  -0.00052   0.00000  -0.00150  -0.00150   2.06269
   R13        2.06793   0.00047   0.00000   0.00135   0.00135   2.06928
   R14        2.06691   0.00111   0.00000   0.00320   0.00320   2.07011
   R15        2.06865  -0.00138   0.00000  -0.00399  -0.00399   2.06466
   R16        2.06962   0.00068   0.00000   0.00197   0.00197   2.07159
   R17        2.07011   0.00018   0.00000   0.00053   0.00053   2.07064
   R18        2.84197   0.00151   0.00000   0.00466   0.00466   2.84664
   R19        2.84199   0.00270   0.00000   0.00834   0.00834   2.85033
   R20        2.54616  -0.01372   0.00000  -0.02454  -0.02454   2.52162
   R21        2.06600  -0.00031   0.00000  -0.00089  -0.00089   2.06511
   R22        2.06881  -0.00036   0.00000  -0.00105  -0.00105   2.06776
   R23        2.06981   0.00026   0.00000   0.00074   0.00074   2.07055
   R24        2.05852   0.00015   0.00000   0.00042   0.00042   2.05895
   R25        2.84347   0.00185   0.00000   0.00575   0.00575   2.84922
   R26        2.07383  -0.00040   0.00000  -0.00117  -0.00117   2.07266
   R27        2.07476  -0.00106   0.00000  -0.00311  -0.00311   2.07166
    A1        1.84757   0.00139   0.00000   0.01495   0.01485   1.86242
    A2        1.92112  -0.00057   0.00000   0.00033   0.00032   1.92144
    A3        1.90912  -0.00076   0.00000  -0.00573  -0.00575   1.90337
    A4        1.89980   0.00086   0.00000   0.00852   0.00851   1.90832
    A5        1.91913  -0.00275   0.00000  -0.02328  -0.02329   1.89583
    A6        1.96352   0.00179   0.00000   0.00569   0.00572   1.96924
    A7        2.01779   0.00019   0.00000   0.00084   0.00057   2.01836
    A8        2.10646   0.00020   0.00000   0.00091   0.00063   2.10709
    A9        2.15891  -0.00039   0.00000  -0.00144  -0.00171   2.15720
   A10        1.96034  -0.00057   0.00000  -0.00146  -0.00146   1.95889
   A11        1.93392  -0.00122   0.00000  -0.00611  -0.00608   1.92784
   A12        1.92093   0.00441   0.00000   0.02362   0.02365   1.94458
   A13        1.85619   0.00207   0.00000   0.01894   0.01894   1.87513
   A14        1.90142  -0.00255   0.00000  -0.01799  -0.01798   1.88343
   A15        1.88861  -0.00237   0.00000  -0.01841  -0.01836   1.87025
   A16        2.07243  -0.00292   0.00000  -0.01825  -0.01827   2.05416
   A17        2.22100  -0.00057   0.00000  -0.00252  -0.00254   2.21846
   A18        1.98952   0.00350   0.00000   0.02100   0.02098   2.01051
   A19        1.98125  -0.00247   0.00000  -0.01431  -0.01424   1.96701
   A20        1.91102   0.00249   0.00000   0.01502   0.01499   1.92601
   A21        1.91653   0.00349   0.00000   0.02076   0.02073   1.93727
   A22        1.87482   0.00011   0.00000   0.00177   0.00182   1.87664
   A23        1.88916  -0.00056   0.00000  -0.00295  -0.00288   1.88627
   A24        1.88854  -0.00326   0.00000  -0.02169  -0.02180   1.86674
   A25        1.88186   0.00044   0.00000   0.00580   0.00582   1.88768
   A26        1.87747   0.00116   0.00000   0.01119   0.01121   1.88868
   A27        1.96064  -0.00222   0.00000  -0.00982  -0.00981   1.95083
   A28        1.89587  -0.00331   0.00000  -0.02772  -0.02771   1.86817
   A29        1.92206   0.00240   0.00000   0.01256   0.01258   1.93463
   A30        1.92406   0.00140   0.00000   0.00698   0.00700   1.93106
   A31        2.00900   0.00129   0.00000   0.00500   0.00498   2.01398
   A32        2.11246   0.00180   0.00000   0.00700   0.00697   2.11943
   A33        2.16146  -0.00309   0.00000  -0.01228  -0.01230   2.14916
   A34        1.96597  -0.00078   0.00000  -0.00265  -0.00266   1.96331
   A35        1.93444  -0.00053   0.00000  -0.00064  -0.00064   1.93380
   A36        1.91878   0.00290   0.00000   0.01306   0.01307   1.93186
   A37        1.85906   0.00223   0.00000   0.02234   0.02232   1.88138
   A38        1.89549  -0.00199   0.00000  -0.01679  -0.01677   1.87873
   A39        1.88746  -0.00198   0.00000  -0.01627  -0.01626   1.87120
   A40        2.07619  -0.00252   0.00000  -0.01718  -0.01731   2.05887
   A41        2.20455  -0.00196   0.00000  -0.00886  -0.00900   2.19555
   A42        2.00234   0.00447   0.00000   0.02562   0.02547   2.02781
   A43        1.95350   0.00203   0.00000   0.00733   0.00730   1.96080
   A44        1.92253  -0.00193   0.00000  -0.01123  -0.01141   1.91112
   A45        1.92621  -0.00311   0.00000  -0.03256  -0.03266   1.89356
   A46        1.88075   0.00114   0.00000   0.02262   0.02260   1.90335
   A47        1.93645   0.00039   0.00000   0.00144   0.00133   1.93777
   A48        1.84052   0.00151   0.00000   0.01393   0.01358   1.85411
    D1        3.07990   0.00089   0.00000   0.01824   0.01828   3.09818
    D2       -0.05375   0.00023   0.00000  -0.02377  -0.02377  -0.07752
    D3        1.06222  -0.00095   0.00000  -0.00473  -0.00474   1.05748
    D4       -2.07144  -0.00160   0.00000  -0.04674  -0.04679  -2.11822
    D5       -1.06933   0.00074   0.00000   0.01506   0.01508  -1.05425
    D6        2.08020   0.00009   0.00000  -0.02695  -0.02697   2.05323
    D7       -0.91349   0.00031   0.00000  -0.04158  -0.04166  -0.95515
    D8       -3.00555  -0.00115   0.00000  -0.06732  -0.06724  -3.07279
    D9        1.25236  -0.00001   0.00000  -0.05844  -0.05850   1.19386
   D10        1.10841  -0.00000   0.00000  -0.04004  -0.04008   1.06833
   D11       -0.98365  -0.00147   0.00000  -0.06578  -0.06566  -1.04931
   D12       -3.00892  -0.00033   0.00000  -0.05690  -0.05692  -3.06584
   D13       -3.05420   0.00037   0.00000  -0.04178  -0.04184  -3.09603
   D14        1.13693  -0.00110   0.00000  -0.06752  -0.06742   1.06951
   D15       -0.88835   0.00004   0.00000  -0.05864  -0.05868  -0.94702
   D16       -2.56830  -0.00137   0.00000  -0.06662  -0.06661  -2.63491
   D17       -0.49508   0.00005   0.00000  -0.04775  -0.04772  -0.54279
   D18        1.59314  -0.00084   0.00000  -0.05932  -0.05932   1.53382
   D19        0.56509  -0.00069   0.00000  -0.02318  -0.02320   0.54189
   D20        2.63831   0.00073   0.00000  -0.00431  -0.00431   2.63400
   D21       -1.55666  -0.00016   0.00000  -0.01588  -0.01591  -1.57257
   D22        0.00693  -0.00009   0.00000   0.01022   0.01014   0.01707
   D23       -3.11032  -0.00037   0.00000  -0.00217  -0.00212  -3.11244
   D24       -3.12606  -0.00080   0.00000  -0.03532  -0.03538   3.12175
   D25        0.03988  -0.00108   0.00000  -0.04772  -0.04764  -0.00776
   D26        0.04669  -0.00003   0.00000  -0.00207  -0.00203   0.04467
   D27        2.14153   0.00024   0.00000   0.00137   0.00135   2.14287
   D28       -2.07047  -0.00015   0.00000  -0.00357  -0.00345  -2.07392
   D29       -3.07153  -0.00023   0.00000  -0.01351  -0.01357  -3.08510
   D30       -0.97670   0.00004   0.00000  -0.01008  -0.01019  -0.98689
   D31        1.09449  -0.00035   0.00000  -0.01502  -0.01499   1.07950
   D32       -3.12393   0.00033   0.00000   0.02015   0.02020  -3.10373
   D33       -0.00626   0.00009   0.00000   0.00768   0.00763   0.00137
   D34       -1.02609   0.00107   0.00000   0.02964   0.02969  -0.99640
   D35        2.09157   0.00082   0.00000   0.01717   0.01712   2.10870
   D36        1.06561  -0.00062   0.00000   0.00767   0.00771   1.07332
   D37       -2.09991  -0.00087   0.00000  -0.00481  -0.00485  -2.10477
   D38       -2.61042  -0.00164   0.00000  -0.07241  -0.07239  -2.68281
   D39       -0.52946   0.00032   0.00000  -0.04617  -0.04612  -0.57558
   D40        1.55628  -0.00062   0.00000  -0.05840  -0.05837   1.49791
   D41        0.55586  -0.00146   0.00000  -0.05984  -0.05989   0.49597
   D42        2.63682   0.00050   0.00000  -0.03360  -0.03362   2.60320
   D43       -1.56063  -0.00044   0.00000  -0.04584  -0.04587  -1.60650
   D44       -0.00082  -0.00009   0.00000  -0.00622  -0.00603  -0.00686
   D45       -3.12581   0.00050   0.00000   0.02631   0.02608  -3.09973
   D46        3.11468  -0.00029   0.00000  -0.01955  -0.01932   3.09536
   D47       -0.01031   0.00030   0.00000   0.01299   0.01280   0.00249
   D48        1.54597  -0.00082   0.00000  -0.01764  -0.01786   1.52811
   D49       -2.62084  -0.00120   0.00000  -0.01202  -0.01215  -2.63299
   D50       -0.61414   0.00146   0.00000   0.01833   0.01826  -0.59588
   D51       -1.57962  -0.00019   0.00000   0.01404   0.01409  -1.56552
   D52        0.53675  -0.00058   0.00000   0.01966   0.01981   0.55656
   D53        2.54345   0.00209   0.00000   0.05001   0.05022   2.59367
         Item               Value     Threshold  Converged?
 Maximum Force            0.014243     0.002500     NO 
 RMS     Force            0.002381     0.001667     NO 
 Maximum Displacement     0.141665     0.010000     NO 
 RMS     Displacement     0.040078     0.006667     NO 
 Predicted change in Energy=-1.850365D-03
 Lowest energy point so far.  Saving SCF results.
 GradGradGradGradGradGradGradGradGradGradGradGradGradGradGradGradGradGrad

 Leave Link  103 at Mon Jul 19 20:22:54 2021, MaxMem=   524288000 cpu:               0.9 elap:               0.3
 (Enter /opt/gaussian/g16_legacy/l202.exe)
                          Input orientation:                          
 ---------------------------------------------------------------------
 Center     Atomic      Atomic             Coordinates (Angstroms)
 Number     Number       Type             X           Y           Z
 ---------------------------------------------------------------------
      1          6           0        2.160157    1.297656   -8.948784
      2          1           0        1.857752    0.277537   -9.210239
      3          1           0        1.981139    1.918025   -9.838108
      4          6           0        3.630238    1.330643   -8.603599
      5          6           0        4.195086    2.693493   -8.278869
      6          1           0        5.254699    2.772289   -8.530525
      7          1           0        3.666096    3.470416   -8.839792
      8          1           0        4.082912    2.929931   -7.214825
      9          6           0        4.344989    0.205274   -8.557644
     10          1           0        3.834920   -0.728708   -8.792920
     11          6           0        5.797457    0.067942   -8.198683
     12          1           0        6.253345    1.018700   -7.916448
     13          1           0        5.917804   -0.618916   -7.354405
     14          1           0        6.370499   -0.349078   -9.033989
     15          6           0       -2.425866    0.641036   -8.349481
     16          1           0       -2.716009    1.582457   -8.821984
     17          1           0       -2.621958   -0.171709   -9.058521
     18          1           0       -3.078029    0.476753   -7.484423
     19          6           0       -0.979124    0.648992   -7.929906
     20          6           0       -0.477476   -0.632828   -7.313186
[...]
                 (A) (A) (A) (A) (A) (A) (A) (A) (A) (A) (A) (A)
                 (A) (A) (A) (A) (A) (A) (A) (A) (A) (A) (A) (A)
                 (A) (A) (A) (A) (A) (A) (A) (A) (A) (A) (A) (A)
                 (A) (A) (A) (A) (A) (A) (A) (A) (A) (A) (A) (A)
                 (A) (A) (A) (A) (A) (A) (A) (A) (A) (A) (A) (A)
                 (A) (A) (A) (A) (A) (A) (A) (A) (A) (A) (A) (A)
                 (A) (A) (A) (A) (A) (A) (A) (A) (A) (A) (A) (A)
                 (A) (A) (A) (A) (A) (A) (A) (A) (A)
 The electronic state is 1-A.
 Alpha  occ. eigenvalues --  -10.54451 -10.54103 -10.53765 -10.53662 -10.53450
 Alpha  occ. eigenvalues --  -10.53401 -10.53335 -10.53329 -10.53250 -10.52994
 Alpha  occ. eigenvalues --   -0.92099  -0.90090  -0.84783  -0.80843  -0.77794
 Alpha  occ. eigenvalues --   -0.76652  -0.72674  -0.67617  -0.58499  -0.58017
 Alpha  occ. eigenvalues --   -0.54229  -0.52861  -0.49979  -0.49473  -0.48994
 Alpha  occ. eigenvalues --   -0.47842  -0.46069  -0.45547  -0.44287  -0.43797
 Alpha  occ. eigenvalues --   -0.42918  -0.42399  -0.42144  -0.40606  -0.39362
 Alpha  occ. eigenvalues --   -0.38003  -0.36345  -0.28926  -0.27181
 Alpha virt. eigenvalues --    0.06859   0.08161   0.12789   0.14731   0.16121
 Alpha virt. eigenvalues --    0.16907   0.17737   0.18749   0.19630   0.20247
 Alpha virt. eigenvalues --    0.21177   0.21724   0.22526   0.23002   0.23257
 Alpha virt. eigenvalues --    0.24049   0.25440   0.25663   0.26865   0.27820
 Alpha virt. eigenvalues --    0.28466   0.29623   0.30163   0.31503   0.32315
 Alpha virt. eigenvalues --    0.38675   0.40146   0.46752   0.49206   0.53729
 Alpha virt. eigenvalues --    0.54502   0.56233   0.58282   0.59146   0.59418
 Alpha virt. eigenvalues --    0.60140   0.61563   0.62665   0.64038   0.66496
 Alpha virt. eigenvalues --    0.66649   0.68628   0.69455   0.71143   0.73027
 Alpha virt. eigenvalues --    0.74542   0.76453   0.77053   0.78958   0.80237
 Alpha virt. eigenvalues --    0.80559   0.82073   0.83394   0.84802   0.85943
 Alpha virt. eigenvalues --    0.87690   0.88922   0.90558   0.92305   0.92636
 Alpha virt. eigenvalues --    0.93229   0.93904   0.94919   0.95353   0.96368
 Alpha virt. eigenvalues --    0.96860   0.97305   0.97812   0.99478   1.01136
 Alpha virt. eigenvalues --    1.01426   1.03138   1.03599   1.06067   1.06286
 Alpha virt. eigenvalues --    1.07998   1.19827   1.21670   1.24580   1.25300
 Alpha virt. eigenvalues --    1.27696   1.31392   1.34893   1.35956   1.37940
 Alpha virt. eigenvalues --    1.40890   1.44531   1.44803   1.48997   1.50733
 Alpha virt. eigenvalues --    1.52175   1.57959   1.66722   1.69078   1.73454
 Alpha virt. eigenvalues --    1.77026   1.78037   1.78370   1.81937   1.83098
 Alpha virt. eigenvalues --    1.83558   1.84049   1.85234   1.87316   1.88566
 Alpha virt. eigenvalues --    1.90238   1.90831   1.94803   1.97924   2.01721
 Alpha virt. eigenvalues --    2.03335   2.03481   2.04702   2.09635   2.09990
 Alpha virt. eigenvalues --    2.10101   2.10492   2.11307   2.13231   2.14226
 Alpha virt. eigenvalues --    2.15886   2.16614   2.17310   2.17517   2.18714
 Alpha virt. eigenvalues --    2.20718   2.22257   2.22873   2.23702   2.27752
 Alpha virt. eigenvalues --    2.29133   2.31229   2.33525   2.34761   2.37123
 Alpha virt. eigenvalues --    2.37937   2.40360   2.41790   2.42392   2.45795
 Alpha virt. eigenvalues --    2.46567   2.48304   2.49768   2.53644   2.53714
 Alpha virt. eigenvalues --    2.55220   2.59392   2.60227   2.62181   2.65137
 Alpha virt. eigenvalues --    2.65390   2.69545   2.70449   2.71573   2.73290
 Alpha virt. eigenvalues --    2.74521   2.76061   2.79126   2.80489   2.81761
 Alpha virt. eigenvalues --    2.84501   2.86043   2.86873   2.87846   2.88738
 Alpha virt. eigenvalues --    2.90031   2.91733   2.93594   2.94569   3.03996
 Alpha virt. eigenvalues --    3.04860   3.08287   3.09908   3.17291   3.18175
 Alpha virt. eigenvalues --    3.22870   3.24978   3.27218   3.34326   3.39633
 Alpha virt. eigenvalues --    3.40719   3.41423   3.43014   3.44181   3.44789
 Alpha virt. eigenvalues --    3.45086   3.46984   3.48402   3.51134   3.52046
 Alpha virt. eigenvalues --    3.57436   4.18981   4.22082   4.34072   4.43677
 Alpha virt. eigenvalues --    4.49662   4.50966   4.52476   4.64064   4.69739
 Alpha virt. eigenvalues --    4.75707
          Condensed to atoms (all electrons):
               1          2          3          4          5          6
     1  C    5.019046   0.387106   0.378432   0.365807  -0.072293   0.004360
     2  H    0.387106   0.605776  -0.031387  -0.039804   0.005376  -0.000146
     3  H    0.378432  -0.031387   0.618012  -0.033792  -0.004739  -0.000057
     4  C    0.365807  -0.039804  -0.033792   4.741817   0.368050  -0.027612
     5  C   -0.072293   0.005376  -0.004739   0.368050   5.017919   0.384221
     6  H    0.004360  -0.000146  -0.000057  -0.027612   0.384221   0.571278
     7  H   -0.003216   0.000065   0.005404  -0.036178   0.382089  -0.026640
     8  H   -0.002843  -0.000110  -0.000241  -0.032427   0.383654  -0.027842
     9  C   -0.030994  -0.007239   0.000389   0.720914  -0.055186  -0.006903
    10  H   -0.015045   0.007099   0.000368  -0.034402   0.006523   0.000001
    11  C    0.005616   0.000196  -0.000207  -0.038821  -0.015170   0.000495
    12  H    0.000080   0.000009   0.000003  -0.006702   0.001589   0.003666
    13  H   -0.000114  -0.000010  -0.000004  -0.000417   0.000366  -0.000219
    14  H   -0.000160  -0.000007   0.000019  -0.000340   0.000381   0.000076
    15  C   -0.000065  -0.000120   0.000001   0.000003  -0.000000  -0.000000
    16  H   -0.000002  -0.000001   0.000001   0.000000  -0.000000  -0.000000
    17  H    0.000021  -0.000004  -0.000003  -0.000000   0.000000  -0.000000
    18  H   -0.000006   0.000003   0.000000   0.000000  -0.000000   0.000000
    19  C   -0.005992   0.002818   0.000144   0.000216  -0.000003   0.000000
    20  C   -0.000355   0.001091   0.000000  -0.000102   0.000000   0.000000
    21  H   -0.000446   0.000649   0.000016   0.000100   0.000002   0.000000
    22  H   -0.000019   0.000030  -0.000001   0.000003   0.000000   0.000000
    23  H    0.000146  -0.000103  -0.000003  -0.000010   0.000000  -0.000000
    24  C   -0.049142  -0.002517  -0.001867   0.005387  -0.000002   0.000000
    25  H    0.000477  -0.000096   0.001670  -0.000097  -0.000002  -0.000000
    26  C    0.347322  -0.040622  -0.047460  -0.053852  -0.000941   0.000155
    27  H   -0.038582   0.005537  -0.005221  -0.006794   0.003886  -0.000017
    28  H   -0.044819  -0.005218   0.006255   0.002402  -0.001011  -0.000033
               7          8          9         10         11         12
     1  C   -0.003216  -0.002843  -0.030994  -0.015045   0.005616   0.000080
     2  H    0.000065  -0.000110  -0.007239   0.007099   0.000196   0.000009
     3  H    0.005404  -0.000241   0.000389   0.000368  -0.000207   0.000003
     4  C   -0.036178  -0.032427   0.720914  -0.034402  -0.038821  -0.006702
     5  C    0.382089   0.383654  -0.055186   0.006523  -0.015170   0.001589
     6  H   -0.026640  -0.027842  -0.006903   0.000001   0.000495   0.003666
     7  H    0.587074  -0.034570   0.002309  -0.000164   0.000311  -0.000103
     8  H   -0.034570   0.577667  -0.002057  -0.000158   0.000606  -0.000197
     9  C    0.002309  -0.002057   4.894059   0.378133   0.357762  -0.035588
    10  H   -0.000164  -0.000158   0.378133   0.614898  -0.054532   0.004453
    11  C    0.000311   0.000606   0.357762  -0.054532   4.979069   0.389685
    12  H   -0.000103  -0.000197  -0.035588   0.004453   0.389685   0.578899
    13  H   -0.000019   0.000100  -0.032913  -0.001513   0.385224  -0.028110
    14  H    0.000025  -0.000039  -0.033198  -0.001441   0.385060  -0.028075
    15  C   -0.000000  -0.000000   0.000000  -0.000000   0.000000   0.000000
    16  H   -0.000000   0.000000  -0.000000  -0.000000   0.000000   0.000000
    17  H   -0.000000  -0.000000   0.000000   0.000000  -0.000000  -0.000000
    18  H    0.000000   0.000000  -0.000000  -0.000000   0.000000   0.000000
    19  C    0.000000  -0.000004  -0.000002  -0.000008   0.000000  -0.000000
    20  C   -0.000000   0.000001  -0.000024  -0.000012   0.000000  -0.000000
    21  H    0.000000  -0.000003   0.000113   0.000118  -0.000001   0.000000
    22  H    0.000000   0.000000   0.000000  -0.000000   0.000000   0.000000
    23  H    0.000000   0.000000  -0.000001   0.000005  -0.000000   0.000000
    24  C   -0.000045  -0.000022  -0.000024  -0.000023   0.000002   0.000000
    25  H    0.000001   0.000009  -0.000001   0.000000  -0.000000  -0.000000
    26  C   -0.002145   0.002539  -0.004528   0.000254  -0.000100  -0.000003
    27  H    0.000744  -0.000102   0.000053  -0.000008   0.000010  -0.000002
    28  H    0.000195   0.000342   0.002190   0.000100  -0.000079   0.000002
              13         14         15         16         17         18
     1  C   -0.000114  -0.000160  -0.000065  -0.000002   0.000021  -0.000006
     2  H   -0.000010  -0.000007  -0.000120  -0.000001  -0.000004   0.000003
     3  H   -0.000004   0.000019   0.000001   0.000001  -0.000003   0.000000
     4  C   -0.000417  -0.000340   0.000003   0.000000  -0.000000   0.000000
     5  C    0.000366   0.000381  -0.000000  -0.000000   0.000000  -0.000000
     6  H   -0.000219   0.000076  -0.000000  -0.000000  -0.000000   0.000000
     7  H   -0.000019   0.000025  -0.000000  -0.000000  -0.000000   0.000000
     8  H    0.000100  -0.000039  -0.000000   0.000000  -0.000000   0.000000
     9  C   -0.032913  -0.033198   0.000000  -0.000000   0.000000  -0.000000
    10  H   -0.001513  -0.001441  -0.000000  -0.000000   0.000000  -0.000000
    11  C    0.385224   0.385060   0.000000   0.000000  -0.000000   0.000000
    12  H   -0.028110  -0.028075   0.000000   0.000000  -0.000000   0.000000
    13  H    0.579002  -0.033958  -0.000000  -0.000000   0.000000  -0.000000
    14  H   -0.033958   0.579294   0.000000  -0.000000  -0.000000   0.000000
    15  C   -0.000000   0.000000   5.005630   0.385028   0.380974   0.381446
    16  H   -0.000000  -0.000000   0.385028   0.570323  -0.026442  -0.026336
    17  H    0.000000  -0.000000   0.380974  -0.026442   0.591222  -0.036839
    18  H   -0.000000   0.000000   0.381446  -0.026336  -0.036839   0.590946
    19  C   -0.000000   0.000000   0.369065  -0.033405  -0.035793  -0.035984
    20  C    0.000000  -0.000000  -0.078303   0.004737  -0.001691  -0.001073
    21  H   -0.000001   0.000000   0.004849  -0.000170  -0.000047  -0.000017
    22  H   -0.000000   0.000000  -0.002686  -0.000038  -0.000763   0.004070
    23  H    0.000000  -0.000000  -0.002718  -0.000014   0.004060  -0.000770
    24  C   -0.000000   0.000000  -0.038859  -0.004991  -0.000598  -0.001420
    25  H    0.000000  -0.000000  -0.014183   0.006464   0.000249   0.000237
    26  C    0.000020  -0.000005   0.005895   0.000105  -0.000109  -0.000208
    27  H   -0.000000   0.000000  -0.000168  -0.000010  -0.000001   0.000008
    28  H   -0.000006   0.000001   0.000040   0.000010  -0.000009   0.000016
              19         20         21         22         23         24
     1  C   -0.005992  -0.000355  -0.000446  -0.000019   0.000146  -0.049142
     2  H    0.002818   0.001091   0.000649   0.000030  -0.000103  -0.002517
     3  H    0.000144   0.000000   0.000016  -0.000001  -0.000003  -0.001867
     4  C    0.000216  -0.000102   0.000100   0.000003  -0.000010   0.005387
     5  C   -0.000003   0.000000   0.000002   0.000000   0.000000  -0.000002
     6  H    0.000000   0.000000   0.000000   0.000000  -0.000000   0.000000
     7  H    0.000000  -0.000000   0.000000   0.000000   0.000000  -0.000045
     8  H   -0.000004   0.000001  -0.000003   0.000000   0.000000  -0.000022
     9  C   -0.000002  -0.000024   0.000113   0.000000  -0.000001  -0.000024
    10  H   -0.000008  -0.000012   0.000118  -0.000000   0.000005  -0.000023
    11  C    0.000000   0.000000  -0.000001   0.000000  -0.000000   0.000002
    12  H   -0.000000  -0.000000   0.000000   0.000000   0.000000   0.000000
    13  H   -0.000000   0.000000  -0.000001  -0.000000   0.000000  -0.000000
    14  H    0.000000  -0.000000   0.000000   0.000000  -0.000000   0.000000
    15  C    0.369065  -0.078303   0.004849  -0.002686  -0.002718  -0.038859
    16  H   -0.033405   0.004737  -0.000170  -0.000038  -0.000014  -0.004991
    17  H   -0.035793  -0.001691  -0.000047  -0.000763   0.004060  -0.000598
    18  H   -0.035984  -0.001073  -0.000017   0.004070  -0.000770  -0.001420
    19  C    4.719262   0.378708  -0.026800  -0.035645  -0.035137   0.722143
    20  C    0.378708   5.006875   0.383663   0.383243   0.383524  -0.054865
    21  H   -0.026800   0.383663   0.573140  -0.026814  -0.027901  -0.009944
    22  H   -0.035645   0.383243  -0.026814   0.582814  -0.034522   0.000771
    23  H   -0.035137   0.383524  -0.027901  -0.034522   0.583901   0.000350
    24  C    0.722143  -0.054865  -0.009944   0.000771   0.000350   4.906570
    25  H   -0.034654   0.006461   0.000032  -0.000155  -0.000168   0.377164
    26  C   -0.042696  -0.013356   0.002364   0.000023   0.000551   0.358356
    27  H    0.003277   0.000387  -0.000030   0.000012  -0.000014  -0.027117
    28  H   -0.007321   0.000014   0.002490   0.000219  -0.000205  -0.036509
              25         26         27         28
     1  C    0.000477   0.347322  -0.038582  -0.044819
     2  H   -0.000096  -0.040622   0.005537  -0.005218
     3  H    0.001670  -0.047460  -0.005221   0.006255
     4  C   -0.000097  -0.053852  -0.006794   0.002402
     5  C   -0.000002  -0.000941   0.003886  -0.001011
     6  H   -0.000000   0.000155  -0.000017  -0.000033
     7  H    0.000001  -0.002145   0.000744   0.000195
     8  H    0.000009   0.002539  -0.000102   0.000342
     9  C   -0.000001  -0.004528   0.000053   0.002190
    10  H    0.000000   0.000254  -0.000008   0.000100
    11  C   -0.000000  -0.000100   0.000010  -0.000079
    12  H   -0.000000  -0.000003  -0.000002   0.000002
    13  H    0.000000   0.000020  -0.000000  -0.000006
    14  H   -0.000000  -0.000005   0.000000   0.000001
    15  C   -0.014183   0.005895  -0.000168   0.000040
    16  H    0.006464   0.000105  -0.000010   0.000010
    17  H    0.000249  -0.000109  -0.000001  -0.000009
    18  H    0.000237  -0.000208   0.000008   0.000016
    19  C   -0.034654  -0.042696   0.003277  -0.007321
    20  C    0.006461  -0.013356   0.000387   0.000014
    21  H    0.000032   0.002364  -0.000030   0.002490
    22  H   -0.000155   0.000023   0.000012   0.000219
    23  H   -0.000168   0.000551  -0.000014  -0.000205
    24  C    0.377164   0.358356  -0.027117  -0.036509
    25  H    0.612855  -0.049929  -0.005796   0.004365
    26  C   -0.049929   5.025149   0.382532   0.388031
    27  H   -0.005796   0.382532   0.607218  -0.034537
    28  H    0.004365   0.388031  -0.034537   0.602994
 Mulliken charges:
               1
     1  C   -0.244322
     2  H    0.111631
     3  H    0.114266
     4  C    0.106652
     5  C   -0.404708
     6  H    0.125216
     7  H    0.124864
     8  H    0.135699
     9  C   -0.147264
    10  H    0.095356
    11  C   -0.395124
    12  H    0.120393
    13  H    0.132572
    14  H    0.132367
    15  C   -0.395826
    16  H    0.124741
    17  H    0.125772
    18  H    0.125925
    19  C    0.097816
    20  C   -0.398923
    21  H    0.124639
    22  H    0.129457
    23  H    0.129030
    24  C   -0.142800
    25  H    0.095096
    26  C   -0.257344
    27  H    0.114736
    28  H    0.120080
 Sum of Mulliken charges =  -0.00000
 Mulliken charges with hydrogens summed into heavy atoms:
               1
     1  C   -0.018425
     4  C    0.106652
     5  C   -0.018929
     9  C   -0.051908
    11  C   -0.009792
    15  C   -0.019387
    19  C    0.097816
    20  C   -0.015797
    24  C   -0.047704
    26  C   -0.022527
 Electronic spatial extent (au):  <R**2>=           2616.1418
 Charge=             -0.0000 electrons
 Dipole moment (field-independent basis, Debye):
    X=              0.0521    Y=              0.1204    Z=              0.1049  Tot=              0.1680
 Quadrupole moment (field-independent basis, Debye-Ang):
   XX=            -62.1762   YY=            -62.3169   ZZ=            -66.3130
   XY=              1.0017   XZ=             -1.2323   YZ=              0.1184
 Traceless Quadrupole moment (field-independent basis, Debye-Ang):
   XX=              1.4259   YY=              1.2851   ZZ=             -2.7110
   XY=              1.0017   XZ=             -1.2323   YZ=              0.1184
 Octapole moment (field-independent basis, Debye-Ang**2):
  XXX=             -0.1727  YYY=             -0.9377  ZZZ=              1.3821  XYY=             -0.4109
  XXY=              4.7832  XXZ=              1.0253  XZZ=              0.8206  YZZ=              1.4093
  YYZ=             -1.9182  XYZ=              2.4191
 Hexadecapole moment (field-independent basis, Debye-Ang**3):
 XXXX=          -2862.3226 YYYY=           -523.4723 ZZZZ=           -178.3735 XXXY=              6.9657
 XXXZ=             -4.6092 YYYX=             -8.4247 YYYZ=              1.2402 ZZZX=             -3.2947
 ZZZY=              0.2639 XXYY=           -560.7524 XXZZ=           -522.0815 YYZZ=           -113.4481
 XXYZ=              1.5048 YYXZ=             -3.0149 ZZXY=              4.0841
 N-N= 5.126735447803D+02 E-N=-1.930434426642D+03  KE= 3.881380386271D+02
 No NMR shielding tensors so no spin-rotation constants.
 Leave Link  601 at Mon Jul 19 20:38:58 2021, MaxMem=   524288000 cpu:               0.8 elap:               0.2
 (Enter /opt/gaussian/g16_legacy/l9999.exe)
 1\1\GINC-TRUENO91\FOpt\RM062X\6-31G(d,p)\C10H18\JRAMOS\19-Jul-2021\0\\
 #p opt=loose m062x/6-31g(d,p)\\Conformer number 005. Energy MM = 25.43
 0 kcal/mol\\0,1\C,2.1750159856,1.2988516545,-8.9154103279\H,1.88458504
 95,0.2740599083,-9.1720612335\H,1.9726632383,1.9163191088,-9.801898752
 \C,3.6466006739,1.3510925453,-8.5817372515\C,4.190804075,2.7275690381,
 -8.2946780545\H,5.2797499094,2.769005055,-8.3317037788\H,3.8011936745,
 3.4481153604,-9.0223308009\H,3.8775741545,3.0767843496,-7.3042043475\C
 ,4.369037844,0.2270428463,-8.5342165687\H,3.8510876793,-0.7052194485,-
 8.7609606313\C,5.8237898297,0.0774098956,-8.199262936\H,6.3084856792,1
 .0287710671,-7.9759156544\H,5.9522645207,-0.5722858319,-7.3267779748\H
 ,6.3671825927,-0.3936614042,-9.0253845795\C,-2.4216120221,0.6501539817
 ,-8.3695584179\H,-2.7068642262,1.6157035494,-8.7927452688\H,-2.6220999
 73,-0.1267040161,-9.1166671786\H,-3.0768027528,0.4413173929,-7.5156715
 634\C,-0.9757569746,0.6302314162,-7.9508311644\C,-0.5130883347,-0.6719
 957006,-7.3528677215\H,0.5436989561,-0.6659276413,-7.0817028397\H,-1.0
 973185018,-0.9145654203,-6.457591522\H,-0.6738530463,-1.4912128848,-8.
 063264849\C,-0.187826639,1.6974457887,-8.1151650417\H,-0.6236706044,2.
 5791410341,-8.5847845567\C,1.2733800049,1.7896432786,-7.7650124418\H,1
 .520529595,2.8301068661,-7.5273035401\H,1.5033496124,1.205308211,-6.86
 7491003\\Version=EM64L-G16RevA.03\State=1-A\HF=-391.689726\RMSD=7.279e
 -09\RMSF=1.636e-05\Dipole=-0.0145933,-0.0421326,0.0487774\Quadrupole=1
 .0118182,0.9970791,-2.0088973,0.8501371,0.6659628,-0.5082225\PG=C01 [X
 (C10H18)]\\@


 PENOTUS DIED A HUNDRED YEARS OLD WANTING BUT TWO...
 AND HE USED TO SAY BEFORE HE DIED, HAVING SPENT HIS
 WHOLE LIFE IN VAINLY SEARCHING AFTER THE PHILOSOPHER'S
 STONE, THAT IF HE HAD A MORTAL ENEMY HE DID NOT DARE
 TO ENCOUNTER OPENLY, HE WOULD ADVISE HIM ABOVE ALL
 THINGS TO GIVE HIMSELF UP TO THE STUDY AND PRACTICE
 OF ALCHEMY.  --  NICOLAS LEMERY, M.D.
 "A COURSE OF CHYMISTRY", WALTER KETTILBY, LONDON, 1686
 Job cpu time:       0 days  1 hours  8 minutes 33.3 seconds.
 Elapsed time:       0 days  0 hours 18 minutes  6.5 seconds.
 File lengths (MBytes):  RWF=     33 Int=      0 D2E=      0 Chk=      6 Scr=      1
 Normal termination of Gaussian 16 at Mon Jul 19 20:38:58 2021.
