 Entering Gaussian System, Link 0=/opt/gaussian/g16_legacy/g16
 Input=IsoP_pybabel_01_013_gaussian.com
 Output=IsoP_pybabel_01_013_gaussian.log
 Initial command:
 /opt/gaussian/g16_legacy/l1.exe "/scratch-local/jramos/2644947/Gau-18033.inp" -scrdir="/scratch-local/jramos/2644947/"
 Entering Link 1 = /opt/gaussian/g16_legacy/l1.exe PID=     18034.
  
 Copyright (c) 1988,1990,1992,1993,1995,1998,2003,2009,2016,
            Gaussian, Inc.  All Rights Reserved.
  
 This is part of the Gaussian(R) 16 program.  It is based on
 the Gaussian(R) 09 system (copyright 2009, Gaussian, Inc.),
 the Gaussian(R) 03 system (copyright 2003, Gaussian, Inc.),
 the Gaussian(R) 98 system (copyright 1998, Gaussian, Inc.),
 the Gaussian(R) 94 system (copyright 1995, Gaussian, Inc.),
 the Gaussian 92(TM) system (copyright 1992, Gaussian, Inc.),
 the Gaussian 90(TM) system (copyright 1990, Gaussian, Inc.),
 the Gaussian 88(TM) system (copyright 1988, Gaussian, Inc.),
 the Gaussian 86(TM) system (copyright 1986, Carnegie Mellon
 University), and the Gaussian 82(TM) system (copyright 1983,
 Carnegie Mellon University). Gaussian is a federally registered
 trademark of Gaussian, Inc.
  
 This software contains proprietary and confidential information,
 including trade secrets, belonging to Gaussian, Inc.
  
 This software is provided under written license and may be
 used, copied, transmitted, or stored only in accord with that
 written license.
  
 The following legend is applicable only to US Government
 contracts under FAR:
  
                    RESTRICTED RIGHTS LEGEND
  
 Use, reproduction and disclosure by the US Government is
 subject to restrictions as set forth in subparagraphs (a)
 and (c) of the Commercial Computer Software - Restricted
 Rights clause in FAR 52.227-19.
  
 Gaussian, Inc.
 340 Quinnipiac St., Bldg. 40, Wallingford CT 06492
  
  
 ---------------------------------------------------------------
 Warning -- This program may not be used in any manner that
 competes with the business of Gaussian, Inc. or will provide
 assistance to any competitor of Gaussian, Inc.  The licensee
 of this program is prohibited from giving any competitor of
 Gaussian, Inc. access to this program.  By using this program,
 the user acknowledges that Gaussian, Inc. is engaged in the
 business of creating and licensing software in the field of
 computational chemistry and represents and warrants to the
 licensee that it is not a competitor of Gaussian, Inc. and that
 it will not use this program in any manner prohibited above.
 ---------------------------------------------------------------
  

 Cite this work as:
 Gaussian 16, Revision A.03,
 M. J. Frisch, G. W. Trucks, H. B. Schlegel, G. E. Scuseria, 
 M. A. Robb, J. R. Cheeseman, G. Scalmani, V. Barone, 
 G. A. Petersson, H. Nakatsuji, X. Li, M. Caricato, A. V. Marenich, 
 J. Bloino, B. G. Janesko, R. Gomperts, B. Mennucci, H. P. Hratchian, 
 J. V. Ortiz, A. F. Izmaylov, J. L. Sonnenberg, D. Williams-Young, 
 F. Ding, F. Lipparini, F. Egidi, J. Goings, B. Peng, A. Petrone, 
 T. Henderson, D. Ranasinghe, V. G. Zakrzewski, J. Gao, N. Rega, 
 G. Zheng, W. Liang, M. Hada, M. Ehara, K. Toyota, R. Fukuda, 
 J. Hasegawa, M. Ishida, T. Nakajima, Y. Honda, O. Kitao, H. Nakai, 
 T. Vreven, K. Throssell, J. A. Montgomery, Jr., J. E. Peralta, 
 F. Ogliaro, M. J. Bearpark, J. J. Heyd, E. N. Brothers, K. N. Kudin, 
 V. N. Staroverov, T. A. Keith, R. Kobayashi, J. Normand, 
 K. Raghavachari, A. P. Rendell, J. C. Burant, S. S. Iyengar, 
 J. Tomasi, M. Cossi, J. M. Millam, M. Klene, C. Adamo, R. Cammi, 
 J. W. Ochterski, R. L. Martin, K. Morokuma, O. Farkas, 
 J. B. Foresman, and D. J. Fox, Gaussian, Inc., Wallingford CT, 2016.
 
 ******************************************
 Gaussian 16:  EM64L-G16RevA.03 25-Dec-2016
                19-Jul-2021 
 ******************************************
 %chk=IsoP_pybabel_01_013_gaussian.chk
 %nproc=4
 Will use up to    4 processors via shared memory.
 %mem=4000Mb
 -----------------------------
 #p opt=loose m062x/6-31g(d,p)
 -----------------------------
 1/7=-1,18=20,19=15,26=3,38=1/1,3;
 2/9=110,12=2,17=6,18=5,40=1/2;
 3/5=1,6=6,7=101,11=2,25=1,30=1,71=1,74=-55/1,2,3;
 4//1;
 5/5=2,38=5/2;
 6/7=2,8=2,9=2,10=2,28=1/1;
 7//1,2,3,16;
 1/7=-1,18=20,19=15,26=3/3(2);
 2/9=110/2;
 99//99;
 2/9=110/2;
 3/5=1,6=6,7=101,11=2,25=1,30=1,71=1,74=-55/1,2,3;
 4/5=5,16=3,69=1/1;
 5/5=2,38=5/2;
 7//1,2,3,16;
 1/7=-1,18=20,19=15,26=3/3(-5);
 2/9=110/2;
 6/7=2,8=2,9=2,10=2,19=2,28=1/1;
 99/9=1/99;
 Leave Link    1 at Mon Jul 19 21:07:05 2021, MaxMem=   524288000 cpu:               0.3 elap:               0.1
 (Enter /opt/gaussian/g16_legacy/l101.exe)
 -------------------------------------------------
 Conformer number 013. Energy MM = 27.094 kcal/mol
 -------------------------------------------------
 Symbolic Z-matrix:
 Charge =  0 Multiplicity = 1
 C                     2.1728    1.1747   -8.953 
 H                     1.8987    0.151    -9.2399 
 H                     2.0179    1.7765   -9.8582 
 C                     3.6427    1.2179   -8.5732 
 C                     4.2136   -0.0436   -7.9811 
 H                     4.9356    0.1692   -7.1871 
 H                     3.4366   -0.6684   -7.532 
 H                     4.7007   -0.6369   -8.7614 
 C                     4.3805    2.3225   -8.8051 
 H                     3.8933    3.1912   -9.2483 
 C                     5.8404    2.5069   -8.5309 
 H                     6.3216    1.6183   -8.1168 
 H                     6.3585    2.7621   -9.4603 
 H                     5.9817    3.3298   -7.8241 
 C                     1.4737    0.5657   -4.1279 
 H                     1.6955   -0.4713   -4.4042 
 H                     2.3201    0.9353   -3.5395 
 H                     0.5821    0.5628   -3.494 
 C                     1.2631    1.4436   -5.3336 
 C                     1.0555    2.9      -5.0288 
 H                     0.4567    3.4006   -5.795 
 H                     0.5108    3.0221   -4.0856 
 H                     2.0182    3.4136   -4.9384 
 C                     1.2672    0.9237   -6.5752 
 H                     1.3614   -0.1535   -6.6868 
 C                     1.2056    1.6932   -7.8715 
 H                     0.1833    1.6205   -8.2615 
 H                     1.4099    2.7586   -7.7092 
 
 ITRead=  0  0  0  0  0  0  0  0  0  0  0  0  0  0  0  0  0  0  0  0
 ITRead=  0  0  0  0  0  0  0  0
 MicOpt= -1 -1 -1 -1 -1 -1 -1 -1 -1 -1 -1 -1 -1 -1 -1 -1 -1 -1 -1 -1
 MicOpt= -1 -1 -1 -1 -1 -1 -1 -1
 NAtoms=     28 NQM=       28 NQMF=       0 NMMI=      0 NMMIF=      0
                NMic=       0 NMicF=      0.
                    Isotopes and Nuclear Properties:
 (Nuclear quadrupole moments (NQMom) in fm**2, nuclear magnetic moments (NMagM)
  in nuclear magnetons)

  Atom         1           2           3           4           5           6           7           8           9          10
 IAtWgt=          12           1           1          12          12           1           1           1          12           1
 AtmWgt=  12.0000000   1.0078250   1.0078250  12.0000000  12.0000000   1.0078250   1.0078250   1.0078250  12.0000000   1.0078250
 NucSpn=           0           1           1           0           0           1           1           1           0           1
 AtZEff=  -0.0000000  -0.0000000  -0.0000000  -0.0000000  -0.0000000  -0.0000000  -0.0000000  -0.0000000  -0.0000000  -0.0000000
 NQMom=    0.0000000   0.0000000   0.0000000   0.0000000   0.0000000   0.0000000   0.0000000   0.0000000   0.0000000   0.0000000
 NMagM=    0.0000000   2.7928460   2.7928460   0.0000000   0.0000000   2.7928460   2.7928460   2.7928460   0.0000000   2.7928460
 AtZNuc=   6.0000000   1.0000000   1.0000000   6.0000000   6.0000000   1.0000000   1.0000000   1.0000000   6.0000000   1.0000000

  Atom        11          12          13          14          15          16          17          18          19          20
 IAtWgt=          12           1           1           1          12           1           1           1          12          12
 AtmWgt=  12.0000000   1.0078250   1.0078250   1.0078250  12.0000000   1.0078250   1.0078250   1.0078250  12.0000000  12.0000000
 NucSpn=           0           1           1           1           0           1           1           1           0           0
 AtZEff=  -0.0000000  -0.0000000  -0.0000000  -0.0000000  -0.0000000  -0.0000000  -0.0000000  -0.0000000  -0.0000000  -0.0000000
 NQMom=    0.0000000   0.0000000   0.0000000   0.0000000   0.0000000   0.0000000   0.0000000   0.0000000   0.0000000   0.0000000
 NMagM=    0.0000000   2.7928460   2.7928460   2.7928460   0.0000000   2.7928460   2.7928460   2.7928460   0.0000000   0.0000000
 AtZNuc=   6.0000000   1.0000000   1.0000000   1.0000000   6.0000000   1.0000000   1.0000000   1.0000000   6.0000000   6.0000000

  Atom        21          22          23          24          25          26          27          28
 IAtWgt=           1           1           1          12           1          12           1           1
 AtmWgt=   1.0078250   1.0078250   1.0078250  12.0000000   1.0078250  12.0000000   1.0078250   1.0078250
 NucSpn=           1           1           1           0           1           0           1           1
 AtZEff=  -0.0000000  -0.0000000  -0.0000000  -0.0000000  -0.0000000  -0.0000000  -0.0000000  -0.0000000
 NQMom=    0.0000000   0.0000000   0.0000000   0.0000000   0.0000000   0.0000000   0.0000000   0.0000000
 NMagM=    2.7928460   2.7928460   2.7928460   0.0000000   2.7928460   0.0000000   2.7928460   2.7928460
 AtZNuc=   1.0000000   1.0000000   1.0000000   6.0000000   1.0000000   6.0000000   1.0000000   1.0000000
 Leave Link  101 at Mon Jul 19 21:07:05 2021, MaxMem=   524288000 cpu:               1.0 elap:               0.3
 (Enter /opt/gaussian/g16_legacy/l103.exe)

 GradGradGradGradGradGradGradGradGradGradGradGradGradGradGradGradGradGrad
 Berny optimization.
 Initialization pass.
                           ----------------------------
                           !    Initial Parameters    !
                           ! (Angstroms and Degrees)  !
 --------------------------                            --------------------------
 ! Name  Definition              Value          Derivative Info.                !
 --------------------------------------------------------------------------------
 ! R1    R(1,2)                  1.0979         estimate D2E/DX2                !
 ! R2    R(1,3)                  1.098          estimate D2E/DX2                !
 ! R3    R(1,4)                  1.5188         estimate D2E/DX2                !
 ! R4    R(1,26)                 1.5408         estimate D2E/DX2                !
 ! R5    R(4,5)                  1.506          estimate D2E/DX2                !
 ! R6    R(4,9)                  1.3484         estimate D2E/DX2                !
 ! R7    R(5,6)                  1.0941         estimate D2E/DX2                !
 ! R8    R(5,7)                  1.0935         estimate D2E/DX2                !
 ! R9    R(5,8)                  1.0946         estimate D2E/DX2                !
 ! R10   R(9,10)                 1.0902         estimate D2E/DX2                !
 ! R11   R(9,11)                 1.4968         estimate D2E/DX2                !
 ! R12   R(11,12)                1.0921         estimate D2E/DX2                !
 ! R13   R(11,13)                1.0942         estimate D2E/DX2                !
 ! R14   R(11,14)                1.0939         estimate D2E/DX2                !
 ! R15   R(15,16)                1.0959         estimate D2E/DX2                !
 ! R16   R(15,17)                1.0951         estimate D2E/DX2                !
 ! R17   R(15,18)                1.094          estimate D2E/DX2                !
 ! R18   R(15,19)                1.5062         estimate D2E/DX2                !
 ! R19   R(19,20)                1.5024         estimate D2E/DX2                !
 ! R20   R(19,24)                1.3461         estimate D2E/DX2                !
 ! R21   R(20,21)                1.0937         estimate D2E/DX2                !
 ! R22   R(20,22)                1.096          estimate D2E/DX2                !
 ! R23   R(20,23)                1.0949         estimate D2E/DX2                !
 ! R24   R(24,25)                1.0871         estimate D2E/DX2                !
 ! R25   R(24,26)                1.5087         estimate D2E/DX2                !
 ! R26   R(26,27)                1.0966         estimate D2E/DX2                !
 ! R27   R(26,28)                1.0969         estimate D2E/DX2                !
 ! A1    A(2,1,3)              105.0937         estimate D2E/DX2                !
 ! A2    A(2,1,4)              109.4806         estimate D2E/DX2                !
 ! A3    A(2,1,26)             109.9061         estimate D2E/DX2                !
 ! A4    A(3,1,4)              109.0934         estimate D2E/DX2                !
 ! A5    A(3,1,26)             107.799          estimate D2E/DX2                !
 ! A6    A(4,1,26)             114.9883         estimate D2E/DX2                !
 ! A7    A(1,4,5)              116.1924         estimate D2E/DX2                !
 ! A8    A(1,4,9)              120.6529         estimate D2E/DX2                !
 ! A9    A(5,4,9)              123.1201         estimate D2E/DX2                !
 ! A10   A(4,5,6)              111.8747         estimate D2E/DX2                !
 ! A11   A(4,5,7)              111.7603         estimate D2E/DX2                !
 ! A12   A(4,5,8)              110.027          estimate D2E/DX2                !
 ! A13   A(6,5,7)              106.3787         estimate D2E/DX2                !
 ! A14   A(6,5,8)              109.2144         estimate D2E/DX2                !
 ! A15   A(7,5,8)              107.4137         estimate D2E/DX2                !
 ! A16   A(4,9,10)             118.5651         estimate D2E/DX2                !
 ! A17   A(4,9,11)             127.09           estimate D2E/DX2                !
 ! A18   A(10,9,11)            114.3425         estimate D2E/DX2                !
 ! A19   A(9,11,12)            113.5143         estimate D2E/DX2                !
 ! A20   A(9,11,13)            109.569          estimate D2E/DX2                !
 ! A21   A(9,11,14)            109.6948         estimate D2E/DX2                !
 ! A22   A(12,11,13)           107.6502         estimate D2E/DX2                !
 ! A23   A(12,11,14)           108.0694         estimate D2E/DX2                !
 ! A24   A(13,11,14)           108.1908         estimate D2E/DX2                !
 ! A25   A(16,15,17)           107.3626         estimate D2E/DX2                !
 ! A26   A(16,15,18)           107.9715         estimate D2E/DX2                !
 ! A27   A(16,15,19)           112.2106         estimate D2E/DX2                !
 ! A28   A(17,15,18)           108.6314         estimate D2E/DX2                !
 ! A29   A(17,15,19)           109.9654         estimate D2E/DX2                !
 ! A30   A(18,15,19)           110.5741         estimate D2E/DX2                !
 ! A31   A(15,19,20)           114.9565         estimate D2E/DX2                !
 ! A32   A(15,19,24)           120.8509         estimate D2E/DX2                !
 ! A33   A(20,19,24)           124.1926         estimate D2E/DX2                !
 ! A34   A(19,20,21)           112.162          estimate D2E/DX2                !
 ! A35   A(19,20,22)           110.5647         estimate D2E/DX2                !
 ! A36   A(19,20,23)           110.4869         estimate D2E/DX2                !
 ! A37   A(21,20,22)           106.2476         estimate D2E/DX2                !
 ! A38   A(21,20,23)           108.9372         estimate D2E/DX2                !
 ! A39   A(22,20,23)           108.2808         estimate D2E/DX2                !
 ! A40   A(19,24,25)           118.535          estimate D2E/DX2                !
 ! A41   A(19,24,26)           126.5409         estimate D2E/DX2                !
 ! A42   A(25,24,26)           114.8809         estimate D2E/DX2                !
 ! A43   A(1,26,24)            113.9426         estimate D2E/DX2                !
 ! A44   A(1,26,27)            108.2563         estimate D2E/DX2                !
 ! A45   A(1,26,28)            108.2885         estimate D2E/DX2                !
 ! A46   A(24,26,27)           108.0485         estimate D2E/DX2                !
 ! A47   A(24,26,28)           111.1402         estimate D2E/DX2                !
 ! A48   A(27,26,28)           106.8973         estimate D2E/DX2                !
 ! D1    D(2,1,4,5)            -30.2357         estimate D2E/DX2                !
 ! D2    D(2,1,4,9)            147.6885         estimate D2E/DX2                !
 ! D3    D(3,1,4,5)           -144.7385         estimate D2E/DX2                !
 ! D4    D(3,1,4,9)             33.1857         estimate D2E/DX2                !
 ! D5    D(26,1,4,5)            94.0495         estimate D2E/DX2                !
 ! D6    D(26,1,4,9)           -88.0263         estimate D2E/DX2                !
 ! D7    D(2,1,26,24)           63.8291         estimate D2E/DX2                !
 ! D8    D(2,1,26,27)          -56.3982         estimate D2E/DX2                !
 ! D9    D(2,1,26,28)         -171.9525         estimate D2E/DX2                !
 ! D10   D(3,1,26,24)          177.8533         estimate D2E/DX2                !
 ! D11   D(3,1,26,27)           57.626          estimate D2E/DX2                !
 ! D12   D(3,1,26,28)          -57.9283         estimate D2E/DX2                !
 ! D13   D(4,1,26,24)          -60.2318         estimate D2E/DX2                !
 ! D14   D(4,1,26,27)          179.5409         estimate D2E/DX2                !
 ! D15   D(4,1,26,28)           63.9866         estimate D2E/DX2                !
 ! D16   D(1,4,5,6)           -142.5682         estimate D2E/DX2                !
 ! D17   D(1,4,5,7)            -23.396          estimate D2E/DX2                !
 ! D18   D(1,4,5,8)             95.844          estimate D2E/DX2                !
 ! D19   D(9,4,5,6)             39.564          estimate D2E/DX2                !
 ! D20   D(9,4,5,7)            158.7362         estimate D2E/DX2                !
 ! D21   D(9,4,5,8)            -82.0238         estimate D2E/DX2                !
 ! D22   D(1,4,9,10)             1.4721         estimate D2E/DX2                !
 ! D23   D(1,4,9,11)          -177.9269         estimate D2E/DX2                !
 ! D24   D(5,4,9,10)           179.248          estimate D2E/DX2                !
 ! D25   D(5,4,9,11)            -0.1509         estimate D2E/DX2                !
 ! D26   D(4,9,11,12)            1.2612         estimate D2E/DX2                !
 ! D27   D(4,9,11,13)          121.6325         estimate D2E/DX2                !
 ! D28   D(4,9,11,14)         -119.7377         estimate D2E/DX2                !
 ! D29   D(10,9,11,12)        -178.1594         estimate D2E/DX2                !
 ! D30   D(10,9,11,13)         -57.7881         estimate D2E/DX2                !
 ! D31   D(10,9,11,14)          60.8416         estimate D2E/DX2                !
 ! D32   D(16,15,19,20)       -175.6719         estimate D2E/DX2                !
 ! D33   D(16,15,19,24)          4.3444         estimate D2E/DX2                !
 ! D34   D(17,15,19,20)        -56.2472         estimate D2E/DX2                !
 ! D35   D(17,15,19,24)        123.769          estimate D2E/DX2                !
 ! D36   D(18,15,19,20)         63.7149         estimate D2E/DX2                !
 ! D37   D(18,15,19,24)       -116.2688         estimate D2E/DX2                !
 ! D38   D(15,19,20,21)       -152.5208         estimate D2E/DX2                !
 ! D39   D(15,19,20,22)        -34.1298         estimate D2E/DX2                !
 ! D40   D(15,19,20,23)         85.7259         estimate D2E/DX2                !
 ! D41   D(24,19,20,21)         27.4624         estimate D2E/DX2                !
 ! D42   D(24,19,20,22)        145.8533         estimate D2E/DX2                !
 ! D43   D(24,19,20,23)        -94.291          estimate D2E/DX2                !
 ! D44   D(15,19,24,25)          3.9133         estimate D2E/DX2                !
 ! D45   D(15,19,24,26)       -173.5636         estimate D2E/DX2                !
 ! D46   D(20,19,24,25)       -176.0688         estimate D2E/DX2                !
 ! D47   D(20,19,24,26)          6.4542         estimate D2E/DX2                !
 ! D48   D(19,24,26,1)         137.0782         estimate D2E/DX2                !
 ! D49   D(19,24,26,27)       -102.5779         estimate D2E/DX2                !
 ! D50   D(19,24,26,28)         14.4071         estimate D2E/DX2                !
 ! D51   D(25,24,26,1)         -40.4786         estimate D2E/DX2                !
 ! D52   D(25,24,26,27)         79.8654         estimate D2E/DX2                !
 ! D53   D(25,24,26,28)       -163.1496         estimate D2E/DX2                !
 --------------------------------------------------------------------------------
 Trust Radius=3.00D-01 FncErr=1.00D-07 GrdErr=1.00D-06 EigMax=2.50D+02 EigMin=1.00D-04
 Number of steps in this run=    138 maximum allowed number of steps=    168.
 GradGradGradGradGradGradGradGradGradGradGradGradGradGradGradGradGradGrad

 Leave Link  103 at Mon Jul 19 21:07:06 2021, MaxMem=   524288000 cpu:               0.1 elap:               0.1
 (Enter /opt/gaussian/g16_legacy/l202.exe)
                          Input orientation:                          
 ---------------------------------------------------------------------
 Center     Atomic      Atomic             Coordinates (Angstroms)
 Number     Number       Type             X           Y           Z
 ---------------------------------------------------------------------
      1          6           0        2.172800    1.174700   -8.953000
      2          1           0        1.898700    0.151000   -9.239900
      3          1           0        2.017900    1.776500   -9.858200
      4          6           0        3.642700    1.217900   -8.573200
      5          6           0        4.213600   -0.043600   -7.981100
      6          1           0        4.935600    0.169200   -7.187100
      7          1           0        3.436600   -0.668400   -7.532000
      8          1           0        4.700700   -0.636900   -8.761400
      9          6           0        4.380500    2.322500   -8.805100
     10          1           0        3.893300    3.191200   -9.248300
     11          6           0        5.840400    2.506900   -8.530900
     12          1           0        6.321600    1.618300   -8.116800
     13          1           0        6.358500    2.762100   -9.460300
     14          1           0        5.981700    3.329800   -7.824100
     15          6           0        1.473700    0.565700   -4.127900
     16          1           0        1.695500   -0.471300   -4.404200
     17          1           0        2.320100    0.935300   -3.539500
     18          1           0        0.582100    0.562800   -3.494000
     19          6           0        1.263100    1.443600   -5.333600
     20          6           0        1.055500    2.900000   -5.028800
     21          1           0        0.456700    3.400600   -5.795000
     22          1           0        0.510800    3.022100   -4.085600
     23          1           0        2.018200    3.413600   -4.938400
     24          6           0        1.267200    0.923700   -6.575200
     25          1           0        1.361400   -0.153500   -6.686800
     26          6           0        1.205600    1.693200   -7.871500
     27          1           0        0.183300    1.620500   -8.261500
     28          1           0        1.409900    2.758600   -7.709200
 ---------------------------------------------------------------------
                    Distance matrix (angstroms):
                    1          2          3          4          5
     1  C    0.000000
     2  H    1.097909   0.000000
     3  H    1.097973   1.743202   0.000000
     4  C    1.518789   2.150419   2.145515   0.000000
     5  C    2.567822   2.642198   3.414289   1.505952   0.000000
     6  H    3.429650   3.665662   4.269796   2.166249   1.094077
     7  H    2.648292   2.439974   3.660799   2.164417   1.093524
     8  H    3.115908   2.949738   3.771589   2.143611   1.094596
     9  C    2.492641   3.326228   2.643674   1.348432   2.511028
    10  H    2.667132   3.636113   2.427031   2.100589   3.488885
    11  C    3.924820   4.646498   4.111778   2.548175   3.074705
    12  H    4.255415   4.793367   4.645356   2.746839   2.687748
    13  H    4.505250   5.172643   4.468841   3.247625   3.828914
    14  H    4.519579   5.364713   4.718264   3.239166   3.811910
    15  C    4.913371   5.146372   5.882051   4.989050   4.767122
    16  H    4.860937   4.879810   5.907848   4.901586   4.395221
    17  H    5.420793   5.769512   6.381607   5.212223   4.926601
    18  H    5.718866   5.909178   6.636086   5.966129   5.804273
    19  C    3.741646   4.163410   4.599190   4.025971   4.233966
    20  C    4.429940   5.099152   5.050898   4.699557   5.230148
    21  H    4.227599   4.950414   4.645927   4.757433   5.545795
    22  H    5.465045   6.061047   6.094734   5.762160   6.187420
    23  H    4.599303   5.400161   5.185029   4.546633   5.101964
    24  C    2.556765   2.845432   3.474033   3.117941   3.404922
    25  H    2.749209   2.626734   3.770102   3.262449   3.134061
    26  C    1.540766   2.175152   2.147963   2.580261   3.475133
    27  H    2.152910   2.461563   2.437118   3.496669   4.369344
    28  H    2.153554   3.062931   2.439751   2.847042   3.973284
                    6          7          8          9         10
     6  H    0.000000
     7  H    1.751437   0.000000
     8  H    1.784207   1.763623   0.000000
     9  C    2.750047   3.384851   2.976993   0.000000
    10  H    3.803606   4.248620   3.942501   1.090151   0.000000
    11  C    2.844170   4.105921   3.351943   1.496829   2.184978
    12  H    2.210255   3.727494   2.851097   2.176585   3.106597
    13  H    3.730310   4.901446   3.845772   2.129558   2.511231
    14  H    3.389615   4.748522   4.272494   2.130928   2.531594
    15  C    4.636881   4.118723   5.773136   5.780314   6.242292
    16  H    4.318914   3.585165   5.295644   5.863656   6.458292
    17  H    4.553321   4.445051   5.950404   5.822037   6.336753
    18  H    5.722488   5.096025   6.793206   6.762556   7.140343
    19  C    4.306601   3.744010   5.281608   4.747837   5.029606
    20  C    5.212552   4.966802   6.303130   5.064541   5.093337
    21  H    5.695650   5.334204   6.566009   5.061542   4.876407
    22  H    6.110417   5.835903   7.266818   6.143102   6.174413
    23  H    4.908565   5.039975   6.182045   4.660722   4.705391
    24  C    3.794845   2.855967   4.359342   4.076976   4.379888
    25  H    3.623443   2.299117   3.960879   4.442154   4.915162
    26  C    4.087038   3.266462   4.293834   3.368622   3.370951
    27  H    5.083794   4.044156   5.074708   4.290081   4.147888
    28  H    4.405467   3.985378   4.844162   3.196192   2.953514
                   11         12         13         14         15
    11  C    0.000000
    12  H    1.092082   0.000000
    13  H    1.094230   1.764832   0.000000
    14  H    1.093936   1.769304   1.772403   0.000000
    15  C    6.497902   6.365644   7.557773   6.451683   0.000000
    16  H    6.563499   6.288929   7.600171   6.672000   1.095859
    17  H    6.306862   6.118020   7.396063   6.123622   1.095085
    18  H    7.536551   7.444879   8.590719   7.453974   1.093978
    19  C    5.683750   5.776257   6.688138   5.659110   1.506245
    20  C    5.942600   6.237813   6.912237   5.680306   2.536823
    21  H    6.104758   6.554724   6.976629   5.886245   3.442408
    22  H    6.959221   7.210175   7.946735   6.633386   2.638724
    23  H    5.323286   5.643100   6.301606   4.903429   3.010635
    24  C    5.219717   5.329724   6.133910   5.438343   2.481952
    25  H    5.526289   5.457816   6.415920   5.896949   2.660419
    26  C    4.751662   5.122425   5.497200   5.048944   3.918887
    27  H    5.732457   6.140006   6.393236   6.060897   4.456948
    28  H    4.513078   5.058776   5.249286   4.608777   4.199832
                   16         17         18         19         20
    16  H    0.000000
    17  H    1.765320   0.000000
    18  H    1.771295   1.778052   0.000000
    19  C    2.172003   2.143458   2.150279   0.000000
    20  C    3.487892   2.770789   2.835881   1.502365   0.000000
    21  H    4.296575   3.825865   3.655603   2.166338   1.093720
    22  H    3.702548   2.815409   2.530461   2.148283   1.096008
    23  H    3.934711   2.861824   3.503675   2.146453   1.094874
    24  C    2.615857   3.213130   3.177012   1.346062   2.518319
    25  H    2.328708   3.465557   3.363683   2.095601   3.488037
    26  C    4.116702   4.536821   4.563887   2.550793   3.091899
    27  H    4.641243   5.228068   4.899676   3.125678   3.584439
    28  H    4.629994   4.641044   4.824386   2.719237   2.707423
                   21         22         23         24         25
    21  H    0.000000
    22  H    1.751638   0.000000
    23  H    1.781071   1.775611   0.000000
    24  C    2.720415   3.342683   3.072900   0.000000
    25  H    3.774310   4.192159   4.026474   1.087055   0.000000
    26  C    2.790684   4.072071   3.496165   1.508747   2.199566
    27  H    3.054034   4.416999   4.198221   2.122258   2.648523
    28  H    2.232693   3.742765   2.911423   2.161753   3.086743
                   26         27         28
    26  C    0.000000
    27  H    1.096578   0.000000
    28  H    1.096885   1.762060   0.000000
 Stoichiometry    C10H18
 Framework group  C1[X(C10H18)]
 Deg. of freedom    78
 Full point group                 C1      NOp   1
 Largest Abelian subgroup         C1      NOp   1
 Largest concise Abelian subgroup C1      NOp   1
                         Standard orientation:                         
 ---------------------------------------------------------------------
 Center     Atomic      Atomic             Coordinates (Angstroms)
 Number     Number       Type             X           Y           Z
 ---------------------------------------------------------------------
      1          6           0       -0.944058    1.656849    0.062335
      2          1           0       -0.918928    2.219268    1.004916
      3          1           0       -1.514756    2.287665   -0.631869
      4          6           0       -1.688363    0.349678    0.272178
      5          6           0       -1.603740   -0.249439    1.651232
      6          1           0       -1.539203   -1.341110    1.618143
      7          1           0       -0.716624    0.095727    2.189451
      8          1           0       -2.478677    0.041995    2.240884
      9          6           0       -2.411650   -0.197448   -0.725707
     10          1           0       -2.430457    0.305977   -1.692474
     11          6           0       -3.231061   -1.448627   -0.665573
     12          1           0       -3.228266   -1.924477    0.317382
     13          1           0       -4.270194   -1.218773   -0.919954
     14          1           0       -2.853196   -2.172148   -1.393880
     15          6           0        3.044473   -1.063370    0.975153
     16          1           0        2.734891   -0.856500    2.005818
     17          1           0        2.868201   -2.127921    0.788414
     18          1           0        4.118290   -0.868409    0.899674
     19          6           0        2.284109   -0.232904   -0.025320
     20          6           0        2.587014   -0.539661   -1.464504
     21          1           0        2.427715    0.326310   -2.113304
     22          1           0        3.638827   -0.823409   -1.584540
     23          1           0        1.965188   -1.368253   -1.818790
     24          6           0        1.407428    0.704665    0.379990
     25          1           0        1.306529    0.895254    1.445440
     26          6           0        0.483193    1.510251   -0.499292
     27          1           0        0.911856    2.513021   -0.614108
     28          1           0        0.414736    1.075819   -1.504150
 ---------------------------------------------------------------------
 Rotational constants (GHZ):           1.8142883           0.6371515           0.6187829
 Leave Link  202 at Mon Jul 19 21:07:06 2021, MaxMem=   524288000 cpu:               0.8 elap:               0.4
 (Enter /opt/gaussian/g16_legacy/l301.exe)
 Standard basis: 6-31G(d,p) (6D, 7F)
 Ernie: Thresh=  0.10000D-02 Tol=  0.10000D-05 Strict=F.
 There are   240 symmetry adapted cartesian basis functions of A   symmetry.
 There are   240 symmetry adapted basis functions of A   symmetry.
   240 basis functions,   406 primitive gaussians,   240 cartesian basis functions
    39 alpha electrons       39 beta electrons
       nuclear repulsion energy       524.1257094621 Hartrees.
 IExCor= 4336 DFT=T Ex+Corr=M062X ExCW=0 ScaHFX=  0.540000
 ScaDFX=  1.000000  1.000000  1.000000  1.000000 ScalE2=  1.000000  1.000000
 IRadAn=      5 IRanWt=     -1 IRanGd=            0 ICorTp=0 IEmpDi=  4
 NAtoms=   28 NActive=   28 NUniq=   28 SFac= 1.00D+00 NAtFMM=   60 NAOKFM=F Big=F
 Integral buffers will be    131072 words long.
 Raffenetti 2 integral format.
 Two-electron integral symmetry is turned on.
 Leave Link  301 at Mon Jul 19 21:07:07 2021, MaxMem=   524288000 cpu:               0.7 elap:               0.3
 (Enter /opt/gaussian/g16_legacy/l302.exe)
 NPDir=0 NMtPBC=     1 NCelOv=     1 NCel=       1 NClECP=     1 NCelD=      1
         NCelK=      1 NCelE2=     1 NClLst=     1 CellRange=     0.0.
 One-electron integrals computed using PRISM.
 One-electron integral symmetry used in STVInt
 NBasis=   240 RedAO= T EigKep=  2.05D-03  NBF=   240
 NBsUse=   240 1.00D-06 EigRej= -1.00D+00 NBFU=   240
 Precomputing XC quadrature grid using
 IXCGrd= 4 IRadAn=           5 IRanWt=          -1 IRanGd=           0 AccXCQ= 0.00D+00.
 Generated NRdTot=       0 NPtTot=           0 NUsed=           0 NTot=          32
 NSgBfM=   240   240   240   240   240 MxSgAt=    28 MxSgA2=    28.
 Leave Link  302 at Mon Jul 19 21:07:08 2021, MaxMem=   524288000 cpu:               3.5 elap:               1.1
 (Enter /opt/gaussian/g16_legacy/l303.exe)
 DipDrv:  MaxL=1.
 Leave Link  303 at Mon Jul 19 21:07:08 2021, MaxMem=   524288000 cpu:               0.2 elap:               0.1
 (Enter /opt/gaussian/g16_legacy/l401.exe)
 ExpMin= 1.61D-01 ExpMax= 3.05D+03 ExpMxC= 4.57D+02 IAcc=3 IRadAn=         5 AccDes= 0.00D+00
 Harris functional with IExCor= 1009 and IRadAn=       5 diagonalized for initial guess.
 HarFok:  IExCor= 1009 AccDes= 0.00D+00 IRadAn=         5 IDoV= 1 UseB2=F ITyADJ=14
 ICtDFT=  3500011 ScaDFX=  1.000000  1.000000  1.000000  1.000000
 FoFCou: FMM=F IPFlag=           0 FMFlag=      100000 FMFlg1=           0
         NFxFlg=           0 DoJE=T BraDBF=F KetDBF=T FulRan=T
         wScrn=  0.000000 ICntrl=       500 IOpCl=  0 I1Cent=   200000004 NGrid=           0
         NMat0=    1 NMatS0=      1 NMatT0=    0 NMatD0=    1 NMtDS0=    0 NMtDT0=    0
 Petite list used in FoFCou.
 Harris En= -391.652197194499    
 JPrj=0 DoOrth=F DoCkMO=F.
 Leave Link  401 at Mon Jul 19 21:07:13 2021, MaxMem=   524288000 cpu:              19.4 elap:               5.0
 (Enter /opt/gaussian/g16_legacy/l502.exe)
 Keep R1 ints in memory in canonical form, NReq=425198025.
 FoFCou: FMM=F IPFlag=           0 FMFlag=           0 FMFlg1=           0
         NFxFlg=           0 DoJE=F BraDBF=F KetDBF=F FulRan=T
         wScrn=  0.000000 ICntrl=       600 IOpCl=  0 I1Cent=           0 NGrid=           0
         NMat0=    1 NMatS0=  28920 NMatT0=    0 NMatD0=    1 NMtDS0=    0 NMtDT0=    0
 Symmetry not used in FoFCou.
 Two-electron integral symmetry not used.
 Closed shell SCF:
 Using DIIS extrapolation, IDIIS=  1040.
 NGot=   524288000 LenX=   105970886 LenY=   105912845
 Requested convergence on RMS density matrix=1.00D-08 within 128 cycles.
 Requested convergence on MAX density matrix=1.00D-06.
 Requested convergence on             energy=1.00D-06.
 No special actions if energy rises.
 Integral accuracy reduced to 1.0D-05 until final iterations.

 Cycle   1  Pass 0  IDiag  1:
 E= -391.292129060269    
 DIIS: error= 2.84D-02 at cycle   1 NSaved=   1.
 NSaved= 1 IEnMin= 1 EnMin= -391.292129060269     IErMin= 1 ErrMin= 2.84D-02
 ErrMax= 2.84D-02  0.00D+00 EMaxC= 1.00D-01 BMatC= 3.72D-01 BMatP= 3.72D-01
 IDIUse=3 WtCom= 7.16D-01 WtEn= 2.84D-01
 Coeff-Com:  0.100D+01
 Coeff-En:   0.100D+01
 Coeff:      0.100D+01
 Gap=     0.341 Goal=   None    Shift=    0.000
 GapD=    0.341 DampG=1.000 DampE=0.500 DampFc=0.5000 IDamp=-1.
 Damping current iteration by 5.00D-01
 RMSDP=4.46D-03 MaxDP=1.15D-01              OVMax= 1.44D-01

 Cycle   2  Pass 0  IDiag  1:
 E= -391.501274320010     Delta-E=       -0.209145259741 Rises=F Damp=T
 DIIS: error= 1.01D-02 at cycle   2 NSaved=   2.
 NSaved= 2 IEnMin= 2 EnMin= -391.501274320010     IErMin= 2 ErrMin= 1.01D-02
 ErrMax= 1.01D-02  0.00D+00 EMaxC= 1.00D-01 BMatC= 2.12D-02 BMatP= 3.72D-01
 IDIUse=3 WtCom= 8.99D-01 WtEn= 1.01D-01
 Coeff-Com: -0.145D+00 0.114D+01
 Coeff-En:   0.000D+00 0.100D+01
 Coeff:     -0.130D+00 0.113D+01
 Gap=     0.348 Goal=   None    Shift=    0.000
 RMSDP=8.96D-04 MaxDP=2.58D-02 DE=-2.09D-01 OVMax= 6.40D-02

 Cycle   3  Pass 0  IDiag  1:
 E= -391.682916358846     Delta-E=       -0.181642038836 Rises=F Damp=F
 DIIS: error= 1.33D-03 at cycle   3 NSaved=   3.
 NSaved= 3 IEnMin= 3 EnMin= -391.682916358846     IErMin= 3 ErrMin= 1.33D-03
 ErrMax= 1.33D-03  0.00D+00 EMaxC= 1.00D-01 BMatC= 9.90D-04 BMatP= 2.12D-02
 IDIUse=3 WtCom= 9.87D-01 WtEn= 1.33D-02
 Coeff-Com: -0.330D-01 0.160D+00 0.873D+00
 Coeff-En:   0.000D+00 0.000D+00 0.100D+01
 Coeff:     -0.326D-01 0.157D+00 0.875D+00
 Gap=     0.336 Goal=   None    Shift=    0.000
 RMSDP=2.36D-04 MaxDP=6.57D-03 DE=-1.82D-01 OVMax= 1.17D-02

 Cycle   4  Pass 0  IDiag  1:
 E= -391.683478015058     Delta-E=       -0.000561656212 Rises=F Damp=F
 DIIS: error= 9.73D-04 at cycle   4 NSaved=   4.
 NSaved= 4 IEnMin= 4 EnMin= -391.683478015058     IErMin= 4 ErrMin= 9.73D-04
 ErrMax= 9.73D-04  0.00D+00 EMaxC= 1.00D-01 BMatC= 4.22D-04 BMatP= 9.90D-04
 IDIUse=3 WtCom= 9.90D-01 WtEn= 9.73D-03
 Coeff-Com: -0.864D-02 0.345D-01 0.405D+00 0.569D+00
 Coeff-En:   0.000D+00 0.000D+00 0.255D+00 0.745D+00
 Coeff:     -0.856D-02 0.341D-01 0.404D+00 0.571D+00
 Gap=     0.336 Goal=   None    Shift=    0.000
 RMSDP=1.07D-04 MaxDP=4.65D-03 DE=-5.62D-04 OVMax= 8.93D-03

 Cycle   5  Pass 0  IDiag  1:
 E= -391.683856522369     Delta-E=       -0.000378507311 Rises=F Damp=F
 DIIS: error= 3.38D-04 at cycle   5 NSaved=   5.
 NSaved= 5 IEnMin= 5 EnMin= -391.683856522369     IErMin= 5 ErrMin= 3.38D-04
 ErrMax= 3.38D-04  0.00D+00 EMaxC= 1.00D-01 BMatC= 4.54D-05 BMatP= 4.22D-04
 IDIUse=3 WtCom= 9.97D-01 WtEn= 3.38D-03
 Coeff-Com: -0.288D-03 0.596D-03 0.115D+00 0.289D+00 0.595D+00
 Coeff-En:   0.000D+00 0.000D+00 0.000D+00 0.134D-01 0.987D+00
 Coeff:     -0.287D-03 0.594D-03 0.115D+00 0.288D+00 0.597D+00
 Gap=     0.336 Goal=   None    Shift=    0.000
 RMSDP=2.89D-05 MaxDP=1.19D-03 DE=-3.79D-04 OVMax= 2.41D-03

 Cycle   6  Pass 0  IDiag  1:
 E= -391.683900716905     Delta-E=       -0.000044194536 Rises=F Damp=F
 DIIS: error= 3.93D-05 at cycle   6 NSaved=   6.
 NSaved= 6 IEnMin= 6 EnMin= -391.683900716905     IErMin= 6 ErrMin= 3.93D-05
 ErrMax= 3.93D-05  0.00D+00 EMaxC= 1.00D-01 BMatC= 1.41D-06 BMatP= 4.54D-05
 IDIUse=1 WtCom= 1.00D+00 WtEn= 0.00D+00
 Coeff-Com:  0.818D-03-0.290D-02 0.878D-02 0.571D-01 0.198D+00 0.738D+00
 Coeff:      0.818D-03-0.290D-02 0.878D-02 0.571D-01 0.198D+00 0.738D+00
 Gap=     0.336 Goal=   None    Shift=    0.000
 RMSDP=6.00D-06 MaxDP=2.53D-04 DE=-4.42D-05 OVMax= 4.09D-04

 Initial convergence to 1.0D-05 achieved.  Increase integral accuracy.
 Cycle   7  Pass 1  IDiag  1:
 E= -391.683870938765     Delta-E=        0.000029778140 Rises=F Damp=F
 DIIS: error= 1.72D-05 at cycle   1 NSaved=   1.
 NSaved= 1 IEnMin= 1 EnMin= -391.683870938765     IErMin= 1 ErrMin= 1.72D-05
 ErrMax= 1.72D-05  0.00D+00 EMaxC= 1.00D-01 BMatC= 2.24D-07 BMatP= 2.24D-07
 IDIUse=1 WtCom= 1.00D+00 WtEn= 0.00D+00
 Coeff-Com:  0.100D+01
 Coeff:      0.100D+01
 Gap=     0.336 Goal=   None    Shift=    0.000
 RMSDP=6.00D-06 MaxDP=2.53D-04 DE= 2.98D-05 OVMax= 2.78D-04

 Cycle   8  Pass 1  IDiag  1:
 E= -391.683870971890     Delta-E=       -0.000000033125 Rises=F Damp=F
 DIIS: error= 2.38D-05 at cycle   2 NSaved=   2.
 NSaved= 2 IEnMin= 2 EnMin= -391.683870971890     IErMin= 1 ErrMin= 1.72D-05
 ErrMax= 2.38D-05  0.00D+00 EMaxC= 1.00D-01 BMatC= 2.14D-07 BMatP= 2.24D-07
 IDIUse=1 WtCom= 1.00D+00 WtEn= 0.00D+00
 Coeff-Com:  0.493D+00 0.507D+00
 Coeff:      0.493D+00 0.507D+00
 Gap=     0.336 Goal=   None    Shift=    0.000
 RMSDP=1.92D-06 MaxDP=1.06D-04 DE=-3.31D-08 OVMax= 1.59D-04

 Cycle   9  Pass 1  IDiag  1:
 E= -391.683871168230     Delta-E=       -0.000000196340 Rises=F Damp=F
 DIIS: error= 5.50D-06 at cycle   3 NSaved=   3.
 NSaved= 3 IEnMin= 3 EnMin= -391.683871168230     IErMin= 3 ErrMin= 5.50D-06
 ErrMax= 5.50D-06  0.00D+00 EMaxC= 1.00D-01 BMatC= 8.19D-09 BMatP= 2.14D-07
 IDIUse=1 WtCom= 1.00D+00 WtEn= 0.00D+00
 Coeff-Com:  0.585D-01 0.167D+00 0.775D+00
 Coeff:      0.585D-01 0.167D+00 0.775D+00
 Gap=     0.336 Goal=   None    Shift=    0.000
 RMSDP=5.17D-07 MaxDP=2.17D-05 DE=-1.96D-07 OVMax= 5.11D-05

 Cycle  10  Pass 1  IDiag  1:
 E= -391.683871175097     Delta-E=       -0.000000006866 Rises=F Damp=F
 DIIS: error= 2.01D-06 at cycle   4 NSaved=   4.
 NSaved= 4 IEnMin= 4 EnMin= -391.683871175097     IErMin= 4 ErrMin= 2.01D-06
 ErrMax= 2.01D-06  0.00D+00 EMaxC= 1.00D-01 BMatC= 2.15D-09 BMatP= 8.19D-09
 IDIUse=1 WtCom= 1.00D+00 WtEn= 0.00D+00
 Coeff-Com: -0.258D-01 0.239D-01 0.401D+00 0.601D+00
 Coeff:     -0.258D-01 0.239D-01 0.401D+00 0.601D+00
 Gap=     0.336 Goal=   None    Shift=    0.000
 RMSDP=2.08D-07 MaxDP=6.09D-06 DE=-6.87D-09 OVMax= 1.38D-05

 Cycle  11  Pass 1  IDiag  1:
 E= -391.683871177283     Delta-E=       -0.000000002186 Rises=F Damp=F
 DIIS: error= 2.58D-07 at cycle   5 NSaved=   5.
 NSaved= 5 IEnMin= 5 EnMin= -391.683871177283     IErMin= 5 ErrMin= 2.58D-07
 ErrMax= 2.58D-07  0.00D+00 EMaxC= 1.00D-01 BMatC= 3.68D-11 BMatP= 2.15D-09
 IDIUse=1 WtCom= 1.00D+00 WtEn= 0.00D+00
 Coeff-Com: -0.937D-02-0.133D-02 0.863D-01 0.170D+00 0.755D+00
 Coeff:     -0.937D-02-0.133D-02 0.863D-01 0.170D+00 0.755D+00
 Gap=     0.336 Goal=   None    Shift=    0.000
 RMSDP=4.12D-08 MaxDP=1.44D-06 DE=-2.19D-09 OVMax= 2.35D-06

 Cycle  12  Pass 1  IDiag  1:
 E= -391.683871177321     Delta-E=       -0.000000000038 Rises=F Damp=F
 DIIS: error= 2.00D-07 at cycle   6 NSaved=   6.
 NSaved= 6 IEnMin= 6 EnMin= -391.683871177321     IErMin= 6 ErrMin= 2.00D-07
 ErrMax= 2.00D-07  0.00D+00 EMaxC= 1.00D-01 BMatC= 1.15D-11 BMatP= 3.68D-11
 IDIUse=1 WtCom= 1.00D+00 WtEn= 0.00D+00
 Coeff-Com: -0.302D-03-0.504D-02-0.216D-01-0.134D-01 0.373D+00 0.667D+00
 Coeff:     -0.302D-03-0.504D-02-0.216D-01-0.134D-01 0.373D+00 0.667D+00
 Gap=     0.336 Goal=   None    Shift=    0.000
 RMSDP=1.77D-08 MaxDP=7.63D-07 DE=-3.77D-11 OVMax= 1.81D-06

 Cycle  13  Pass 1  IDiag  1:
 E= -391.683871177328     Delta-E=       -0.000000000007 Rises=F Damp=F
 DIIS: error= 3.82D-08 at cycle   7 NSaved=   7.
 NSaved= 7 IEnMin= 7 EnMin= -391.683871177328     IErMin= 7 ErrMin= 3.82D-08
 ErrMax= 3.82D-08  0.00D+00 EMaxC= 1.00D-01 BMatC= 8.95D-13 BMatP= 1.15D-11
 IDIUse=1 WtCom= 1.00D+00 WtEn= 0.00D+00
 Coeff-Com:  0.851D-03-0.209D-02-0.175D-01-0.234D-01 0.587D-01 0.271D+00
 Coeff-Com:  0.712D+00
 Coeff:      0.851D-03-0.209D-02-0.175D-01-0.234D-01 0.587D-01 0.271D+00
 Coeff:      0.712D+00
 Gap=     0.336 Goal=   None    Shift=    0.000
 RMSDP=5.34D-09 MaxDP=1.38D-07 DE=-6.93D-12 OVMax= 2.17D-07

 SCF Done:  E(RM062X) =  -391.683871177     A.U. after   13 cycles
            NFock= 13  Conv=0.53D-08     -V/T= 2.0093
 KE= 3.880729839067D+02 PE=-1.953402031608D+03 EE= 6.495194670622D+02
 Leave Link  502 at Mon Jul 19 21:09:04 2021, MaxMem=   524288000 cpu:             411.0 elap:             110.2
 (Enter /opt/gaussian/g16_legacy/l601.exe)
 Copying SCF densities to generalized density rwf, IOpCl= 0 IROHF=0.

 **********************************************************************

            Population analysis using the SCF density.

 **********************************************************************

 Orbital symmetries:
       Occupied  (A) (A) (A) (A) (A) (A) (A) (A) (A) (A) (A) (A)
                 (A) (A) (A) (A) (A) (A) (A) (A) (A) (A) (A) (A)
                 (A) (A) (A) (A) (A) (A) (A) (A) (A) (A) (A) (A)
                 (A) (A) (A)
       Virtual   (A) (A) (A) (A) (A) (A) (A) (A) (A) (A) (A) (A)
                 (A) (A) (A) (A) (A) (A) (A) (A) (A) (A) (A) (A)
                 (A) (A) (A) (A) (A) (A) (A) (A) (A) (A) (A) (A)
                 (A) (A) (A) (A) (A) (A) (A) (A) (A) (A) (A) (A)
                 (A) (A) (A) (A) (A) (A) (A) (A) (A) (A) (A) (A)
                 (A) (A) (A) (A) (A) (A) (A) (A) (A) (A) (A) (A)
                 (A) (A) (A) (A) (A) (A) (A) (A) (A) (A) (A) (A)
                 (A) (A) (A) (A) (A) (A) (A) (A) (A) (A) (A) (A)
                 (A) (A) (A) (A) (A) (A) (A) (A) (A) (A) (A) (A)
                 (A) (A) (A) (A) (A) (A) (A) (A) (A) (A) (A) (A)
                 (A) (A) (A) (A) (A) (A) (A) (A) (A) (A) (A) (A)
                 (A) (A) (A) (A) (A) (A) (A) (A) (A) (A) (A) (A)
                 (A) (A) (A) (A) (A) (A) (A) (A) (A) (A) (A) (A)
                 (A) (A) (A) (A) (A) (A) (A) (A) (A) (A) (A) (A)
                 (A) (A) (A) (A) (A) (A) (A) (A) (A) (A) (A) (A)
                 (A) (A) (A) (A) (A) (A) (A) (A) (A) (A) (A) (A)
                 (A) (A) (A) (A) (A) (A) (A) (A) (A)
 The electronic state is 1-A.
 Alpha  occ. eigenvalues --  -10.54370 -10.54039 -10.53826 -10.53774 -10.53341
 Alpha  occ. eigenvalues --  -10.53223 -10.53149 -10.53046 -10.53036 -10.52952
 Alpha  occ. eigenvalues --   -0.91742  -0.89681  -0.84724  -0.80686  -0.77692
 Alpha  occ. eigenvalues --   -0.76543  -0.72136  -0.67467  -0.58802  -0.57783
 Alpha  occ. eigenvalues --   -0.52944  -0.52246  -0.50375  -0.49479  -0.48326
 Alpha  occ. eigenvalues --   -0.48071  -0.46344  -0.45487  -0.44775  -0.43874
 Alpha  occ. eigenvalues --   -0.43435  -0.42472  -0.41022  -0.39936  -0.39350
 Alpha  occ. eigenvalues --   -0.37749  -0.36250  -0.27951  -0.26973
 Alpha virt. eigenvalues --    0.06668   0.07684   0.13320   0.15240   0.15685
 Alpha virt. eigenvalues --    0.16873   0.18189   0.19105   0.20094   0.20456
 Alpha virt. eigenvalues --    0.21357   0.22043   0.22188   0.22948   0.23221
 Alpha virt. eigenvalues --    0.23958   0.24276   0.25323   0.26076   0.27865
 Alpha virt. eigenvalues --    0.28367   0.29044   0.30138   0.30982   0.33704
 Alpha virt. eigenvalues --    0.38492   0.40164   0.44757   0.47926   0.54241
 Alpha virt. eigenvalues --    0.54926   0.55618   0.56738   0.58174   0.60771
 Alpha virt. eigenvalues --    0.61495   0.61958   0.63157   0.64636   0.65627
 Alpha virt. eigenvalues --    0.66909   0.68771   0.69887   0.72323   0.73050
 Alpha virt. eigenvalues --    0.75155   0.75800   0.76451   0.79574   0.80421
 Alpha virt. eigenvalues --    0.82111   0.82754   0.83724   0.84484   0.86279
 Alpha virt. eigenvalues --    0.87852   0.88774   0.90326   0.91741   0.93728
 Alpha virt. eigenvalues --    0.94247   0.94708   0.94769   0.95398   0.95588
 Alpha virt. eigenvalues --    0.97044   0.98012   0.98528   0.99230   0.99770
 Alpha virt. eigenvalues --    1.02125   1.02917   1.02981   1.04211   1.05989
 Alpha virt. eigenvalues --    1.07043   1.10037   1.21082   1.22976   1.25150
 Alpha virt. eigenvalues --    1.27872   1.29873   1.33400   1.36375   1.38087
 Alpha virt. eigenvalues --    1.41483   1.46037   1.47192   1.48537   1.49688
 Alpha virt. eigenvalues --    1.51896   1.57421   1.67399   1.68496   1.72035
 Alpha virt. eigenvalues --    1.75005   1.77344   1.78956   1.82216   1.82440
 Alpha virt. eigenvalues --    1.84423   1.85761   1.86609   1.87211   1.89537
 Alpha virt. eigenvalues --    1.92892   1.94194   1.95310   1.99270   2.02661
 Alpha virt. eigenvalues --    2.03525   2.05121   2.06026   2.09850   2.10066
 Alpha virt. eigenvalues --    2.10407   2.10749   2.11750   2.13526   2.14172
 Alpha virt. eigenvalues --    2.15332   2.15614   2.16464   2.17757   2.19283
 Alpha virt. eigenvalues --    2.20407   2.21561   2.22146   2.23569   2.25826
 Alpha virt. eigenvalues --    2.28725   2.29292   2.33011   2.33243   2.35996
 Alpha virt. eigenvalues --    2.37286   2.40279   2.41606   2.42895   2.44126
 Alpha virt. eigenvalues --    2.46856   2.47462   2.51604   2.53927   2.55212
 Alpha virt. eigenvalues --    2.57126   2.57652   2.59941   2.61106   2.63117
 Alpha virt. eigenvalues --    2.64204   2.68236   2.69274   2.70293   2.72553
 Alpha virt. eigenvalues --    2.73782   2.75239   2.78183   2.78578   2.83040
 Alpha virt. eigenvalues --    2.84404   2.85750   2.87190   2.87865   2.88927
 Alpha virt. eigenvalues --    2.89469   2.91693   2.92960   2.93692   3.02520
 Alpha virt. eigenvalues --    3.04097   3.08044   3.09609   3.17810   3.18578
 Alpha virt. eigenvalues --    3.23000   3.24350   3.28438   3.31509   3.40260
 Alpha virt. eigenvalues --    3.41088   3.42339   3.42863   3.43348   3.44214
 Alpha virt. eigenvalues --    3.45657   3.46818   3.47518   3.50045   3.53525
 Alpha virt. eigenvalues --    3.55217   4.17557   4.21507   4.34435   4.45010
 Alpha virt. eigenvalues --    4.48385   4.51373   4.52212   4.64408   4.71016
 Alpha virt. eigenvalues --    4.75300
          Condensed to atoms (all electrons):
               1          2          3          4          5          6
     1  C    5.029708   0.384844   0.385086   0.359908  -0.063033   0.004292
     2  H    0.384844   0.619917  -0.034730  -0.040150  -0.005412   0.000133
     3  H    0.385086  -0.034730   0.603478  -0.037339   0.005032  -0.000153
     4  C    0.359908  -0.040150  -0.037339   4.775255   0.369038  -0.029465
     5  C   -0.063033  -0.005412   0.005032   0.369038   5.012632   0.384588
     6  H    0.004292   0.000133  -0.000153  -0.029465   0.384588   0.570830
     7  H   -0.005330   0.001226   0.000173  -0.033837   0.385008  -0.028705
     8  H    0.000014   0.001224  -0.000186  -0.032069   0.380048  -0.027157
     9  C   -0.040064   0.003504  -0.008275   0.705059  -0.060837  -0.007272
    10  H   -0.010851   0.000161   0.004461  -0.037386   0.005977  -0.000046
    11  C    0.005247  -0.000180   0.000068  -0.042206  -0.012627   0.000057
    12  H    0.000130   0.000000   0.000003  -0.009285   0.003680   0.001983
    13  H   -0.000160   0.000009   0.000012  -0.000412   0.000318  -0.000191
    14  H   -0.000104  -0.000001  -0.000015   0.000617   0.000236   0.000384
    15  C   -0.000115   0.000001   0.000002  -0.000031   0.000024   0.000003
    16  H   -0.000008   0.000001   0.000000  -0.000002  -0.000007   0.000005
    17  H    0.000014   0.000000  -0.000000  -0.000004   0.000001  -0.000000
    18  H   -0.000003  -0.000000   0.000000   0.000001  -0.000000   0.000000
    19  C    0.001158   0.000099  -0.000137   0.000929  -0.000110   0.000047
    20  C    0.000288  -0.000005   0.000004  -0.000074  -0.000001   0.000001
    21  H   -0.000064  -0.000001   0.000009   0.000008  -0.000000   0.000000
    22  H   -0.000011   0.000000   0.000000   0.000001   0.000000   0.000000
    23  H    0.000074   0.000001  -0.000003   0.000019  -0.000004  -0.000002
    24  C   -0.047199  -0.006212   0.004854   0.000103   0.000507   0.000055
    25  H   -0.002712   0.003480   0.000001  -0.000850  -0.001383   0.000045
    26  C    0.351119  -0.039417  -0.033053  -0.049090  -0.001347  -0.000051
    27  H   -0.038814  -0.004045  -0.003475   0.006021  -0.000149   0.000004
    28  H   -0.036568   0.005608  -0.004326  -0.004962  -0.000105   0.000014
               7          8          9         10         11         12
     1  C   -0.005330   0.000014  -0.040064  -0.010851   0.005247   0.000130
     2  H    0.001226   0.001224   0.003504   0.000161  -0.000180   0.000000
     3  H    0.000173  -0.000186  -0.008275   0.004461   0.000068   0.000003
     4  C   -0.033837  -0.032069   0.705059  -0.037386  -0.042206  -0.009285
     5  C    0.385008   0.380048  -0.060837   0.005977  -0.012627   0.003680
     6  H   -0.028705  -0.027157  -0.007272  -0.000046   0.000057   0.001983
     7  H    0.586242  -0.030302   0.003832  -0.000160   0.000300  -0.000094
     8  H   -0.030302   0.575231  -0.004670  -0.000139   0.000959  -0.000003
     9  C    0.003832  -0.004670   4.908695   0.379855   0.363758  -0.033333
    10  H   -0.000160  -0.000139   0.379855   0.616289  -0.054468   0.004522
    11  C    0.000300   0.000959   0.363758  -0.054468   4.970423   0.390643
    12  H   -0.000094  -0.000003  -0.033333   0.004522   0.390643   0.578060
    13  H   -0.000012   0.000237  -0.034798  -0.001836   0.386775  -0.028820
    14  H    0.000005  -0.000090  -0.035573  -0.001614   0.384689  -0.028762
    15  C   -0.000007  -0.000000  -0.000000  -0.000000   0.000000  -0.000000
    16  H    0.000136  -0.000000   0.000000  -0.000000   0.000000  -0.000000
    17  H   -0.000015  -0.000000   0.000000   0.000000  -0.000000   0.000000
    18  H    0.000002   0.000000  -0.000000  -0.000000   0.000000   0.000000
    19  C    0.000414   0.000011  -0.000007  -0.000008  -0.000002  -0.000000
    20  C    0.000009  -0.000000  -0.000038   0.000001   0.000000  -0.000000
    21  H    0.000000   0.000000  -0.000005  -0.000003   0.000000  -0.000000
    22  H    0.000000   0.000000   0.000000  -0.000000  -0.000000  -0.000000
    23  H   -0.000004  -0.000000   0.000058   0.000002  -0.000000   0.000000
    24  C    0.001676   0.000158  -0.000671   0.000091  -0.000006  -0.000000
    25  H    0.002271   0.000038   0.000045   0.000001  -0.000001  -0.000000
    26  C   -0.000511   0.000002  -0.005277   0.000121  -0.000047  -0.000006
    27  H   -0.000061   0.000010   0.000053  -0.000067   0.000003   0.000000
    28  H   -0.000010   0.000004   0.003845   0.000925  -0.000105   0.000002
              13         14         15         16         17         18
     1  C   -0.000160  -0.000104  -0.000115  -0.000008   0.000014  -0.000003
     2  H    0.000009  -0.000001   0.000001   0.000001   0.000000  -0.000000
     3  H    0.000012  -0.000015   0.000002   0.000000  -0.000000   0.000000
     4  C   -0.000412   0.000617  -0.000031  -0.000002  -0.000004   0.000001
     5  C    0.000318   0.000236   0.000024  -0.000007   0.000001  -0.000000
     6  H   -0.000191   0.000384   0.000003   0.000005  -0.000000   0.000000
     7  H   -0.000012   0.000005  -0.000007   0.000136  -0.000015   0.000002
     8  H    0.000237  -0.000090  -0.000000  -0.000000  -0.000000   0.000000
     9  C   -0.034798  -0.035573  -0.000000   0.000000   0.000000  -0.000000
    10  H   -0.001836  -0.001614  -0.000000  -0.000000   0.000000  -0.000000
    11  C    0.386775   0.384689   0.000000   0.000000  -0.000000   0.000000
    12  H   -0.028820  -0.028762  -0.000000  -0.000000   0.000000   0.000000
    13  H    0.578719  -0.031981   0.000000  -0.000000  -0.000000  -0.000000
    14  H   -0.031981   0.580728   0.000000  -0.000000   0.000000   0.000000
    15  C    0.000000   0.000000   4.997086   0.385154   0.386342   0.377490
    16  H   -0.000000  -0.000000   0.385154   0.577376  -0.028360  -0.026958
    17  H   -0.000000   0.000000   0.386342  -0.028360   0.588110  -0.034120
    18  H   -0.000000   0.000000   0.377490  -0.026958  -0.034120   0.590172
    19  C    0.000000  -0.000000   0.368817  -0.033836  -0.039199  -0.033689
    20  C   -0.000000   0.000001  -0.076114   0.004895  -0.000085  -0.002585
    21  H   -0.000000  -0.000000   0.004357  -0.000169   0.000005  -0.000023
    22  H    0.000000  -0.000000  -0.005199   0.000140  -0.000672   0.004110
    23  H    0.000000  -0.000001   0.000467  -0.000155   0.002057  -0.000356
    24  C   -0.000000  -0.000001  -0.035544  -0.005421  -0.001519  -0.000615
    25  H    0.000000   0.000000  -0.013504   0.005865   0.000188   0.000319
    26  C   -0.000006   0.000026   0.005711   0.000102  -0.000133  -0.000191
    27  H    0.000000  -0.000000  -0.000181  -0.000003  -0.000007   0.000030
    28  H    0.000003  -0.000005   0.000143   0.000006   0.000011  -0.000010
              19         20         21         22         23         24
     1  C    0.001158   0.000288  -0.000064  -0.000011   0.000074  -0.047199
     2  H    0.000099  -0.000005  -0.000001   0.000000   0.000001  -0.006212
     3  H   -0.000137   0.000004   0.000009   0.000000  -0.000003   0.004854
     4  C    0.000929  -0.000074   0.000008   0.000001   0.000019   0.000103
     5  C   -0.000110  -0.000001  -0.000000   0.000000  -0.000004   0.000507
     6  H    0.000047   0.000001   0.000000   0.000000  -0.000002   0.000055
     7  H    0.000414   0.000009   0.000000   0.000000  -0.000004   0.001676
     8  H    0.000011  -0.000000   0.000000   0.000000  -0.000000   0.000158
     9  C   -0.000007  -0.000038  -0.000005   0.000000   0.000058  -0.000671
    10  H   -0.000008   0.000001  -0.000003  -0.000000   0.000002   0.000091
    11  C   -0.000002   0.000000   0.000000  -0.000000  -0.000000  -0.000006
    12  H   -0.000000  -0.000000  -0.000000  -0.000000   0.000000  -0.000000
    13  H    0.000000  -0.000000  -0.000000   0.000000   0.000000  -0.000000
    14  H   -0.000000   0.000001  -0.000000  -0.000000  -0.000001  -0.000001
    15  C    0.368817  -0.076114   0.004357  -0.005199   0.000467  -0.035544
    16  H   -0.033836   0.004895  -0.000169   0.000140  -0.000155  -0.005421
    17  H   -0.039199  -0.000085   0.000005  -0.000672   0.002057  -0.001519
    18  H   -0.033689  -0.002585  -0.000023   0.004110  -0.000356  -0.000615
    19  C    4.757044   0.370086  -0.027640  -0.036562  -0.032259   0.710632
    20  C    0.370086   5.014924   0.385560   0.387139   0.380751  -0.056318
    21  H   -0.027640   0.385560   0.569973  -0.029964  -0.026375  -0.008157
    22  H   -0.036562   0.387139  -0.029964   0.585034  -0.030422   0.003251
    23  H   -0.032259   0.380751  -0.026375  -0.030422   0.567873  -0.003054
    24  C    0.710632  -0.056318  -0.008157   0.003251  -0.003054   4.902145
    25  H   -0.030883   0.006218   0.000009  -0.000156  -0.000141   0.374154
    26  C   -0.040374  -0.013368   0.001225   0.000220   0.000767   0.369002
    27  H   -0.002250   0.000570   0.000662   0.000036  -0.000112  -0.041184
    28  H   -0.008988   0.001971   0.000846  -0.000094   0.000765  -0.038101
              25         26         27         28
     1  C   -0.002712   0.351119  -0.038814  -0.036568
     2  H    0.003480  -0.039417  -0.004045   0.005608
     3  H    0.000001  -0.033053  -0.003475  -0.004326
     4  C   -0.000850  -0.049090   0.006021  -0.004962
     5  C   -0.001383  -0.001347  -0.000149  -0.000105
     6  H    0.000045  -0.000051   0.000004   0.000014
     7  H    0.002271  -0.000511  -0.000061  -0.000010
     8  H    0.000038   0.000002   0.000010   0.000004
     9  C    0.000045  -0.005277   0.000053   0.003845
    10  H    0.000001   0.000121  -0.000067   0.000925
    11  C   -0.000001  -0.000047   0.000003  -0.000105
    12  H   -0.000000  -0.000006   0.000000   0.000002
    13  H    0.000000  -0.000006   0.000000   0.000003
    14  H    0.000000   0.000026  -0.000000  -0.000005
    15  C   -0.013504   0.005711  -0.000181   0.000143
    16  H    0.005865   0.000102  -0.000003   0.000006
    17  H    0.000188  -0.000133  -0.000007   0.000011
    18  H    0.000319  -0.000191   0.000030  -0.000010
    19  C   -0.030883  -0.040374  -0.002250  -0.008988
    20  C    0.006218  -0.013368   0.000570   0.001971
    21  H    0.000009   0.001225   0.000662   0.000846
    22  H   -0.000156   0.000220   0.000036  -0.000094
    23  H   -0.000141   0.000767  -0.000112   0.000765
    24  C    0.374154   0.369002  -0.041184  -0.038101
    25  H    0.624496  -0.059797   0.000492   0.004793
    26  C   -0.059797   4.977423   0.378160   0.387716
    27  H    0.000492   0.378160   0.614105  -0.032592
    28  H    0.004793   0.387716  -0.032592   0.606101
 Mulliken charges:
               1
     1  C   -0.276847
     2  H    0.109945
     3  H    0.118510
     4  C    0.100202
     5  C   -0.402073
     6  H    0.130599
     7  H    0.117754
     8  H    0.136680
     9  C   -0.137886
    10  H    0.094174
    11  C   -0.393281
    12  H    0.121279
    13  H    0.132144
    14  H    0.131459
    15  C   -0.394902
    16  H    0.121241
    17  H    0.127385
    18  H    0.126426
    19  C    0.076708
    20  C   -0.403829
    21  H    0.129747
    22  H    0.123148
    23  H    0.140054
    24  C   -0.122626
    25  H    0.087010
    26  C   -0.228929
    27  H    0.122794
    28  H    0.113114
 Sum of Mulliken charges =  -0.00000
 Mulliken charges with hydrogens summed into heavy atoms:
               1
     1  C   -0.048391
     4  C    0.100202
     5  C   -0.017040
     9  C   -0.043712
    11  C   -0.008399
    15  C   -0.019850
    19  C    0.076708
    20  C   -0.010880
    24  C   -0.035616
    26  C    0.006979
 Electronic spatial extent (au):  <R**2>=           2168.7153
 Charge=             -0.0000 electrons
 Dipole moment (field-independent basis, Debye):
    X=              0.1168    Y=             -0.2483    Z=             -0.0870  Tot=              0.2879
 Quadrupole moment (field-independent basis, Debye-Ang):
   XX=            -64.3896   YY=            -63.9582   ZZ=            -62.7854
   XY=             -0.3963   XZ=             -0.2215   YZ=              0.0478
 Traceless Quadrupole moment (field-independent basis, Debye-Ang):
   XX=             -0.6785   YY=             -0.2471   ZZ=              0.9257
   XY=             -0.3963   XZ=             -0.2215   YZ=              0.0478
 Octapole moment (field-independent basis, Debye-Ang**2):
  XXX=              3.4216  YYY=             -1.1832  ZZZ=              0.1181  XYY=             -0.7543
  XXY=             -7.6078  XXZ=             -3.2981  XZZ=             -1.5456  YZZ=              1.0500
  YYZ=             -0.9956  XYZ=              0.1834
 Hexadecapole moment (field-independent basis, Debye-Ang**3):
 XXXX=          -1972.5629 YYYY=           -526.9180 ZZZZ=           -474.4534 XXXY=             -3.4252
 XXXZ=             -1.8252 YYYX=             -0.5473 YYYZ=             -0.5086 ZZZX=              3.2009
 ZZZY=              1.5137 XXYY=           -429.6324 XXZZ=           -404.9011 YYZZ=           -166.1434
 XXYZ=             -0.1555 YYXZ=             -1.7596 ZZXY=              1.1020
 N-N= 5.241257094621D+02 E-N=-1.953402031763D+03  KE= 3.880729839067D+02
 No NMR shielding tensors so no spin-rotation constants.
 Leave Link  601 at Mon Jul 19 21:09:04 2021, MaxMem=   524288000 cpu:               1.7 elap:               0.6
 (Enter /opt/gaussian/g16_legacy/l701.exe)
 ... and contract with generalized density number  0.
 Compute integral first derivatives.
 Leave Link  701 at Mon Jul 19 21:09:05 2021, MaxMem=   524288000 cpu:               1.0 elap:               0.4
 (Enter /opt/gaussian/g16_legacy/l702.exe)
 L702 exits ... SP integral derivatives will be done elsewhere.
 Leave Link  702 at Mon Jul 19 21:09:05 2021, MaxMem=   524288000 cpu:               0.1 elap:               0.1
 (Enter /opt/gaussian/g16_legacy/l703.exe)
 Integral derivatives from FoFJK, PRISM(SPDF).
 Compute integral first derivatives, UseDBF=F ICtDFT=           0.
 Calling FoFJK, ICntrl=      2127 FMM=F ISym2X=0 I1Cent= 0 IOpClX= 0 NMat=1 NMatS=1 NMatT=0.
 FoFJK:  IHMeth= 1 ICntrl=    2127 DoSepK=F KAlg= 0 I1Cent=           0 FoldK=F
 IRaf=         0 NMat=       1 IRICut=       1 DoRegI=T DoRafI=F ISym2E= 0 IDoP0=0 IntGTp=1.
 FoFCou: FMM=F IPFlag=           0 FMFlag=      100000 FMFlg1=         800
         NFxFlg=           0 DoJE=F BraDBF=F KetDBF=F FulRan=T
         wScrn=  0.000000 ICntrl=      2127 IOpCl=  0 I1Cent=           0 NGrid=           0
         NMat0=    1 NMatS0=      1 NMatT0=    0 NMatD0=    1 NMtDS0=    0 NMtDT0=    0
 Symmetry not used in FoFCou.
 Leave Link  703 at Mon Jul 19 21:09:25 2021, MaxMem=   524288000 cpu:              78.3 elap:              19.7
 (Enter /opt/gaussian/g16_legacy/l716.exe)
 Dipole        = 4.59640769D-02-9.76881174D-02-3.42343707D-02
 ***** Axes restored to original set *****
 -------------------------------------------------------------------
 Center     Atomic                   Forces (Hartrees/Bohr)
 Number     Number              X              Y              Z
 -------------------------------------------------------------------
      1        6           0.000762562    0.003201038   -0.005438233
      2        1           0.000157981   -0.000765066    0.002675071
      3        1           0.000108435    0.000478422    0.001906749
      4        6           0.001693521    0.012450887   -0.003172651
      5        6           0.001325862   -0.000110712    0.004860844
      6        1           0.001626007   -0.001117871   -0.002512377
      7        1          -0.000592890    0.001171965   -0.001553077
      8        1           0.001737704   -0.001602563    0.000942300
      9        6          -0.009316170   -0.012885518    0.002774085
     10        1          -0.002295996   -0.001274538   -0.000956865
     11        6          -0.000702711   -0.000998879    0.001381126
     12        1          -0.001381372   -0.000285494   -0.000124512
     13        1           0.001775914    0.001615251    0.000767103
     14        1           0.002915221    0.001362016   -0.000550542
     15        6          -0.000614557   -0.003726928   -0.003449688
     16        1          -0.000901465    0.002170567   -0.000780929
     17        1          -0.001240806    0.000898322    0.002326333
     18        1           0.000689897    0.000928046    0.003172749
     19        6          -0.000908438   -0.012231638   -0.010511543
     20        6          -0.002633976    0.002784090   -0.002362685
     21        1           0.003171327    0.000197693   -0.000636943
     22        1           0.002737577   -0.000758212    0.000445315
     23        1          -0.000530788    0.002228812    0.001247194
     24        6           0.005527562    0.010859693    0.006674580
     25        1           0.000948514   -0.002513620    0.001522388
     26        6          -0.003166858   -0.001389647    0.003593151
     27        1          -0.001117533    0.001258837   -0.003368114
     28        1           0.000225477   -0.001944954    0.001129170
 -------------------------------------------------------------------
 Cartesian Forces:  Max     0.012885518 RMS     0.003719218
 Leave Link  716 at Mon Jul 19 21:09:25 2021, MaxMem=   524288000 cpu:               0.3 elap:               0.1
 (Enter /opt/gaussian/g16_legacy/l103.exe)

 GradGradGradGradGradGradGradGradGradGradGradGradGradGradGradGradGradGrad
 Berny optimization.
 FormGI is forming the generalized inverse of G from B-inverse, IUseBI=4.
 Internal  Forces:  Max     0.015707012 RMS     0.002532283
 Search for a local minimum.
 Step number   1 out of a maximum of  138
 All quantities printed in internal units (Hartrees-Bohrs-Radians)
 RMS Force = .25323D-02 SwitMx=.10000D-02 MixMth= 1
 Mixed Optimization -- RFO/linear search
 Second derivative matrix not updated -- first step.
 ITU=  0
     Eigenvalues ---    0.00230   0.00517   0.00650   0.00683   0.00687
     Eigenvalues ---    0.00735   0.00808   0.01194   0.01292   0.01547
     Eigenvalues ---    0.01628   0.02771   0.02802   0.03697   0.03913
     Eigenvalues ---    0.05281   0.05402   0.07038   0.07071   0.07099
     Eigenvalues ---    0.07099   0.07220   0.07305   0.07309   0.07495
     Eigenvalues ---    0.09502   0.09718   0.12965   0.13102   0.15992
     Eigenvalues ---    0.16000   0.16000   0.16000   0.16000   0.16000
     Eigenvalues ---    0.16000   0.16000   0.16000   0.16000   0.16000
     Eigenvalues ---    0.16000   0.16000   0.16000   0.21932   0.21982
     Eigenvalues ---    0.22000   0.22002   0.24981   0.24989   0.25000
     Eigenvalues ---    0.25000   0.28451   0.30483   0.31477   0.31731
     Eigenvalues ---    0.31761   0.32130   0.32712   0.33907   0.33914
     Eigenvalues ---    0.34029   0.34063   0.34128   0.34144   0.34232
     Eigenvalues ---    0.34255   0.34287   0.34328   0.34346   0.34357
     Eigenvalues ---    0.34362   0.34386   0.34409   0.34573   0.34795
     Eigenvalues ---    0.35155   0.55356   0.55868
 RFO step:  Lambda=-5.21177896D-03 EMin= 2.30000000D-03
 Linear search not attempted -- first point.
 Iteration  1 RMS(Cart)=  0.17528019 RMS(Int)=  0.00733120
 Iteration  2 RMS(Cart)=  0.01444076 RMS(Int)=  0.00011636
 Iteration  3 RMS(Cart)=  0.00008857 RMS(Int)=  0.00010996
 Iteration  4 RMS(Cart)=  0.00000001 RMS(Int)=  0.00010996
 ITry= 1 IFail=0 DXMaxC= 8.14D-01 DCOld= 1.00D+10 DXMaxT= 3.00D-01 DXLimC= 3.00D+00 Rises=F
 Variable       Old X    -DE/DX   Delta X   Delta X   Delta X     New X
                                 (Linear)    (Quad)   (Total)
    R1        2.07475  -0.00003   0.00000  -0.00007  -0.00007   2.07467
    R2        2.07487  -0.00132   0.00000  -0.00385  -0.00385   2.07102
    R3        2.87010  -0.00270   0.00000  -0.00871  -0.00871   2.86139
    R4        2.91163  -0.00249   0.00000  -0.00859  -0.00859   2.90303
    R5        2.84584   0.00362   0.00000   0.01123   0.01123   2.85707
    R6        2.54817  -0.01571   0.00000  -0.02811  -0.02811   2.52006
    R7        2.06751  -0.00097   0.00000  -0.00278  -0.00278   2.06473
    R8        2.06646  -0.00089   0.00000  -0.00254  -0.00254   2.06392
    R9        2.06849   0.00097   0.00000   0.00279   0.00279   2.07127
   R10        2.06009   0.00040   0.00000   0.00113   0.00113   2.06122
   R11        2.82860   0.00302   0.00000   0.00909   0.00909   2.83768
   R12        2.06374  -0.00042   0.00000  -0.00121  -0.00121   2.06253
   R13        2.06779   0.00057   0.00000   0.00162   0.00162   2.06942
   R14        2.06724   0.00104   0.00000   0.00300   0.00300   2.07024
   R15        2.07087  -0.00204   0.00000  -0.00588  -0.00588   2.06499
   R16        2.06941   0.00059   0.00000   0.00171   0.00171   2.07112
   R17        2.06732   0.00127   0.00000   0.00365   0.00365   2.07097
   R18        2.84639   0.00057   0.00000   0.00177   0.00177   2.84816
   R19        2.83906   0.00367   0.00000   0.01125   0.01125   2.85030
   R20        2.54369  -0.01263   0.00000  -0.02240  -0.02240   2.52129
   R21        2.06683  -0.00120   0.00000  -0.00344  -0.00344   2.06339
   R22        2.07115  -0.00106   0.00000  -0.00306  -0.00306   2.06809
   R23        2.06901   0.00068   0.00000   0.00196   0.00196   2.07097
   R24        2.05424   0.00242   0.00000   0.00677   0.00677   2.06101
   R25        2.85112  -0.00219   0.00000  -0.00684  -0.00684   2.84427
   R26        2.07223   0.00216   0.00000   0.00623   0.00623   2.07847
   R27        2.07281  -0.00168   0.00000  -0.00486  -0.00486   2.06795
    A1        1.83423   0.00059   0.00000   0.02447   0.02442   1.85865
    A2        1.91080   0.00220   0.00000   0.00474   0.00428   1.91508
    A3        1.91822   0.00019   0.00000  -0.00897  -0.00919   1.90903
    A4        1.90404   0.00149   0.00000   0.00751   0.00750   1.91154
    A5        1.88145   0.00159   0.00000   0.00817   0.00823   1.88968
    A6        2.00692  -0.00553   0.00000  -0.03068  -0.03088   1.97604
    A7        2.02794   0.00448   0.00000   0.01788   0.01769   2.04563
    A8        2.10579  -0.00364   0.00000  -0.01388  -0.01407   2.09172
    A9        2.14885  -0.00082   0.00000  -0.00282  -0.00302   2.14584
   A10        1.95258   0.00136   0.00000   0.00882   0.00883   1.96141
   A11        1.95059  -0.00263   0.00000  -0.01389  -0.01385   1.93673
   A12        1.92033   0.00274   0.00000   0.01397   0.01399   1.93432
   A13        1.85666   0.00156   0.00000   0.01430   0.01433   1.87099
   A14        1.90615  -0.00290   0.00000  -0.02131  -0.02132   1.88483
   A15        1.87472  -0.00030   0.00000  -0.00293  -0.00288   1.87184
   A16        2.06935  -0.00251   0.00000  -0.01554  -0.01554   2.05381
   A17        2.21814  -0.00044   0.00000  -0.00193  -0.00194   2.21620
   A18        1.99565   0.00295   0.00000   0.01751   0.01751   2.01316
   A19        1.98120  -0.00293   0.00000  -0.01728  -0.01720   1.96399
   A20        1.91234   0.00253   0.00000   0.01467   0.01463   1.92697
   A21        1.91454   0.00379   0.00000   0.02316   0.02314   1.93767
   A22        1.87885   0.00007   0.00000   0.00007   0.00013   1.87898
   A23        1.88617  -0.00035   0.00000  -0.00089  -0.00081   1.88536
   A24        1.88829  -0.00331   0.00000  -0.02100  -0.02114   1.86714
   A25        1.87383   0.00112   0.00000   0.01041   0.01042   1.88425
   A26        1.88446   0.00049   0.00000   0.00677   0.00677   1.89123
   A27        1.95844  -0.00195   0.00000  -0.00791  -0.00790   1.95054
   A28        1.89598  -0.00316   0.00000  -0.02677  -0.02676   1.86922
   A29        1.91926   0.00108   0.00000   0.00455   0.00457   1.92383
   A30        1.92988   0.00229   0.00000   0.01203   0.01204   1.94193
   A31        2.00637   0.00100   0.00000   0.00391   0.00388   2.01025
   A32        2.10925   0.00185   0.00000   0.00725   0.00722   2.11646
   A33        2.16757  -0.00285   0.00000  -0.01116  -0.01118   2.15639
   A34        1.95760   0.00021   0.00000   0.00459   0.00458   1.96217
   A35        1.92972  -0.00131   0.00000  -0.00674  -0.00675   1.92297
   A36        1.92836   0.00279   0.00000   0.01238   0.01239   1.94075
   A37        1.85437   0.00220   0.00000   0.02201   0.02199   1.87636
   A38        1.90131  -0.00204   0.00000  -0.01439  -0.01440   1.88691
   A39        1.88986  -0.00201   0.00000  -0.01871  -0.01869   1.87117
   A40        2.06883  -0.00214   0.00000  -0.01201  -0.01228   2.05655
   A41        2.20855   0.00043   0.00000   0.00224   0.00198   2.21053
   A42        2.00505   0.00174   0.00000   0.01132   0.01105   2.01610
   A43        1.98867  -0.00371   0.00000  -0.01788  -0.01805   1.97062
   A44        1.88943  -0.00007   0.00000   0.00321   0.00331   1.89274
   A45        1.88999   0.00106   0.00000  -0.00642  -0.00675   1.88324
   A46        1.88580   0.00328   0.00000   0.03243   0.03251   1.91831
   A47        1.93976   0.00007   0.00000  -0.01207  -0.01238   1.92738
   A48        1.86571  -0.00045   0.00000   0.00245   0.00251   1.86822
    D1       -0.52771   0.00085   0.00000  -0.03884  -0.03881  -0.56652
    D2        2.57765   0.00145   0.00000  -0.00361  -0.00357   2.57408
    D3       -2.52616  -0.00186   0.00000  -0.07465  -0.07471  -2.60087
    D4        0.57920  -0.00126   0.00000  -0.03942  -0.03946   0.53974
    D5        1.64147  -0.00125   0.00000  -0.06986  -0.06985   1.57162
    D6       -1.53635  -0.00065   0.00000  -0.03463  -0.03461  -1.57096
    D7        1.11403  -0.00025   0.00000  -0.06114  -0.06108   1.05295
    D8       -0.98433  -0.00198   0.00000  -0.09307  -0.09295  -1.07728
    D9       -3.00114  -0.00196   0.00000  -0.09426  -0.09409  -3.09522
   D10        3.10413   0.00140   0.00000  -0.03244  -0.03251   3.07162
   D11        1.00576  -0.00032   0.00000  -0.06437  -0.06438   0.94139
   D12       -1.01104  -0.00031   0.00000  -0.06557  -0.06551  -1.07655
   D13       -1.05124   0.00082   0.00000  -0.03714  -0.03731  -1.08855
   D14        3.13358  -0.00091   0.00000  -0.06907  -0.06918   3.06440
   D15        1.11678  -0.00089   0.00000  -0.07027  -0.07032   1.04646
   D16       -2.48828  -0.00073   0.00000  -0.01916  -0.01902  -2.50730
   D17       -0.40834   0.00039   0.00000  -0.00440  -0.00427  -0.41260
   D18        1.67279   0.00014   0.00000  -0.00774  -0.00764   1.66516
   D19        0.69052  -0.00128   0.00000  -0.05510  -0.05521   0.63531
   D20        2.77047  -0.00016   0.00000  -0.04034  -0.04046   2.73001
   D21       -1.43159  -0.00042   0.00000  -0.04368  -0.04383  -1.47541
   D22        0.02569  -0.00122   0.00000  -0.04431  -0.04413  -0.01844
   D23       -3.10541  -0.00132   0.00000  -0.04838  -0.04817   3.12961
   D24        3.12847  -0.00047   0.00000  -0.00615  -0.00636   3.12211
   D25       -0.00263  -0.00057   0.00000  -0.01023  -0.01040  -0.01303
   D26        0.02201   0.00011   0.00000   0.00022   0.00023   0.02224
   D27        2.12289   0.00005   0.00000  -0.00075  -0.00082   2.12207
   D28       -2.08982  -0.00018   0.00000  -0.00363  -0.00353  -2.09335
   D29       -3.10947   0.00004   0.00000  -0.00354  -0.00356  -3.11303
   D30       -1.00859  -0.00002   0.00000  -0.00451  -0.00461  -1.01320
   D31        1.06189  -0.00026   0.00000  -0.00740  -0.00732   1.05457
   D32       -3.06605  -0.00002   0.00000  -0.00526  -0.00521  -3.07127
   D33        0.07582  -0.00026   0.00000  -0.01869  -0.01873   0.05709
   D34       -0.98170   0.00086   0.00000   0.00580   0.00585  -0.97585
   D35        2.16018   0.00062   0.00000  -0.00763  -0.00767   2.15251
   D36        1.11204  -0.00092   0.00000  -0.01691  -0.01687   1.09517
   D37       -2.02927  -0.00116   0.00000  -0.03033  -0.03039  -2.05966
   D38       -2.66199  -0.00134   0.00000  -0.04746  -0.04743  -2.70942
   D39       -0.59568   0.00070   0.00000  -0.02128  -0.02123  -0.61691
   D40        1.49620  -0.00085   0.00000  -0.04098  -0.04096   1.45524
   D41        0.47931  -0.00108   0.00000  -0.03352  -0.03356   0.44575
   D42        2.54562   0.00095   0.00000  -0.00734  -0.00736   2.53826
   D43       -1.64569  -0.00060   0.00000  -0.02704  -0.02708  -1.67277
   D44        0.06830  -0.00241   0.00000  -0.06126  -0.06143   0.00687
   D45       -3.02926  -0.00339   0.00000  -0.10662  -0.10648  -3.13573
   D46       -3.07298  -0.00267   0.00000  -0.07598  -0.07612   3.13409
   D47        0.11265  -0.00366   0.00000  -0.12134  -0.12116  -0.00852
   D48        2.39247  -0.00083   0.00000  -0.06918  -0.06895   2.32351
   D49       -1.79032  -0.00098   0.00000  -0.05365  -0.05356  -1.84388
   D50        0.25145   0.00048   0.00000  -0.03803  -0.03803   0.21343
   D51       -0.70648  -0.00170   0.00000  -0.11260  -0.11259  -0.81907
   D52        1.39391  -0.00185   0.00000  -0.09707  -0.09719   1.29672
   D53       -2.84750  -0.00039   0.00000  -0.08145  -0.08166  -2.92916
         Item               Value     Threshold  Converged?
 Maximum Force            0.015707     0.002500     NO 
 RMS     Force            0.002532     0.001667     NO 
 Maximum Displacement     0.814461     0.010000     NO 
 RMS     Displacement     0.181972     0.006667     NO 
 Predicted change in Energy=-3.023741D-03
 Lowest energy point so far.  Saving SCF results.
 GradGradGradGradGradGradGradGradGradGradGradGradGradGradGradGradGradGrad

 Leave Link  103 at Mon Jul 19 21:09:25 2021, MaxMem=   524288000 cpu:               0.6 elap:               0.2
 (Enter /opt/gaussian/g16_legacy/l202.exe)
                          Input orientation:                          
 ---------------------------------------------------------------------
 Center     Atomic      Atomic             Coordinates (Angstroms)
 Number     Number       Type             X           Y           Z
 ---------------------------------------------------------------------
      1          6           0        2.148189    1.134944   -8.974159
      2          1           0        1.900662    0.091442   -9.209006
      3          1           0        1.989019    1.707303   -9.895108
      4          6           0        3.601486    1.234927   -8.561027
      5          6           0        4.195637    0.051590   -7.831286
      6          1           0        4.907742    0.353508   -7.059572
      7          1           0        3.416851   -0.535847   -7.340093
      8          1           0        4.714899   -0.615728   -8.528728
      9          6           0        4.298396    2.335484   -8.846447
     10          1           0        3.788934    3.130237   -9.392847
[...]
                 (A) (A) (A) (A) (A) (A) (A) (A) (A) (A) (A) (A)
                 (A) (A) (A) (A) (A) (A) (A) (A) (A) (A) (A) (A)
                 (A) (A) (A) (A) (A) (A) (A) (A) (A) (A) (A) (A)
                 (A) (A) (A) (A) (A) (A) (A) (A) (A) (A) (A) (A)
                 (A) (A) (A) (A) (A) (A) (A) (A) (A) (A) (A) (A)
                 (A) (A) (A) (A) (A) (A) (A) (A) (A) (A) (A) (A)
                 (A) (A) (A) (A) (A) (A) (A) (A) (A) (A) (A) (A)
                 (A) (A) (A) (A) (A) (A) (A) (A) (A) (A) (A) (A)
                 (A) (A) (A) (A) (A) (A) (A) (A) (A) (A) (A) (A)
                 (A) (A) (A) (A) (A) (A) (A) (A) (A) (A) (A) (A)
                 (A) (A) (A) (A) (A) (A) (A) (A) (A) (A) (A) (A)
                 (A) (A) (A) (A) (A) (A) (A) (A) (A)
 The electronic state is 1-A.
 Alpha  occ. eigenvalues --  -10.54459 -10.54038 -10.53859 -10.53772 -10.53345
 Alpha  occ. eigenvalues --  -10.53326 -10.53135 -10.53122 -10.52999 -10.52937
 Alpha  occ. eigenvalues --   -0.92208  -0.89657  -0.84747  -0.80799  -0.77563
 Alpha  occ. eigenvalues --   -0.76594  -0.72425  -0.67897  -0.58528  -0.57647
 Alpha  occ. eigenvalues --   -0.53796  -0.52333  -0.50344  -0.49739  -0.48496
 Alpha  occ. eigenvalues --   -0.47859  -0.46289  -0.44855  -0.44095  -0.43885
 Alpha  occ. eigenvalues --   -0.43604  -0.42326  -0.41598  -0.40599  -0.39438
 Alpha  occ. eigenvalues --   -0.37170  -0.36583  -0.28871  -0.26894
 Alpha virt. eigenvalues --    0.06854   0.07699   0.12670   0.15267   0.15787
 Alpha virt. eigenvalues --    0.16909   0.17689   0.19068   0.19372   0.20365
 Alpha virt. eigenvalues --    0.21004   0.21574   0.22355   0.22718   0.23609
 Alpha virt. eigenvalues --    0.24106   0.25139   0.26097   0.27793   0.28298
 Alpha virt. eigenvalues --    0.28949   0.29523   0.29838   0.31109   0.33421
 Alpha virt. eigenvalues --    0.37825   0.39580   0.48012   0.49578   0.50279
 Alpha virt. eigenvalues --    0.54613   0.55190   0.57436   0.57814   0.60537
 Alpha virt. eigenvalues --    0.61142   0.62729   0.63493   0.65500   0.66477
 Alpha virt. eigenvalues --    0.68375   0.69038   0.70423   0.70709   0.72076
 Alpha virt. eigenvalues --    0.73902   0.77252   0.77613   0.79520   0.80322
 Alpha virt. eigenvalues --    0.81648   0.83296   0.84256   0.85069   0.86632
 Alpha virt. eigenvalues --    0.88773   0.89372   0.90232   0.92718   0.92892
 Alpha virt. eigenvalues --    0.94137   0.94621   0.95872   0.96209   0.96276
 Alpha virt. eigenvalues --    0.98165   0.99337   0.99736   1.00131   1.01754
 Alpha virt. eigenvalues --    1.02251   1.03773   1.05226   1.06741   1.08345
 Alpha virt. eigenvalues --    1.09239   1.10605   1.21526   1.23567   1.25992
 Alpha virt. eigenvalues --    1.27541   1.28614   1.34696   1.37348   1.39039
 Alpha virt. eigenvalues --    1.40717   1.46515   1.47766   1.49165   1.52509
 Alpha virt. eigenvalues --    1.54687   1.55350   1.67926   1.69056   1.72640
 Alpha virt. eigenvalues --    1.75452   1.78043   1.79229   1.82153   1.83229
 Alpha virt. eigenvalues --    1.83976   1.84811   1.86692   1.88931   1.90065
 Alpha virt. eigenvalues --    1.90965   1.93848   1.95081   2.01211   2.02359
 Alpha virt. eigenvalues --    2.03158   2.04880   2.06225   2.09803   2.09931
 Alpha virt. eigenvalues --    2.10201   2.10780   2.12237   2.13248   2.15376
 Alpha virt. eigenvalues --    2.16668   2.16894   2.17310   2.18738   2.19791
 Alpha virt. eigenvalues --    2.20142   2.22109   2.23405   2.23963   2.26861
 Alpha virt. eigenvalues --    2.29062   2.30327   2.31676   2.34950   2.36306
 Alpha virt. eigenvalues --    2.38595   2.41528   2.41885   2.43757   2.44532
 Alpha virt. eigenvalues --    2.46747   2.47193   2.50915   2.52448   2.54373
 Alpha virt. eigenvalues --    2.56227   2.56952   2.60004   2.63038   2.63470
 Alpha virt. eigenvalues --    2.65217   2.67832   2.68235   2.70185   2.72071
 Alpha virt. eigenvalues --    2.74539   2.75496   2.78907   2.81823   2.82357
 Alpha virt. eigenvalues --    2.85553   2.86119   2.86739   2.87144   2.88808
 Alpha virt. eigenvalues --    2.90222   2.92694   2.93566   2.93723   3.03873
 Alpha virt. eigenvalues --    3.04699   3.07948   3.09569   3.17321   3.19145
 Alpha virt. eigenvalues --    3.24474   3.24764   3.27953   3.32206   3.40416
 Alpha virt. eigenvalues --    3.41192   3.43462   3.44047   3.44336   3.44710
 Alpha virt. eigenvalues --    3.46049   3.47230   3.48436   3.50924   3.52427
 Alpha virt. eigenvalues --    3.54596   4.19120   4.25526   4.34859   4.44304
 Alpha virt. eigenvalues --    4.51376   4.51766   4.54846   4.70410   4.71643
 Alpha virt. eigenvalues --    4.75236
          Condensed to atoms (all electrons):
               1          2          3          4          5          6
     1  C    5.050400   0.385230   0.380797   0.354163  -0.063198   0.004862
     2  H    0.385230   0.616087  -0.032109  -0.040714  -0.004810   0.000147
     3  H    0.380797  -0.032109   0.595804  -0.033518   0.004192  -0.000175
     4  C    0.354163  -0.040714  -0.033518   4.758155   0.381233  -0.030620
     5  C   -0.063198  -0.004810   0.004192   0.381233   5.007941   0.381988
     6  H    0.004862   0.000147  -0.000175  -0.030620   0.381988   0.584545
     7  H   -0.000662   0.000425   0.000093  -0.038163   0.379237  -0.026201
     8  H   -0.005565   0.003464   0.000041  -0.031364   0.378783  -0.028000
     9  C   -0.046419   0.004340  -0.007395   0.712773  -0.053786  -0.007367
    10  H   -0.012178   0.000208   0.004410  -0.042521   0.006468  -0.000028
    11  C    0.005434  -0.000180   0.000045  -0.034473  -0.015342   0.000846
    12  H    0.000080   0.000001   0.000007  -0.006285   0.001068   0.003752
    13  H   -0.000163   0.000005   0.000015  -0.000601   0.000396  -0.000151
    14  H   -0.000094  -0.000000  -0.000016  -0.000522   0.000407  -0.000094
    15  C   -0.000084  -0.000001   0.000003  -0.000131  -0.000093  -0.000014
    16  H   -0.000006   0.000003   0.000000   0.000005  -0.000009  -0.000000
    17  H    0.000034  -0.000001  -0.000000  -0.000022   0.000268  -0.000010
    18  H   -0.000007   0.000000   0.000000   0.000001  -0.000004   0.000000
    19  C   -0.005488   0.000212  -0.000013   0.003958  -0.005286   0.000312
    20  C    0.000112  -0.000004  -0.000017   0.000155  -0.000018  -0.000078
    21  H   -0.000917   0.000010   0.000064   0.000847  -0.000008  -0.000004
    22  H   -0.000050   0.000001   0.000001   0.000198  -0.000019   0.000002
    23  H    0.000241  -0.000001  -0.000007  -0.000564   0.001090  -0.000006
    24  C   -0.058803  -0.004890   0.005408  -0.002726  -0.003990  -0.000014
    25  H    0.000543   0.002250  -0.000138  -0.000542   0.000060   0.000004
    26  C    0.350751  -0.040607  -0.032087  -0.048257  -0.000485  -0.000075
    27  H   -0.039841  -0.003111  -0.003695   0.006135  -0.000195   0.000004
    28  H   -0.038541   0.005608  -0.004005  -0.008547   0.000080   0.000007
               7          8          9         10         11         12
     1  C   -0.000662  -0.005565  -0.046419  -0.012178   0.005434   0.000080
     2  H    0.000425   0.003464   0.004340   0.000208  -0.000180   0.000001
     3  H    0.000093   0.000041  -0.007395   0.004410   0.000045   0.000007
     4  C   -0.038163  -0.031364   0.712773  -0.042521  -0.034473  -0.006285
     5  C    0.379237   0.378783  -0.053786   0.006468  -0.015342   0.001068
     6  H   -0.026201  -0.028000  -0.007367  -0.000028   0.000846   0.003752
     7  H    0.575993  -0.032596   0.000206  -0.000188   0.000411  -0.000201
     8  H   -0.032596   0.585323   0.000859  -0.000159   0.000422  -0.000116
     9  C    0.000206   0.000859   4.902857   0.380199   0.360737  -0.036111
    10  H   -0.000188  -0.000159   0.380199   0.623201  -0.053862   0.004579
    11  C    0.000411   0.000422   0.360737  -0.053862   4.969336   0.389810
    12  H   -0.000201  -0.000116  -0.036111   0.004579   0.389810   0.578561
    13  H   -0.000023   0.000049  -0.032554  -0.001602   0.385493  -0.027754
    14  H    0.000051  -0.000031  -0.034502  -0.001523   0.383448  -0.028397
    15  C    0.000323   0.000001   0.000002  -0.000000  -0.000001  -0.000000
    16  H    0.000003   0.000000   0.000000   0.000000  -0.000000  -0.000000
    17  H   -0.000104  -0.000007  -0.000003  -0.000000   0.000000  -0.000000
    18  H    0.000031   0.000000  -0.000000  -0.000000   0.000000  -0.000000
    19  C    0.003009   0.000137   0.000400  -0.000011   0.000000  -0.000004
    20  C   -0.000589   0.000022  -0.001119  -0.000145  -0.000148  -0.000028
    21  H   -0.000067   0.000004   0.002466   0.000203  -0.000254  -0.000006
    22  H    0.000010   0.000000   0.000196   0.000002  -0.000004   0.000000
    23  H   -0.000418  -0.000013  -0.000501   0.000002   0.000381   0.000112
    24  C    0.008500   0.000224  -0.001072   0.000209   0.000000   0.000004
    25  H    0.000393  -0.000025  -0.000002   0.000001  -0.000000  -0.000000
    26  C   -0.000807   0.000051  -0.007621  -0.000219   0.000011  -0.000011
    27  H   -0.000056   0.000017   0.000252  -0.000107   0.000003   0.000000
    28  H    0.000097  -0.000000   0.003348   0.001810  -0.000198   0.000004
              13         14         15         16         17         18
     1  C   -0.000163  -0.000094  -0.000084  -0.000006   0.000034  -0.000007
     2  H    0.000005  -0.000000  -0.000001   0.000003  -0.000001   0.000000
     3  H    0.000015  -0.000016   0.000003   0.000000  -0.000000   0.000000
     4  C   -0.000601  -0.000522  -0.000131   0.000005  -0.000022   0.000001
     5  C    0.000396   0.000407  -0.000093  -0.000009   0.000268  -0.000004
     6  H   -0.000151  -0.000094  -0.000014  -0.000000  -0.000010   0.000000
     7  H   -0.000023   0.000051   0.000323   0.000003  -0.000104   0.000031
     8  H    0.000049  -0.000031   0.000001   0.000000  -0.000007   0.000000
     9  C   -0.032554  -0.034502   0.000002   0.000000  -0.000003  -0.000000
    10  H   -0.001602  -0.001523  -0.000000   0.000000  -0.000000  -0.000000
    11  C    0.385493   0.383448  -0.000001  -0.000000   0.000000   0.000000
    12  H   -0.027754  -0.028397  -0.000000  -0.000000  -0.000000  -0.000000
    13  H    0.579582  -0.034519   0.000000  -0.000000  -0.000000  -0.000000
    14  H   -0.034519   0.586195   0.000000  -0.000000   0.000000   0.000000
    15  C    0.000000   0.000000   5.008265   0.384677   0.381505   0.380689
    16  H   -0.000000  -0.000000   0.384677   0.572108  -0.026799  -0.026252
    17  H   -0.000000   0.000000   0.381505  -0.026799   0.594234  -0.036653
    18  H   -0.000000   0.000000   0.380689  -0.026252  -0.036653   0.588323
    19  C   -0.000000  -0.000001   0.367256  -0.033838  -0.037520  -0.034189
    20  C    0.000008   0.000289  -0.078507   0.004785  -0.001015  -0.001951
    21  H    0.000014   0.000123   0.004886  -0.000174  -0.000044  -0.000016
    22  H    0.000000  -0.000047  -0.003653   0.000021  -0.001070   0.004546
    23  H   -0.000002   0.000438  -0.002060  -0.000049   0.003940  -0.000684
    24  C   -0.000001   0.000001  -0.038417  -0.004954  -0.001507  -0.000796
    25  H   -0.000000   0.000000  -0.014424   0.006693   0.000224   0.000288
    26  C   -0.000006   0.000031   0.005887   0.000096  -0.000119  -0.000198
    27  H    0.000000  -0.000001  -0.000172  -0.000008  -0.000002   0.000011
    28  H    0.000002   0.000002   0.000066   0.000011  -0.000008   0.000011
              19         20         21         22         23         24
     1  C   -0.005488   0.000112  -0.000917  -0.000050   0.000241  -0.058803
     2  H    0.000212  -0.000004   0.000010   0.000001  -0.000001  -0.004890
     3  H   -0.000013  -0.000017   0.000064   0.000001  -0.000007   0.005408
     4  C    0.003958   0.000155   0.000847   0.000198  -0.000564  -0.002726
     5  C   -0.005286  -0.000018  -0.000008  -0.000019   0.001090  -0.003990
     6  H    0.000312  -0.000078  -0.000004   0.000002  -0.000006  -0.000014
     7  H    0.003009  -0.000589  -0.000067   0.000010  -0.000418   0.008500
     8  H    0.000137   0.000022   0.000004   0.000000  -0.000013   0.000224
     9  C    0.000400  -0.001119   0.002466   0.000196  -0.000501  -0.001072
    10  H   -0.000011  -0.000145   0.000203   0.000002   0.000002   0.000209
    11  C    0.000000  -0.000148  -0.000254  -0.000004   0.000381   0.000000
    12  H   -0.000004  -0.000028  -0.000006   0.000000   0.000112   0.000004
    13  H   -0.000000   0.000008   0.000014   0.000000  -0.000002  -0.000001
    14  H   -0.000001   0.000289   0.000123  -0.000047   0.000438   0.000001
    15  C    0.367256  -0.078507   0.004886  -0.003653  -0.002060  -0.038417
    16  H   -0.033838   0.004785  -0.000174   0.000021  -0.000049  -0.004954
    17  H   -0.037520  -0.001015  -0.000044  -0.001070   0.003940  -0.001507
    18  H   -0.034189  -0.001951  -0.000016   0.004546  -0.000684  -0.000796
    19  C    4.723198   0.383190  -0.026368  -0.037481  -0.034101   0.712918
    20  C    0.383190   4.994839   0.382290   0.379698   0.381962  -0.051980
    21  H   -0.026368   0.382290   0.570463  -0.026024  -0.028405  -0.008376
    22  H   -0.037481   0.379698  -0.026024   0.595807  -0.035532   0.001836
    23  H   -0.034101   0.381962  -0.028405  -0.035532   0.588690  -0.001569
    24  C    0.712918  -0.051980  -0.008376   0.001836  -0.001569   4.920486
    25  H   -0.035086   0.006433  -0.000003  -0.000162  -0.000178   0.376390
    26  C   -0.039154  -0.014612   0.001669   0.000141   0.000713   0.370099
    27  H    0.002946   0.000320   0.000016   0.000020  -0.000021  -0.033025
    28  H   -0.006353   0.000085   0.003695   0.000095  -0.000306  -0.040996
              25         26         27         28
     1  C    0.000543   0.350751  -0.039841  -0.038541
     2  H    0.002250  -0.040607  -0.003111   0.005608
     3  H   -0.000138  -0.032087  -0.003695  -0.004005
     4  C   -0.000542  -0.048257   0.006135  -0.008547
     5  C    0.000060  -0.000485  -0.000195   0.000080
     6  H    0.000004  -0.000075   0.000004   0.000007
     7  H    0.000393  -0.000807  -0.000056   0.000097
     8  H   -0.000025   0.000051   0.000017  -0.000000
     9  C   -0.000002  -0.007621   0.000252   0.003348
    10  H    0.000001  -0.000219  -0.000107   0.001810
    11  C   -0.000000   0.000011   0.000003  -0.000198
    12  H   -0.000000  -0.000011   0.000000   0.000004
    13  H   -0.000000  -0.000006   0.000000   0.000002
    14  H    0.000000   0.000031  -0.000001   0.000002
    15  C   -0.014424   0.005887  -0.000172   0.000066
    16  H    0.006693   0.000096  -0.000008   0.000011
    17  H    0.000224  -0.000119  -0.000002  -0.000008
    18  H    0.000288  -0.000198   0.000011   0.000011
    19  C   -0.035086  -0.039154   0.002946  -0.006353
    20  C    0.006433  -0.014612   0.000320   0.000085
    21  H   -0.000003   0.001669   0.000016   0.003695
    22  H   -0.000162   0.000141   0.000020   0.000095
    23  H   -0.000178   0.000713  -0.000021  -0.000306
    24  C    0.376390   0.370099  -0.033025  -0.040996
    25  H    0.617814  -0.052858  -0.005313   0.004777
    26  C   -0.052858   4.973995   0.380145   0.391873
    27  H   -0.005313   0.380145   0.611340  -0.032268
    28  H    0.004777   0.391873  -0.032268   0.605521
 Mulliken charges:
               1
     1  C   -0.260634
     2  H    0.108437
     3  H    0.122295
     4  C    0.101948
     5  C   -0.395968
     6  H    0.116370
     7  H    0.131293
     8  H    0.128478
     9  C   -0.140185
    10  H    0.091251
    11  C   -0.391915
    12  H    0.120936
    13  H    0.131812
    14  H    0.128761
    15  C   -0.396003
    16  H    0.123687
    17  H    0.124681
    18  H    0.126851
    19  C    0.097358
    20  C   -0.383978
    21  H    0.123916
    22  H    0.121468
    23  H    0.126847
    24  C   -0.142960
    25  H    0.092861
    26  C   -0.238344
    27  H    0.116609
    28  H    0.114128
 Sum of Mulliken charges =  -0.00000
 Mulliken charges with hydrogens summed into heavy atoms:
               1
     1  C   -0.029901
     4  C    0.101948
     5  C   -0.019827
     9  C   -0.048934
    11  C   -0.010406
    15  C   -0.020785
    19  C    0.097358
    20  C   -0.011747
    24  C   -0.050100
    26  C   -0.007607
 Electronic spatial extent (au):  <R**2>=           1832.5872
 Charge=              0.0000 electrons
 Dipole moment (field-independent basis, Debye):
    X=              0.0559    Y=             -0.2573    Z=              0.0994  Tot=              0.2815
 Quadrupole moment (field-independent basis, Debye-Ang):
   XX=            -65.4764   YY=            -62.8445   ZZ=            -64.1343
   XY=              0.1565   XZ=              1.5080   YZ=              0.2080
 Traceless Quadrupole moment (field-independent basis, Debye-Ang):
   XX=             -1.3247   YY=              1.3073   ZZ=              0.0174
   XY=              0.1565   XZ=              1.5080   YZ=              0.2080
 Octapole moment (field-independent basis, Debye-Ang**2):
  XXX=              1.9547  YYY=              1.5696  ZZZ=             -0.1156  XYY=              1.2817
  XXY=             -5.5348  XXZ=              0.1772  XZZ=             -2.7856  YZZ=              0.0139
  YYZ=              0.4715  XYZ=              2.5255
 Hexadecapole moment (field-independent basis, Debye-Ang**3):
 XXXX=          -1466.4613 YYYY=           -669.4792 ZZZZ=           -405.1908 XXXY=              4.0789
 XXXZ=             15.1403 YYYX=              1.6051 YYYZ=             -2.3953 ZZZX=              1.0425
 ZZZY=              2.1897 XXYY=           -351.6043 XXZZ=           -309.8213 YYZZ=           -174.3761
 XXYZ=              6.7335 YYXZ=             -0.7117 ZZXY=             -1.7332
 N-N= 5.436925791413D+02 E-N=-1.992542611746D+03  KE= 3.881308841889D+02
 No NMR shielding tensors so no spin-rotation constants.
 Leave Link  601 at Mon Jul 19 21:40:37 2021, MaxMem=   524288000 cpu:               0.8 elap:               0.2
 (Enter /opt/gaussian/g16_legacy/l9999.exe)
 1\1\GINC-TRUENO91\FOpt\RM062X\6-31G(d,p)\C10H18\JRAMOS\19-Jul-2021\0\\
 #p opt=loose m062x/6-31g(d,p)\\Conformer number 013. Energy MM = 27.09
 4 kcal/mol\\0,1\C,2.1398347831,0.9332252658,-8.9933229155\H,2.00280977
 03,-0.1486326913,-9.1113978995\H,2.0636070178,1.3752166505,-9.99273780
 8\C,3.5099708737,1.2187821093,-8.4065658843\C,4.1358837559,0.088074104
 8,-7.6357075521\H,5.0824170823,0.3577896483,-7.1660312198\H,3.44892685
 06,-0.2578031498,-6.8557468047\H,4.3188656638,-0.7640425145,-8.3009008
 344\C,4.0550723454,2.4283148445,-8.5727774062\H,3.4872205943,3.1479792
 364,-9.166344432\C,5.3503978657,2.9479911322,-8.0234930934\H,5.9026342
 537,2.1960052273,-7.458232145\H,6.0007897451,3.3068277983,-8.828181155
 9\H,5.1706872408,3.8005845343,-7.358364006\C,1.3669445622,0.5753810152
 ,-4.3331098194\H,0.8294675789,-0.3659653803,-4.467320511\H,2.367085456
 3,0.3488813135,-3.9441581844\H,0.8540699018,1.1586585735,-3.5596023412
 \C,1.4623038177,1.3544443711,-5.6189215005\C,2.2143731473,2.6535334082
 ,-5.5014498746\H,2.1926426035,3.2468724398,-6.4155891886\H,1.813909245
 3,3.255505047,-4.6777095996\H,3.2676054161,2.4526132099,-5.2672777473\
 C,0.9412341257,0.874838845,-6.7536884831\H,0.4549848211,-0.1007719314,
 -6.7068819449\C,0.9969470443,1.4974286325,-8.1207881789\H,0.0443176597
 ,1.3220407337,-8.6343414409\H,1.1226967774,2.582327526,-8.051958029\\V
 ersion=EM64L-G16RevA.03\State=1-A\HF=-391.6908171\RMSD=6.492e-09\RMSF=
 8.584e-06\Dipole=0.0599908,0.0022353,0.0930528\Quadrupole=-0.8060502,0
 .6848229,0.1212273,0.7651648,1.0236521,-0.2277273\PG=C01 [X(C10H18)]\\
 @


 HIGGLEDY-PIGGLEDY
 NIC'LAUS COPERNICUS
 LOOKED AT THE UNIVERSE,
 SPOKE TO THE THRONG;
 GIVE UP YOUR PTOLOMY,
 RISE UP AND FOLLOW ME,
 HELIOCENTRICALLY
 PTOLEMY'S WRONG.
   -- NANCY L. STARK
 Job cpu time:       0 days  2 hours  7 minutes 33.6 seconds.
 Elapsed time:       0 days  0 hours 33 minutes 29.3 seconds.
 File lengths (MBytes):  RWF=     33 Int=      0 D2E=      0 Chk=      6 Scr=      1
 Normal termination of Gaussian 16 at Mon Jul 19 21:40:38 2021.
