 Entering Gaussian System, Link 0=/opt/gaussian/g16_legacy/g16
 Input=IsoP_pybabel_01_002_gaussian.com
 Output=IsoP_pybabel_01_002_gaussian.log
 Initial command:
 /opt/gaussian/g16_legacy/l1.exe "/scratch-local/jramos/2644942/Gau-18514.inp" -scrdir="/scratch-local/jramos/2644942/"
 Entering Link 1 = /opt/gaussian/g16_legacy/l1.exe PID=     18516.
  
 Copyright (c) 1988,1990,1992,1993,1995,1998,2003,2009,2016,
            Gaussian, Inc.  All Rights Reserved.
  
 This is part of the Gaussian(R) 16 program.  It is based on
 the Gaussian(R) 09 system (copyright 2009, Gaussian, Inc.),
 the Gaussian(R) 03 system (copyright 2003, Gaussian, Inc.),
 the Gaussian(R) 98 system (copyright 1998, Gaussian, Inc.),
 the Gaussian(R) 94 system (copyright 1995, Gaussian, Inc.),
 the Gaussian 92(TM) system (copyright 1992, Gaussian, Inc.),
 the Gaussian 90(TM) system (copyright 1990, Gaussian, Inc.),
 the Gaussian 88(TM) system (copyright 1988, Gaussian, Inc.),
 the Gaussian 86(TM) system (copyright 1986, Carnegie Mellon
 University), and the Gaussian 82(TM) system (copyright 1983,
 Carnegie Mellon University). Gaussian is a federally registered
 trademark of Gaussian, Inc.
  
 This software contains proprietary and confidential information,
 including trade secrets, belonging to Gaussian, Inc.
  
 This software is provided under written license and may be
 used, copied, transmitted, or stored only in accord with that
 written license.
  
 The following legend is applicable only to US Government
 contracts under FAR:
  
                    RESTRICTED RIGHTS LEGEND
  
 Use, reproduction and disclosure by the US Government is
 subject to restrictions as set forth in subparagraphs (a)
 and (c) of the Commercial Computer Software - Restricted
 Rights clause in FAR 52.227-19.
  
 Gaussian, Inc.
 340 Quinnipiac St., Bldg. 40, Wallingford CT 06492
  
  
 ---------------------------------------------------------------
 Warning -- This program may not be used in any manner that
 competes with the business of Gaussian, Inc. or will provide
 assistance to any competitor of Gaussian, Inc.  The licensee
 of this program is prohibited from giving any competitor of
 Gaussian, Inc. access to this program.  By using this program,
 the user acknowledges that Gaussian, Inc. is engaged in the
 business of creating and licensing software in the field of
 computational chemistry and represents and warrants to the
 licensee that it is not a competitor of Gaussian, Inc. and that
 it will not use this program in any manner prohibited above.
 ---------------------------------------------------------------
  

 Cite this work as:
 Gaussian 16, Revision A.03,
 M. J. Frisch, G. W. Trucks, H. B. Schlegel, G. E. Scuseria, 
 M. A. Robb, J. R. Cheeseman, G. Scalmani, V. Barone, 
 G. A. Petersson, H. Nakatsuji, X. Li, M. Caricato, A. V. Marenich, 
 J. Bloino, B. G. Janesko, R. Gomperts, B. Mennucci, H. P. Hratchian, 
 J. V. Ortiz, A. F. Izmaylov, J. L. Sonnenberg, D. Williams-Young, 
 F. Ding, F. Lipparini, F. Egidi, J. Goings, B. Peng, A. Petrone, 
 T. Henderson, D. Ranasinghe, V. G. Zakrzewski, J. Gao, N. Rega, 
 G. Zheng, W. Liang, M. Hada, M. Ehara, K. Toyota, R. Fukuda, 
 J. Hasegawa, M. Ishida, T. Nakajima, Y. Honda, O. Kitao, H. Nakai, 
 T. Vreven, K. Throssell, J. A. Montgomery, Jr., J. E. Peralta, 
 F. Ogliaro, M. J. Bearpark, J. J. Heyd, E. N. Brothers, K. N. Kudin, 
 V. N. Staroverov, T. A. Keith, R. Kobayashi, J. Normand, 
 K. Raghavachari, A. P. Rendell, J. C. Burant, S. S. Iyengar, 
 J. Tomasi, M. Cossi, J. M. Millam, M. Klene, C. Adamo, R. Cammi, 
 J. W. Ochterski, R. L. Martin, K. Morokuma, O. Farkas, 
 J. B. Foresman, and D. J. Fox, Gaussian, Inc., Wallingford CT, 2016.
 
 ******************************************
 Gaussian 16:  EM64L-G16RevA.03 25-Dec-2016
                19-Jul-2021 
 ******************************************
 %chk=IsoP_pybabel_01_002_gaussian.chk
 %nproc=4
 Will use up to    4 processors via shared memory.
 %mem=4000Mb
 -----------------------------
 #p opt=loose m062x/6-31g(d,p)
 -----------------------------
 1/7=-1,18=20,19=15,26=3,38=1/1,3;
 2/9=110,12=2,17=6,18=5,40=1/2;
 3/5=1,6=6,7=101,11=2,25=1,30=1,71=1,74=-55/1,2,3;
 4//1;
 5/5=2,38=5/2;
 6/7=2,8=2,9=2,10=2,28=1/1;
 7//1,2,3,16;
 1/7=-1,18=20,19=15,26=3/3(2);
 2/9=110/2;
 99//99;
 2/9=110/2;
 3/5=1,6=6,7=101,11=2,25=1,30=1,71=1,74=-55/1,2,3;
 4/5=5,16=3,69=1/1;
 5/5=2,38=5/2;
 7//1,2,3,16;
 1/7=-1,18=20,19=15,26=3/3(-5);
 2/9=110/2;
 6/7=2,8=2,9=2,10=2,19=2,28=1/1;
 99/9=1/99;
 Leave Link    1 at Mon Jul 19 20:20:49 2021, MaxMem=   524288000 cpu:               0.3 elap:               0.1
 (Enter /opt/gaussian/g16_legacy/l101.exe)
 -------------------------------------------------
 Conformer number 002. Energy MM = 25.192 kcal/mol
 -------------------------------------------------
 Symbolic Z-matrix:
 Charge =  0 Multiplicity = 1
 C                     2.1786    1.1978   -8.9628 
 H                     1.8897    0.1857   -9.2733 
 H                     2.0434    1.8274   -9.8525 
 C                     3.6354    1.2104   -8.5503 
 C                     4.13     -0.0383   -7.871 
 H                     4.9185    0.1703   -7.1424 
 H                     3.3206   -0.529    -7.32 
 H                     4.5107   -0.7442   -8.6153 
 C                     4.4039    2.2873   -8.8034 
 H                     3.946     3.1466   -9.2945 
 C                     5.8571    2.4652   -8.4962 
 H                     6.3251    1.5715   -8.0786 
 H                     6.3956    2.7213   -9.4141 
 H                     5.9864    3.2861   -7.7849 
 C                    -2.2369    2.8508   -9.1418 
 H                    -2.7164    1.9026   -8.877 
 H                    -2.7627    3.65     -8.6093 
 H                    -2.3701    3.0024   -10.218 
 C                    -0.774     2.8674   -8.7917 
 C                    -0.0651    4.1616   -9.084 
 H                     1.0072    4.023    -9.2497 
 H                    -0.4628    4.6214   -9.9947 
 H                    -0.202     4.8639   -8.2555 
 C                    -0.1697    1.7812   -8.2714 
 H                    -0.7536    0.8756   -8.1115 
 C                     1.2679    1.692    -7.8341 
 H                     1.6111    2.6648   -7.46 
 H                     1.3246    1.011    -6.9755 
 
 ITRead=  0  0  0  0  0  0  0  0  0  0  0  0  0  0  0  0  0  0  0  0
 ITRead=  0  0  0  0  0  0  0  0
 MicOpt= -1 -1 -1 -1 -1 -1 -1 -1 -1 -1 -1 -1 -1 -1 -1 -1 -1 -1 -1 -1
 MicOpt= -1 -1 -1 -1 -1 -1 -1 -1
 NAtoms=     28 NQM=       28 NQMF=       0 NMMI=      0 NMMIF=      0
                NMic=       0 NMicF=      0.
                    Isotopes and Nuclear Properties:
 (Nuclear quadrupole moments (NQMom) in fm**2, nuclear magnetic moments (NMagM)
  in nuclear magnetons)

  Atom         1           2           3           4           5           6           7           8           9          10
 IAtWgt=          12           1           1          12          12           1           1           1          12           1
 AtmWgt=  12.0000000   1.0078250   1.0078250  12.0000000  12.0000000   1.0078250   1.0078250   1.0078250  12.0000000   1.0078250
 NucSpn=           0           1           1           0           0           1           1           1           0           1
 AtZEff=  -0.0000000  -0.0000000  -0.0000000  -0.0000000  -0.0000000  -0.0000000  -0.0000000  -0.0000000  -0.0000000  -0.0000000
 NQMom=    0.0000000   0.0000000   0.0000000   0.0000000   0.0000000   0.0000000   0.0000000   0.0000000   0.0000000   0.0000000
 NMagM=    0.0000000   2.7928460   2.7928460   0.0000000   0.0000000   2.7928460   2.7928460   2.7928460   0.0000000   2.7928460
 AtZNuc=   6.0000000   1.0000000   1.0000000   6.0000000   6.0000000   1.0000000   1.0000000   1.0000000   6.0000000   1.0000000

  Atom        11          12          13          14          15          16          17          18          19          20
 IAtWgt=          12           1           1           1          12           1           1           1          12          12
 AtmWgt=  12.0000000   1.0078250   1.0078250   1.0078250  12.0000000   1.0078250   1.0078250   1.0078250  12.0000000  12.0000000
 NucSpn=           0           1           1           1           0           1           1           1           0           0
 AtZEff=  -0.0000000  -0.0000000  -0.0000000  -0.0000000  -0.0000000  -0.0000000  -0.0000000  -0.0000000  -0.0000000  -0.0000000
 NQMom=    0.0000000   0.0000000   0.0000000   0.0000000   0.0000000   0.0000000   0.0000000   0.0000000   0.0000000   0.0000000
 NMagM=    0.0000000   2.7928460   2.7928460   2.7928460   0.0000000   2.7928460   2.7928460   2.7928460   0.0000000   0.0000000
 AtZNuc=   6.0000000   1.0000000   1.0000000   1.0000000   6.0000000   1.0000000   1.0000000   1.0000000   6.0000000   6.0000000

  Atom        21          22          23          24          25          26          27          28
 IAtWgt=           1           1           1          12           1          12           1           1
 AtmWgt=   1.0078250   1.0078250   1.0078250  12.0000000   1.0078250  12.0000000   1.0078250   1.0078250
 NucSpn=           1           1           1           0           1           0           1           1
 AtZEff=  -0.0000000  -0.0000000  -0.0000000  -0.0000000  -0.0000000  -0.0000000  -0.0000000  -0.0000000
 NQMom=    0.0000000   0.0000000   0.0000000   0.0000000   0.0000000   0.0000000   0.0000000   0.0000000
 NMagM=    2.7928460   2.7928460   2.7928460   0.0000000   2.7928460   0.0000000   2.7928460   2.7928460
 AtZNuc=   1.0000000   1.0000000   1.0000000   6.0000000   1.0000000   6.0000000   1.0000000   1.0000000
 Leave Link  101 at Mon Jul 19 20:20:50 2021, MaxMem=   524288000 cpu:               1.4 elap:               0.5
 (Enter /opt/gaussian/g16_legacy/l103.exe)

 GradGradGradGradGradGradGradGradGradGradGradGradGradGradGradGradGradGrad
 Berny optimization.
 Initialization pass.
                           ----------------------------
                           !    Initial Parameters    !
                           ! (Angstroms and Degrees)  !
 --------------------------                            --------------------------
 ! Name  Definition              Value          Derivative Info.                !
 --------------------------------------------------------------------------------
 ! R1    R(1,2)                  1.0974         estimate D2E/DX2                !
 ! R2    R(1,3)                  1.0983         estimate D2E/DX2                !
 ! R3    R(1,4)                  1.5141         estimate D2E/DX2                !
 ! R4    R(1,26)                 1.5322         estimate D2E/DX2                !
 ! R5    R(4,5)                  1.5051         estimate D2E/DX2                !
 ! R6    R(4,9)                  1.347          estimate D2E/DX2                !
 ! R7    R(5,6)                  1.0937         estimate D2E/DX2                !
 ! R8    R(5,7)                  1.0952         estimate D2E/DX2                !
 ! R9    R(5,8)                  1.0942         estimate D2E/DX2                !
 ! R10   R(9,10)                 1.0905         estimate D2E/DX2                !
 ! R11   R(9,11)                 1.4959         estimate D2E/DX2                !
 ! R12   R(11,12)                1.0918         estimate D2E/DX2                !
 ! R13   R(11,13)                1.0946         estimate D2E/DX2                !
 ! R14   R(11,14)                1.0939         estimate D2E/DX2                !
 ! R15   R(15,16)                1.095          estimate D2E/DX2                !
 ! R16   R(15,17)                1.0949         estimate D2E/DX2                !
 ! R17   R(15,18)                1.095          estimate D2E/DX2                !
 ! R18   R(15,19)                1.5043         estimate D2E/DX2                !
 ! R19   R(19,20)                1.5043         estimate D2E/DX2                !
 ! R20   R(19,24)                1.3475         estimate D2E/DX2                !
 ! R21   R(20,21)                1.0938         estimate D2E/DX2                !
 ! R22   R(20,22)                1.095          estimate D2E/DX2                !
 ! R23   R(20,23)                1.0947         estimate D2E/DX2                !
 ! R24   R(24,25)                1.0893         estimate D2E/DX2                !
 ! R25   R(24,26)                1.5053         estimate D2E/DX2                !
 ! R26   R(26,27)                1.0973         estimate D2E/DX2                !
 ! R27   R(26,28)                1.0973         estimate D2E/DX2                !
 ! A1    A(2,1,3)              105.4913         estimate D2E/DX2                !
 ! A2    A(2,1,4)              109.7586         estimate D2E/DX2                !
 ! A3    A(2,1,26)             110.4532         estimate D2E/DX2                !
 ! A4    A(3,1,4)              109.5337         estimate D2E/DX2                !
 ! A5    A(3,1,26)             109.7967         estimate D2E/DX2                !
 ! A6    A(4,1,26)             111.6232         estimate D2E/DX2                !
 ! A7    A(1,4,5)              115.609          estimate D2E/DX2                !
 ! A8    A(1,4,9)              120.2912         estimate D2E/DX2                !
 ! A9    A(5,4,9)              124.0982         estimate D2E/DX2                !
 ! A10   A(4,5,6)              112.2939         estimate D2E/DX2                !
 ! A11   A(4,5,7)              110.8497         estimate D2E/DX2                !
 ! A12   A(4,5,8)              110.0332         estimate D2E/DX2                !
 ! A13   A(6,5,7)              106.446          estimate D2E/DX2                !
 ! A14   A(6,5,8)              108.9885         estimate D2E/DX2                !
 ! A15   A(7,5,8)              108.0779         estimate D2E/DX2                !
 ! A16   A(4,9,10)             118.3613         estimate D2E/DX2                !
 ! A17   A(4,9,11)             127.6421         estimate D2E/DX2                !
 ! A18   A(10,9,11)            113.9956         estimate D2E/DX2                !
 ! A19   A(9,11,12)            113.4278         estimate D2E/DX2                !
 ! A20   A(9,11,13)            109.4832         estimate D2E/DX2                !
 ! A21   A(9,11,14)            109.7314         estimate D2E/DX2                !
 ! A22   A(12,11,13)           107.5401         estimate D2E/DX2                !
 ! A23   A(12,11,14)           108.3545         estimate D2E/DX2                !
 ! A24   A(13,11,14)           108.1534         estimate D2E/DX2                !
 ! A25   A(16,15,17)           107.708          estimate D2E/DX2                !
 ! A26   A(16,15,18)           107.7156         estimate D2E/DX2                !
 ! A27   A(16,15,19)           112.2784         estimate D2E/DX2                !
 ! A28   A(17,15,18)           108.5748         estimate D2E/DX2                !
 ! A29   A(17,15,19)           110.2291         estimate D2E/DX2                !
 ! A30   A(18,15,19)           110.2135         estimate D2E/DX2                !
 ! A31   A(15,19,20)           114.9957         estimate D2E/DX2                !
 ! A32   A(15,19,24)           121.1373         estimate D2E/DX2                !
 ! A33   A(20,19,24)           123.8622         estimate D2E/DX2                !
 ! A34   A(19,20,21)           112.4818         estimate D2E/DX2                !
 ! A35   A(19,20,22)           110.5926         estimate D2E/DX2                !
 ! A36   A(19,20,23)           110.2397         estimate D2E/DX2                !
 ! A37   A(21,20,22)           106.4554         estimate D2E/DX2                !
 ! A38   A(21,20,23)           108.574          estimate D2E/DX2                !
 ! A39   A(22,20,23)           108.3393         estimate D2E/DX2                !
 ! A40   A(19,24,25)           119.1064         estimate D2E/DX2                !
 ! A41   A(19,24,26)           126.0322         estimate D2E/DX2                !
 ! A42   A(25,24,26)           114.8354         estimate D2E/DX2                !
 ! A43   A(1,26,24)            111.886          estimate D2E/DX2                !
 ! A44   A(1,26,27)            110.5604         estimate D2E/DX2                !
 ! A45   A(1,26,28)            110.2129         estimate D2E/DX2                !
 ! A46   A(24,26,27)           110.1947         estimate D2E/DX2                !
 ! A47   A(24,26,28)           108.2658         estimate D2E/DX2                !
 ! A48   A(27,26,28)           105.5013         estimate D2E/DX2                !
 ! D1    D(2,1,4,5)            -34.7772         estimate D2E/DX2                !
 ! D2    D(2,1,4,9)            144.7811         estimate D2E/DX2                !
 ! D3    D(3,1,4,5)           -150.1542         estimate D2E/DX2                !
 ! D4    D(3,1,4,9)             29.4042         estimate D2E/DX2                !
 ! D5    D(26,1,4,5)            88.0289         estimate D2E/DX2                !
 ! D6    D(26,1,4,9)           -92.4127         estimate D2E/DX2                !
 ! D7    D(2,1,26,24)          -61.9208         estimate D2E/DX2                !
 ! D8    D(2,1,26,27)          174.8485         estimate D2E/DX2                !
 ! D9    D(2,1,26,28)           58.5993         estimate D2E/DX2                !
 ! D10   D(3,1,26,24)           54.0056         estimate D2E/DX2                !
 ! D11   D(3,1,26,27)          -69.2251         estimate D2E/DX2                !
 ! D12   D(3,1,26,28)          174.5257         estimate D2E/DX2                !
 ! D13   D(4,1,26,24)          175.6705         estimate D2E/DX2                !
 ! D14   D(4,1,26,27)           52.4398         estimate D2E/DX2                !
 ! D15   D(4,1,26,28)          -63.8094         estimate D2E/DX2                !
 ! D16   D(1,4,5,6)           -148.6819         estimate D2E/DX2                !
 ! D17   D(1,4,5,7)            -29.7626         estimate D2E/DX2                !
 ! D18   D(1,4,5,8)             89.7299         estimate D2E/DX2                !
 ! D19   D(9,4,5,6)             31.7787         estimate D2E/DX2                !
 ! D20   D(9,4,5,7)            150.698          estimate D2E/DX2                !
 ! D21   D(9,4,5,8)            -89.8096         estimate D2E/DX2                !
 ! D22   D(1,4,9,10)             0.9634         estimate D2E/DX2                !
 ! D23   D(1,4,9,11)          -178.6481         estimate D2E/DX2                !
 ! D24   D(5,4,9,10)          -179.5175         estimate D2E/DX2                !
 ! D25   D(5,4,9,11)             0.871          estimate D2E/DX2                !
 ! D26   D(4,9,11,12)            4.2752         estimate D2E/DX2                !
 ! D27   D(4,9,11,13)          124.3878         estimate D2E/DX2                !
 ! D28   D(4,9,11,14)         -117.0577         estimate D2E/DX2                !
 ! D29   D(10,9,11,12)        -175.3505         estimate D2E/DX2                !
 ! D30   D(10,9,11,13)         -55.2379         estimate D2E/DX2                !
 ! D31   D(10,9,11,14)          63.3166         estimate D2E/DX2                !
 ! D32   D(16,15,19,20)       -177.8759         estimate D2E/DX2                !
 ! D33   D(16,15,19,24)          2.8951         estimate D2E/DX2                !
 ! D34   D(17,15,19,20)        -57.791          estimate D2E/DX2                !
 ! D35   D(17,15,19,24)        122.9801         estimate D2E/DX2                !
 ! D36   D(18,15,19,20)         62.0402         estimate D2E/DX2                !
 ! D37   D(18,15,19,24)       -117.1888         estimate D2E/DX2                !
 ! D38   D(15,19,20,21)       -154.3755         estimate D2E/DX2                !
 ! D39   D(15,19,20,22)        -35.4949         estimate D2E/DX2                !
 ! D40   D(15,19,20,23)         84.292          estimate D2E/DX2                !
 ! D41   D(24,19,20,21)         24.8298         estimate D2E/DX2                !
 ! D42   D(24,19,20,22)        143.7103         estimate D2E/DX2                !
 ! D43   D(24,19,20,23)        -96.5028         estimate D2E/DX2                !
 ! D44   D(15,19,24,25)          0.518          estimate D2E/DX2                !
 ! D45   D(15,19,24,26)       -177.527          estimate D2E/DX2                !
 ! D46   D(20,19,24,25)       -178.6405         estimate D2E/DX2                !
 ! D47   D(20,19,24,26)          3.3145         estimate D2E/DX2                !
 ! D48   D(19,24,26,1)         -91.7445         estimate D2E/DX2                !
 ! D49   D(19,24,26,27)         31.6927         estimate D2E/DX2                !
 ! D50   D(19,24,26,28)        146.6081         estimate D2E/DX2                !
 ! D51   D(25,24,26,1)          90.1377         estimate D2E/DX2                !
 ! D52   D(25,24,26,27)       -146.4251         estimate D2E/DX2                !
 ! D53   D(25,24,26,28)        -31.5097         estimate D2E/DX2                !
 --------------------------------------------------------------------------------
 Trust Radius=3.00D-01 FncErr=1.00D-07 GrdErr=1.00D-06 EigMax=2.50D+02 EigMin=1.00D-04
 Number of steps in this run=    138 maximum allowed number of steps=    168.
 GradGradGradGradGradGradGradGradGradGradGradGradGradGradGradGradGradGrad

 Leave Link  103 at Mon Jul 19 20:20:50 2021, MaxMem=   524288000 cpu:               0.1 elap:               0.2
 (Enter /opt/gaussian/g16_legacy/l202.exe)
                          Input orientation:                          
 ---------------------------------------------------------------------
 Center     Atomic      Atomic             Coordinates (Angstroms)
 Number     Number       Type             X           Y           Z
 ---------------------------------------------------------------------
      1          6           0        2.178600    1.197800   -8.962800
      2          1           0        1.889700    0.185700   -9.273300
      3          1           0        2.043400    1.827400   -9.852500
      4          6           0        3.635400    1.210400   -8.550300
      5          6           0        4.130000   -0.038300   -7.871000
      6          1           0        4.918500    0.170300   -7.142400
      7          1           0        3.320600   -0.529000   -7.320000
      8          1           0        4.510700   -0.744200   -8.615300
      9          6           0        4.403900    2.287300   -8.803400
     10          1           0        3.946000    3.146600   -9.294500
     11          6           0        5.857100    2.465200   -8.496200
     12          1           0        6.325100    1.571500   -8.078600
     13          1           0        6.395600    2.721300   -9.414100
     14          1           0        5.986400    3.286100   -7.784900
     15          6           0       -2.236900    2.850800   -9.141800
     16          1           0       -2.716400    1.902600   -8.877000
     17          1           0       -2.762700    3.650000   -8.609300
     18          1           0       -2.370100    3.002400  -10.218000
     19          6           0       -0.774000    2.867400   -8.791700
     20          6           0       -0.065100    4.161600   -9.084000
     21          1           0        1.007200    4.023000   -9.249700
     22          1           0       -0.462800    4.621400   -9.994700
     23          1           0       -0.202000    4.863900   -8.255500
     24          6           0       -0.169700    1.781200   -8.271400
     25          1           0       -0.753600    0.875600   -8.111500
     26          6           0        1.267900    1.692000   -7.834100
     27          1           0        1.611100    2.664800   -7.460000
     28          1           0        1.324600    1.011000   -6.975500
 ---------------------------------------------------------------------
                    Distance matrix (angstroms):
                    1          2          3          4          5
     1  C    0.000000
     2  H    1.097370   0.000000
     3  H    1.098290   1.747648   0.000000
     4  C    1.514127   2.149467   2.147295   0.000000
     5  C    2.554982   2.652464   3.429443   1.505101   0.000000
     6  H    3.446254   3.703323   4.284486   2.170331   1.093665
     7  H    2.642876   2.524609   3.687468   2.153660   1.095224
     8  H    3.054638   2.857852   3.772447   2.142624   1.094171
     9  C    2.482817   3.310397   2.623753   1.346984   2.520477
    10  H    2.651707   3.604962   2.381499   2.097421   3.493393
    11  C    3.918594   4.641149   4.097639   2.552137   3.105038
    12  H    4.256163   4.797971   4.641677   2.754520   2.730022
    13  H    4.506419   5.172255   4.464627   3.263077   3.889665
    14  H    4.499754   5.348903   4.685085   3.228245   3.808578
    15  C    4.718166   4.914151   4.457960   6.125740   7.106282
    16  H    4.946224   4.931628   4.859316   6.397752   7.186955
    17  H    5.527630   5.838416   5.288290   6.847687   7.852258
    18  H    5.052008   5.193472   4.581833   6.485254   7.550203
    19  C    3.396275   3.810348   3.185065   4.716644   5.774080
    20  C    3.719273   4.434508   3.238032   4.763205   6.058828
    21  H    3.071847   3.937542   2.501547   3.912456   5.305361
    22  H    4.445543   5.072485   3.756021   5.524170   6.878715
    23  H    4.428072   5.224623   4.100312   5.306657   6.553291
    24  C    2.516526   2.791156   2.720262   3.857769   4.685971
    25  H    3.070231   2.968632   3.429317   4.423568   4.974194
    26  C    1.532179   2.174137   2.166488   2.519908   3.344685
    27  H    2.175443   3.084090   2.571416   2.720629   3.717597
    28  H    2.171076   2.506061   3.075762   2.803489   3.126215
                    6          7          8          9         10
     6  H    0.000000
     7  H    1.753239   0.000000
     8  H    1.781024   1.772132   0.000000
     9  C    2.739603   3.362374   3.039207   0.000000
    10  H    3.799428   4.218982   3.989802   1.090527   0.000000
    11  C    2.824944   4.096646   3.482417   1.495931   2.180342
    12  H    2.195075   3.743607   2.990411   2.174561   3.101527
    13  H    3.721565   4.940175   4.024999   2.127952   2.489121
    14  H    3.355805   4.677351   4.371564   2.130552   2.541965
    15  C    7.898255   6.754836   7.663637   6.673250   6.191855
    16  H    8.018815   6.691958   7.700975   7.131065   6.790391
    17  H    8.559261   7.492188   8.497728   7.297587   6.762364
    18  H    8.402606   7.297483   7.996941   6.956978   6.384886
    19  C    6.511459   5.519709   6.403345   5.210307   4.754909
    20  C    6.673571   6.047842   6.724916   4.854245   4.142880
    21  H    5.880670   5.458596   5.950056   3.840496   3.067023
    22  H    7.543626   6.927825   7.445006   5.527385   4.701365
    23  H    7.034799   6.509012   7.334152   5.305976   4.608096
    24  C    5.455219   4.292363   5.329358   4.632168   4.455338
    25  H    5.797355   4.381607   5.530861   5.391793   5.351931
    26  C    4.015084   3.067689   4.130508   3.335929   3.379475
    27  H    4.154792   3.625238   4.622086   3.122012   3.008202
    28  H    3.694692   2.544464   3.990101   3.801611   4.100035
                   11         12         13         14         15
    11  C    0.000000
    12  H    1.091839   0.000000
    13  H    1.094582   1.763681   0.000000
    14  H    1.093866   1.772239   1.772212   0.000000
    15  C    8.128857   8.722090   8.637764   8.345857   0.000000
    16  H    8.600374   9.082719   9.164458   8.879498   1.095045
    17  H    8.701580   9.337554   9.240381   8.795386   1.094871
    18  H    8.422589   9.068132   8.806973   8.708131   1.094957
    19  C    6.649855   7.251558   7.198048   6.847771   1.504301
    20  C    6.188355   6.968077   6.627524   6.250985   2.537371
    21  H    5.149372   5.971716   5.545837   5.242241   3.451069
    22  H    6.843671   7.684329   7.140387   6.946828   2.647620
    23  H    6.521073   7.312607   7.032881   6.403687   2.996484
    24  C    6.069655   6.501044   6.729986   6.356019   2.484946
    25  H    6.810006   7.112900   7.497629   7.165527   2.676399
    26  C    4.700742   5.064541   5.463439   4.980745   3.916187
    27  H    4.375165   4.878500   5.168476   4.431120   4.203588
    28  H    4.997077   5.151310   5.881066   5.250104   4.556534
                   16         17         18         19         20
    16  H    0.000000
    17  H    1.768393   0.000000
    18  H    1.768549   1.778043   0.000000
    19  C    2.170491   2.144915   2.144782   0.000000
    20  C    3.489315   2.786417   2.818284   1.504305   0.000000
    21  H    4.301186   3.842055   3.658604   2.172061   1.093844
    22  H    3.704030   2.855257   2.511736   2.149551   1.094968
    23  H    3.934179   2.855856   3.466590   2.144926   1.094705
    24  C    2.620529   3.214069   3.181563   1.347487   2.517452
    25  H    2.343780   3.461442   3.402013   2.104841   3.495366
    26  C    4.123911   4.547575   4.542595   2.543210   3.072143
    27  H    4.616936   4.628351   4.854945   2.739192   2.772622
    28  H    4.554156   5.132216   5.303799   3.339001   4.037737
                   21         22         23         24         25
    21  H    0.000000
    22  H    1.753285   0.000000
    23  H    1.776995   1.775286   0.000000
    24  C    2.714375   3.335027   3.082910   0.000000
    25  H    3.781804   4.202621   4.028838   1.089320   0.000000
    26  C    2.739607   4.030496   3.521240   1.505285   2.197708
    27  H    2.326463   3.814977   2.959086   2.147177   3.036033
    28  H    3.787463   5.034417   4.337482   2.122616   2.372287
                   26         27         28
    26  C    0.000000
    27  H    1.097304   0.000000
    28  H    1.097347   1.746962   0.000000
 Stoichiometry    C10H18
 Framework group  C1[X(C10H18)]
 Deg. of freedom    78
 Full point group                 C1      NOp   1
 Largest Abelian subgroup         C1      NOp   1
 Largest concise Abelian subgroup C1      NOp   1
                         Standard orientation:                         
 ---------------------------------------------------------------------
 Center     Atomic      Atomic             Coordinates (Angstroms)
 Number     Number       Type             X           Y           Z
 ---------------------------------------------------------------------
      1          6           0        0.504845   -0.619363   -0.612777
      2          1           0        0.441913   -1.552026   -1.187579
      3          1           0        0.146482    0.167415   -1.290123
      4          6           0        1.945861   -0.346047   -0.236810
      5          6           0        2.782357   -1.561444    0.060540
      6          1           0        3.557256   -1.359655    0.805468
      7          1           0        2.164912   -2.369789    0.466564
      8          1           0        3.256073   -1.923987   -0.856719
      9          6           0        2.408555    0.918220   -0.193128
     10          1           0        1.717236    1.730941   -0.418539
     11          6           0        3.797345    1.372249    0.127700
     12          1           0        4.500379    0.549567    0.272791
     13          1           0        4.177682    1.990596   -0.691507
     14          1           0        3.786304    1.980314    1.036919
     15          6           0       -4.176984   -0.158492   -0.253383
     16          1           0       -4.390144   -1.232589   -0.254766
     17          1           0       -4.831602    0.309982    0.488743
     18          1           0       -4.434628    0.233598   -1.242734
     19          6           0       -2.736390    0.136621    0.063663
     20          6           0       -2.386882    1.598207    0.131058
     21          1           0       -1.330996    1.786133   -0.084076
     22          1           0       -2.960083    2.165796   -0.609374
     23          1           0       -2.616766    1.997165    1.124217
     24          6           0       -1.846509   -0.857605    0.251675
     25          1           0       -2.179857   -1.890876    0.163079
     26          6           0       -0.397477   -0.690428    0.623482
     27          1           0       -0.267140    0.202663    1.247563
     28          1           0       -0.105345   -1.536760    1.257951
 ---------------------------------------------------------------------
 Rotational constants (GHZ):           2.7481447           0.5110196           0.4505093
 Leave Link  202 at Mon Jul 19 20:20:50 2021, MaxMem=   524288000 cpu:               0.1 elap:               0.2
 (Enter /opt/gaussian/g16_legacy/l301.exe)
 Standard basis: 6-31G(d,p) (6D, 7F)
 Ernie: Thresh=  0.10000D-02 Tol=  0.10000D-05 Strict=F.
 There are   240 symmetry adapted cartesian basis functions of A   symmetry.
 There are   240 symmetry adapted basis functions of A   symmetry.
   240 basis functions,   406 primitive gaussians,   240 cartesian basis functions
    39 alpha electrons       39 beta electrons
       nuclear repulsion energy       512.9282787771 Hartrees.
 IExCor= 4336 DFT=T Ex+Corr=M062X ExCW=0 ScaHFX=  0.540000
 ScaDFX=  1.000000  1.000000  1.000000  1.000000 ScalE2=  1.000000  1.000000
 IRadAn=      5 IRanWt=     -1 IRanGd=            0 ICorTp=0 IEmpDi=  4
 NAtoms=   28 NActive=   28 NUniq=   28 SFac= 1.00D+00 NAtFMM=   60 NAOKFM=F Big=F
 Integral buffers will be    131072 words long.
 Raffenetti 2 integral format.
 Two-electron integral symmetry is turned on.
 Leave Link  301 at Mon Jul 19 20:20:51 2021, MaxMem=   524288000 cpu:               0.6 elap:               0.2
 (Enter /opt/gaussian/g16_legacy/l302.exe)
 NPDir=0 NMtPBC=     1 NCelOv=     1 NCel=       1 NClECP=     1 NCelD=      1
         NCelK=      1 NCelE2=     1 NClLst=     1 CellRange=     0.0.
 One-electron integrals computed using PRISM.
 One-electron integral symmetry used in STVInt
 NBasis=   240 RedAO= T EigKep=  2.27D-03  NBF=   240
 NBsUse=   240 1.00D-06 EigRej= -1.00D+00 NBFU=   240
 Precomputing XC quadrature grid using
 IXCGrd= 4 IRadAn=           5 IRanWt=          -1 IRanGd=           0 AccXCQ= 0.00D+00.
 Generated NRdTot=       0 NPtTot=           0 NUsed=           0 NTot=          32
 NSgBfM=   240   240   240   240   240 MxSgAt=    28 MxSgA2=    28.
 Leave Link  302 at Mon Jul 19 20:20:52 2021, MaxMem=   524288000 cpu:               3.3 elap:               1.1
 (Enter /opt/gaussian/g16_legacy/l303.exe)
 DipDrv:  MaxL=1.
 Leave Link  303 at Mon Jul 19 20:20:52 2021, MaxMem=   524288000 cpu:               0.2 elap:               0.1
 (Enter /opt/gaussian/g16_legacy/l401.exe)
 ExpMin= 1.61D-01 ExpMax= 3.05D+03 ExpMxC= 4.57D+02 IAcc=3 IRadAn=         5 AccDes= 0.00D+00
 Harris functional with IExCor= 1009 and IRadAn=       5 diagonalized for initial guess.
 HarFok:  IExCor= 1009 AccDes= 0.00D+00 IRadAn=         5 IDoV= 1 UseB2=F ITyADJ=14
 ICtDFT=  3500011 ScaDFX=  1.000000  1.000000  1.000000  1.000000
 FoFCou: FMM=F IPFlag=           0 FMFlag=      100000 FMFlg1=           0
         NFxFlg=           0 DoJE=T BraDBF=F KetDBF=T FulRan=T
         wScrn=  0.000000 ICntrl=       500 IOpCl=  0 I1Cent=   200000004 NGrid=           0
         NMat0=    1 NMatS0=      1 NMatT0=    0 NMatD0=    1 NMtDS0=    0 NMtDT0=    0
 Petite list used in FoFCou.
 Harris En= -391.654736696122    
 JPrj=0 DoOrth=F DoCkMO=F.
 Leave Link  401 at Mon Jul 19 20:20:57 2021, MaxMem=   524288000 cpu:              18.7 elap:               4.8
 (Enter /opt/gaussian/g16_legacy/l502.exe)
 Keep R1 ints in memory in canonical form, NReq=425198025.
 FoFCou: FMM=F IPFlag=           0 FMFlag=           0 FMFlg1=           0
         NFxFlg=           0 DoJE=F BraDBF=F KetDBF=F FulRan=T
         wScrn=  0.000000 ICntrl=       600 IOpCl=  0 I1Cent=           0 NGrid=           0
         NMat0=    1 NMatS0=  28920 NMatT0=    0 NMatD0=    1 NMtDS0=    0 NMtDT0=    0
 Symmetry not used in FoFCou.
 Two-electron integral symmetry not used.
 Closed shell SCF:
 Using DIIS extrapolation, IDIIS=  1040.
 NGot=   524288000 LenX=   105970886 LenY=   105912845
 Requested convergence on RMS density matrix=1.00D-08 within 128 cycles.
 Requested convergence on MAX density matrix=1.00D-06.
 Requested convergence on             energy=1.00D-06.
 No special actions if energy rises.
 Integral accuracy reduced to 1.0D-05 until final iterations.

 Cycle   1  Pass 0  IDiag  1:
 E= -391.295052144885    
 DIIS: error= 2.72D-02 at cycle   1 NSaved=   1.
 NSaved= 1 IEnMin= 1 EnMin= -391.295052144885     IErMin= 1 ErrMin= 2.72D-02
 ErrMax= 2.72D-02  0.00D+00 EMaxC= 1.00D-01 BMatC= 3.71D-01 BMatP= 3.71D-01
 IDIUse=3 WtCom= 7.28D-01 WtEn= 2.72D-01
 Coeff-Com:  0.100D+01
 Coeff-En:   0.100D+01
 Coeff:      0.100D+01
 Gap=     0.334 Goal=   None    Shift=    0.000
 GapD=    0.334 DampG=1.000 DampE=0.500 DampFc=0.5000 IDamp=-1.
 Damping current iteration by 5.00D-01
 RMSDP=4.38D-03 MaxDP=1.13D-01              OVMax= 1.41D-01

 Cycle   2  Pass 0  IDiag  1:
 E= -391.504812374407     Delta-E=       -0.209760229521 Rises=F Damp=T
 DIIS: error= 1.01D-02 at cycle   2 NSaved=   2.
 NSaved= 2 IEnMin= 2 EnMin= -391.504812374407     IErMin= 2 ErrMin= 1.01D-02
 ErrMax= 1.01D-02  0.00D+00 EMaxC= 1.00D-01 BMatC= 2.10D-02 BMatP= 3.71D-01
 IDIUse=3 WtCom= 8.99D-01 WtEn= 1.01D-01
 Coeff-Com: -0.153D+00 0.115D+01
 Coeff-En:   0.000D+00 0.100D+01
 Coeff:     -0.137D+00 0.114D+01
 Gap=     0.358 Goal=   None    Shift=    0.000
 RMSDP=8.31D-04 MaxDP=2.61D-02 DE=-2.10D-01 OVMax= 6.26D-02

 Cycle   3  Pass 0  IDiag  1:
 E= -391.685480223018     Delta-E=       -0.180667848611 Rises=F Damp=F
 DIIS: error= 9.99D-04 at cycle   3 NSaved=   3.
 NSaved= 3 IEnMin= 3 EnMin= -391.685480223018     IErMin= 3 ErrMin= 9.99D-04
 ErrMax= 9.99D-04  0.00D+00 EMaxC= 1.00D-01 BMatC= 5.44D-04 BMatP= 2.10D-02
 IDIUse=3 WtCom= 9.90D-01 WtEn= 9.99D-03
 Coeff-Com: -0.257D-01 0.116D+00 0.909D+00
 Coeff-En:   0.000D+00 0.000D+00 0.100D+01
 Coeff:     -0.255D-01 0.115D+00 0.910D+00
 Gap=     0.333 Goal=   None    Shift=    0.000
 RMSDP=1.62D-04 MaxDP=3.96D-03 DE=-1.81D-01 OVMax= 6.80D-03

 Cycle   4  Pass 0  IDiag  1:
 E= -391.685852655701     Delta-E=       -0.000372432683 Rises=F Damp=F
 DIIS: error= 6.45D-04 at cycle   4 NSaved=   4.
 NSaved= 4 IEnMin= 4 EnMin= -391.685852655701     IErMin= 4 ErrMin= 6.45D-04
 ErrMax= 6.45D-04  0.00D+00 EMaxC= 1.00D-01 BMatC= 1.68D-04 BMatP= 5.44D-04
 IDIUse=3 WtCom= 9.94D-01 WtEn= 6.45D-03
 Coeff-Com: -0.534D-02 0.213D-01 0.361D+00 0.624D+00
 Coeff-En:   0.000D+00 0.000D+00 0.109D+00 0.891D+00
 Coeff:     -0.530D-02 0.211D-01 0.359D+00 0.625D+00
 Gap=     0.333 Goal=   None    Shift=    0.000
 RMSDP=7.30D-05 MaxDP=2.95D-03 DE=-3.72D-04 OVMax= 5.66D-03

 Cycle   5  Pass 0  IDiag  1:
 E= -391.685997790254     Delta-E=       -0.000145134553 Rises=F Damp=F
 DIIS: error= 3.29D-04 at cycle   5 NSaved=   5.
 NSaved= 5 IEnMin= 5 EnMin= -391.685997790254     IErMin= 5 ErrMin= 3.29D-04
 ErrMax= 3.29D-04  0.00D+00 EMaxC= 1.00D-01 BMatC= 2.74D-05 BMatP= 1.68D-04
 IDIUse=3 WtCom= 9.97D-01 WtEn= 3.29D-03
 Coeff-Com:  0.522D-03-0.181D-02 0.890D-01 0.317D+00 0.595D+00
 Coeff-En:   0.000D+00 0.000D+00 0.000D+00 0.683D-01 0.932D+00
 Coeff:      0.520D-03-0.180D-02 0.887D-01 0.316D+00 0.596D+00
 Gap=     0.334 Goal=   None    Shift=    0.000
 RMSDP=2.35D-05 MaxDP=1.09D-03 DE=-1.45D-04 OVMax= 1.97D-03

 Cycle   6  Pass 0  IDiag  1:
 E= -391.686024414785     Delta-E=       -0.000026624531 Rises=F Damp=F
 DIIS: error= 5.00D-05 at cycle   6 NSaved=   6.
 NSaved= 6 IEnMin= 6 EnMin= -391.686024414785     IErMin= 6 ErrMin= 5.00D-05
 ErrMax= 5.00D-05  0.00D+00 EMaxC= 1.00D-01 BMatC= 1.32D-06 BMatP= 2.74D-05
 IDIUse=1 WtCom= 1.00D+00 WtEn= 0.00D+00
 Coeff-Com:  0.844D-03-0.289D-02 0.469D-02 0.760D-01 0.233D+00 0.688D+00
 Coeff:      0.844D-03-0.289D-02 0.469D-02 0.760D-01 0.233D+00 0.688D+00
 Gap=     0.334 Goal=   None    Shift=    0.000
 RMSDP=5.74D-06 MaxDP=1.95D-04 DE=-2.66D-05 OVMax= 4.38D-04

 Initial convergence to 1.0D-05 achieved.  Increase integral accuracy.
 Cycle   7  Pass 1  IDiag  1:
 E= -391.686070748895     Delta-E=       -0.000046334109 Rises=F Damp=F
 DIIS: error= 1.34D-05 at cycle   1 NSaved=   1.
 NSaved= 1 IEnMin= 1 EnMin= -391.686070748895     IErMin= 1 ErrMin= 1.34D-05
 ErrMax= 1.34D-05  0.00D+00 EMaxC= 1.00D-01 BMatC= 1.74D-07 BMatP= 1.74D-07
 IDIUse=1 WtCom= 1.00D+00 WtEn= 0.00D+00
 Coeff-Com:  0.100D+01
 Coeff:      0.100D+01
 Gap=     0.334 Goal=   None    Shift=    0.000
 RMSDP=5.74D-06 MaxDP=1.95D-04 DE=-4.63D-05 OVMax= 2.13D-04

 Cycle   8  Pass 1  IDiag  1:
 E= -391.686070803784     Delta-E=       -0.000000054889 Rises=F Damp=F
 DIIS: error= 1.38D-05 at cycle   2 NSaved=   2.
 NSaved= 2 IEnMin= 2 EnMin= -391.686070803784     IErMin= 1 ErrMin= 1.34D-05
 ErrMax= 1.38D-05  0.00D+00 EMaxC= 1.00D-01 BMatC= 1.32D-07 BMatP= 1.74D-07
 IDIUse=1 WtCom= 1.00D+00 WtEn= 0.00D+00
 Coeff-Com:  0.459D+00 0.541D+00
 Coeff:      0.459D+00 0.541D+00
 Gap=     0.334 Goal=   None    Shift=    0.000
 RMSDP=1.53D-06 MaxDP=7.19D-05 DE=-5.49D-08 OVMax= 1.34D-04

 Cycle   9  Pass 1  IDiag  1:
 E= -391.686070923213     Delta-E=       -0.000000119429 Rises=F Damp=F
 DIIS: error= 4.79D-06 at cycle   3 NSaved=   3.
 NSaved= 3 IEnMin= 3 EnMin= -391.686070923213     IErMin= 3 ErrMin= 4.79D-06
 ErrMax= 4.79D-06  0.00D+00 EMaxC= 1.00D-01 BMatC= 8.74D-09 BMatP= 1.32D-07
 IDIUse=1 WtCom= 1.00D+00 WtEn= 0.00D+00
 Coeff-Com:  0.304D-01 0.198D+00 0.772D+00
 Coeff:      0.304D-01 0.198D+00 0.772D+00
 Gap=     0.334 Goal=   None    Shift=    0.000
 RMSDP=5.15D-07 MaxDP=1.88D-05 DE=-1.19D-07 OVMax= 4.57D-05

 Cycle  10  Pass 1  IDiag  1:
 E= -391.686070930576     Delta-E=       -0.000000007363 Rises=F Damp=F
 DIIS: error= 1.69D-06 at cycle   4 NSaved=   4.
 NSaved= 4 IEnMin= 4 EnMin= -391.686070930576     IErMin= 4 ErrMin= 1.69D-06
 ErrMax= 1.69D-06  0.00D+00 EMaxC= 1.00D-01 BMatC= 1.81D-09 BMatP= 8.74D-09
 IDIUse=1 WtCom= 1.00D+00 WtEn= 0.00D+00
 Coeff-Com: -0.266D-01 0.515D-01 0.404D+00 0.571D+00
 Coeff:     -0.266D-01 0.515D-01 0.404D+00 0.571D+00
 Gap=     0.334 Goal=   None    Shift=    0.000
 RMSDP=1.85D-07 MaxDP=6.11D-06 DE=-7.36D-09 OVMax= 1.40D-05

 Cycle  11  Pass 1  IDiag  1:
 E= -391.686070932469     Delta-E=       -0.000000001893 Rises=F Damp=F
 DIIS: error= 1.39D-07 at cycle   5 NSaved=   5.
 NSaved= 5 IEnMin= 5 EnMin= -391.686070932469     IErMin= 5 ErrMin= 1.39D-07
 ErrMax= 1.39D-07  0.00D+00 EMaxC= 1.00D-01 BMatC= 1.32D-11 BMatP= 1.81D-09
 IDIUse=1 WtCom= 1.00D+00 WtEn= 0.00D+00
 Coeff-Com: -0.406D-02-0.405D-02 0.473D-02 0.618D-01 0.942D+00
 Coeff:     -0.406D-02-0.405D-02 0.473D-02 0.618D-01 0.942D+00
 Gap=     0.334 Goal=   None    Shift=    0.000
 RMSDP=3.09D-08 MaxDP=7.65D-07 DE=-1.89D-09 OVMax= 1.26D-06

 Cycle  12  Pass 1  IDiag  1:
 E= -391.686070932500     Delta-E=       -0.000000000031 Rises=F Damp=F
 DIIS: error= 6.51D-08 at cycle   6 NSaved=   6.
 NSaved= 6 IEnMin= 6 EnMin= -391.686070932500     IErMin= 6 ErrMin= 6.51D-08
 ErrMax= 6.51D-08  0.00D+00 EMaxC= 1.00D-01 BMatC= 2.09D-12 BMatP= 1.32D-11
 IDIUse=1 WtCom= 1.00D+00 WtEn= 0.00D+00
 Coeff-Com:  0.101D-02-0.568D-02-0.331D-01-0.271D-01 0.303D+00 0.762D+00
 Coeff:      0.101D-02-0.568D-02-0.331D-01-0.271D-01 0.303D+00 0.762D+00
 Gap=     0.334 Goal=   None    Shift=    0.000
 RMSDP=9.22D-09 MaxDP=2.56D-07 DE=-3.07D-11 OVMax= 5.00D-07

 SCF Done:  E(RM062X) =  -391.686070932     A.U. after   12 cycles
            NFock= 12  Conv=0.92D-08     -V/T= 2.0092
 KE= 3.881070720773D+02 PE=-1.930976445844D+03 EE= 6.382550240570D+02
 Leave Link  502 at Mon Jul 19 20:22:32 2021, MaxMem=   524288000 cpu:             353.4 elap:              95.1
 (Enter /opt/gaussian/g16_legacy/l601.exe)
 Copying SCF densities to generalized density rwf, IOpCl= 0 IROHF=0.

 **********************************************************************

            Population analysis using the SCF density.

 **********************************************************************

 Orbital symmetries:
       Occupied  (A) (A) (A) (A) (A) (A) (A) (A) (A) (A) (A) (A)
                 (A) (A) (A) (A) (A) (A) (A) (A) (A) (A) (A) (A)
                 (A) (A) (A) (A) (A) (A) (A) (A) (A) (A) (A) (A)
                 (A) (A) (A)
       Virtual   (A) (A) (A) (A) (A) (A) (A) (A) (A) (A) (A) (A)
                 (A) (A) (A) (A) (A) (A) (A) (A) (A) (A) (A) (A)
                 (A) (A) (A) (A) (A) (A) (A) (A) (A) (A) (A) (A)
                 (A) (A) (A) (A) (A) (A) (A) (A) (A) (A) (A) (A)
                 (A) (A) (A) (A) (A) (A) (A) (A) (A) (A) (A) (A)
                 (A) (A) (A) (A) (A) (A) (A) (A) (A) (A) (A) (A)
                 (A) (A) (A) (A) (A) (A) (A) (A) (A) (A) (A) (A)
                 (A) (A) (A) (A) (A) (A) (A) (A) (A) (A) (A) (A)
                 (A) (A) (A) (A) (A) (A) (A) (A) (A) (A) (A) (A)
                 (A) (A) (A) (A) (A) (A) (A) (A) (A) (A) (A) (A)
                 (A) (A) (A) (A) (A) (A) (A) (A) (A) (A) (A) (A)
                 (A) (A) (A) (A) (A) (A) (A) (A) (A) (A) (A) (A)
                 (A) (A) (A) (A) (A) (A) (A) (A) (A) (A) (A) (A)
                 (A) (A) (A) (A) (A) (A) (A) (A) (A) (A) (A) (A)
                 (A) (A) (A) (A) (A) (A) (A) (A) (A) (A) (A) (A)
                 (A) (A) (A) (A) (A) (A) (A) (A) (A) (A) (A) (A)
                 (A) (A) (A) (A) (A) (A) (A) (A) (A)
 The electronic state is 1-A.
 Alpha  occ. eigenvalues --  -10.54450 -10.54062 -10.53657 -10.53622 -10.53473
 Alpha  occ. eigenvalues --  -10.53390 -10.53252 -10.53243 -10.53157 -10.52878
 Alpha  occ. eigenvalues --   -0.91933  -0.89886  -0.84758  -0.81006  -0.77769
 Alpha  occ. eigenvalues --   -0.76444  -0.72092  -0.67700  -0.58430  -0.57975
 Alpha  occ. eigenvalues --   -0.53915  -0.52531  -0.49899  -0.49507  -0.48969
 Alpha  occ. eigenvalues --   -0.47947  -0.46305  -0.45075  -0.44824  -0.43735
 Alpha  occ. eigenvalues --   -0.43296  -0.42435  -0.41887  -0.40322  -0.39408
 Alpha  occ. eigenvalues --   -0.37790  -0.36075  -0.28482  -0.26806
 Alpha virt. eigenvalues --    0.06554   0.07941   0.12179   0.14714   0.15584
 Alpha virt. eigenvalues --    0.16842   0.18329   0.18825   0.20124   0.20799
 Alpha virt. eigenvalues --    0.20931   0.21860   0.22521   0.22725   0.23511
 Alpha virt. eigenvalues --    0.23773   0.24320   0.25146   0.26570   0.28008
 Alpha virt. eigenvalues --    0.28751   0.29613   0.30239   0.31200   0.32155
 Alpha virt. eigenvalues --    0.38355   0.40414   0.46184   0.46721   0.53848
 Alpha virt. eigenvalues --    0.54814   0.56236   0.57810   0.59521   0.60276
 Alpha virt. eigenvalues --    0.60595   0.61914   0.62747   0.64564   0.66455
 Alpha virt. eigenvalues --    0.67771   0.68399   0.70796   0.72145   0.72277
 Alpha virt. eigenvalues --    0.74146   0.75010   0.77207   0.79794   0.80622
 Alpha virt. eigenvalues --    0.81359   0.81665   0.82924   0.84235   0.84725
 Alpha virt. eigenvalues --    0.87539   0.88606   0.90433   0.90745   0.92166
 Alpha virt. eigenvalues --    0.93420   0.94395   0.94674   0.95161   0.95612
 Alpha virt. eigenvalues --    0.95741   0.96989   0.97648   0.98980   1.01082
 Alpha virt. eigenvalues --    1.01825   1.02142   1.02785   1.05705   1.06022
 Alpha virt. eigenvalues --    1.10671   1.19684   1.21529   1.23756   1.25463
 Alpha virt. eigenvalues --    1.30666   1.31873   1.35731   1.36077   1.37220
 Alpha virt. eigenvalues --    1.39538   1.41477   1.46144   1.47823   1.49331
 Alpha virt. eigenvalues --    1.51137   1.60278   1.69177   1.69457   1.72795
 Alpha virt. eigenvalues --    1.76192   1.76827   1.77921   1.80972   1.82946
 Alpha virt. eigenvalues --    1.84898   1.85824   1.86492   1.87799   1.90545
 Alpha virt. eigenvalues --    1.91025   1.92705   1.94288   2.00970   2.02197
 Alpha virt. eigenvalues --    2.02924   2.03607   2.04856   2.09743   2.10015
 Alpha virt. eigenvalues --    2.10403   2.10902   2.12589   2.13719   2.13844
 Alpha virt. eigenvalues --    2.14847   2.15792   2.16837   2.17279   2.18657
 Alpha virt. eigenvalues --    2.19648   2.21403   2.22418   2.24029   2.26401
 Alpha virt. eigenvalues --    2.28898   2.29935   2.33393   2.34208   2.35478
 Alpha virt. eigenvalues --    2.38026   2.39008   2.41977   2.42634   2.44968
 Alpha virt. eigenvalues --    2.46658   2.47588   2.48806   2.53224   2.56346
 Alpha virt. eigenvalues --    2.57434   2.58967   2.60085   2.61504   2.64023
 Alpha virt. eigenvalues --    2.65671   2.68942   2.69964   2.71530   2.72848
 Alpha virt. eigenvalues --    2.73679   2.76831   2.78533   2.79507   2.82240
 Alpha virt. eigenvalues --    2.84723   2.85626   2.86957   2.88597   2.89318
 Alpha virt. eigenvalues --    2.90798   2.91401   2.92574   2.93846   3.02648
 Alpha virt. eigenvalues --    3.03828   3.08283   3.10040   3.17859   3.18454
 Alpha virt. eigenvalues --    3.22535   3.23925   3.28531   3.33540   3.40337
 Alpha virt. eigenvalues --    3.40461   3.42119   3.42994   3.43285   3.43691
 Alpha virt. eigenvalues --    3.44329   3.46651   3.47846   3.51325   3.52711
 Alpha virt. eigenvalues --    3.56041   4.19366   4.23413   4.34559   4.43437
 Alpha virt. eigenvalues --    4.49068   4.51640   4.52295   4.65831   4.70282
 Alpha virt. eigenvalues --    4.75896
          Condensed to atoms (all electrons):
               1          2          3          4          5          6
     1  C    5.022798   0.385115   0.388835   0.356035  -0.064380   0.004347
     2  H    0.385115   0.613229  -0.034691  -0.037879  -0.003505   0.000106
     3  H    0.388835  -0.034691   0.599349  -0.037140   0.004809  -0.000160
     4  C    0.356035  -0.037879  -0.037140   4.788558   0.367970  -0.029445
     5  C   -0.064380  -0.003505   0.004809   0.367970   5.007345   0.385351
     6  H    0.004347   0.000106  -0.000160  -0.029445   0.385351   0.573313
     7  H   -0.004604   0.000410   0.000208  -0.036576   0.386286  -0.029920
     8  H   -0.000749   0.001614  -0.000159  -0.031403   0.382537  -0.027210
     9  C   -0.038975   0.002793  -0.006793   0.707684  -0.057790  -0.007370
    10  H   -0.011242   0.000172   0.004498  -0.038418   0.006048  -0.000026
    11  C    0.005184  -0.000187   0.000121  -0.041467  -0.012712   0.000583
    12  H    0.000115   0.000000   0.000004  -0.008513   0.002953   0.002192
    13  H   -0.000156   0.000009   0.000005   0.000070   0.000273  -0.000171
    14  H   -0.000107  -0.000001  -0.000013   0.000044   0.000330   0.000289
    15  C   -0.000080   0.000003  -0.000110   0.000002  -0.000000   0.000000
    16  H   -0.000000   0.000001  -0.000000   0.000000   0.000000  -0.000000
    17  H   -0.000005   0.000000   0.000002   0.000000  -0.000000   0.000000
    18  H    0.000020  -0.000002   0.000002  -0.000000   0.000000  -0.000000
    19  C   -0.004565   0.000003   0.002780   0.000185  -0.000003   0.000000
    20  C   -0.000860   0.000059  -0.000254  -0.000097  -0.000001   0.000000
    21  H    0.001087  -0.000031   0.001918  -0.000211   0.000004  -0.000000
    22  H    0.000052  -0.000001  -0.000072  -0.000002   0.000000  -0.000000
    23  H   -0.000078  -0.000000   0.000033   0.000010   0.000000   0.000000
    24  C   -0.051852  -0.001086  -0.003002   0.005962  -0.000065   0.000003
    25  H    0.000958   0.001509  -0.000051  -0.000147   0.000008  -0.000000
    26  C    0.345611  -0.040044  -0.039714  -0.048420  -0.002316  -0.000075
    27  H   -0.040446   0.005614  -0.004325  -0.001675   0.000058   0.000004
    28  H   -0.040368  -0.005629   0.005511  -0.001736   0.001476  -0.000217
               7          8          9         10         11         12
     1  C   -0.004604  -0.000749  -0.038975  -0.011242   0.005184   0.000115
     2  H    0.000410   0.001614   0.002793   0.000172  -0.000187   0.000000
     3  H    0.000208  -0.000159  -0.006793   0.004498   0.000121   0.000004
     4  C   -0.036576  -0.031403   0.707684  -0.038418  -0.041467  -0.008513
     5  C    0.386286   0.382537  -0.057790   0.006048  -0.012712   0.002953
     6  H   -0.029920  -0.027210  -0.007370  -0.000026   0.000583   0.002192
     7  H    0.586846  -0.030244   0.003395  -0.000154   0.000241  -0.000099
     8  H   -0.030244   0.567671  -0.003380  -0.000148   0.000803  -0.000004
     9  C    0.003395  -0.003380   4.901945   0.380160   0.362657  -0.034144
    10  H   -0.000154  -0.000148   0.380160   0.618906  -0.054854   0.004577
    11  C    0.000241   0.000803   0.362657  -0.054854   4.970903   0.390826
    12  H   -0.000099  -0.000004  -0.034144   0.004577   0.390826   0.578401
    13  H   -0.000013   0.000150  -0.034404  -0.002486   0.387123  -0.028787
    14  H    0.000015  -0.000075  -0.035762  -0.001043   0.384281  -0.028455
    15  C   -0.000000  -0.000000   0.000000   0.000000   0.000000  -0.000000
    16  H   -0.000000  -0.000000  -0.000000  -0.000000  -0.000000   0.000000
    17  H    0.000000   0.000000   0.000000  -0.000000   0.000000   0.000000
    18  H    0.000000  -0.000000   0.000000   0.000000  -0.000000  -0.000000
    19  C   -0.000002   0.000000   0.000007  -0.000012   0.000000   0.000000
    20  C    0.000000  -0.000000  -0.000070  -0.000086   0.000001  -0.000000
    21  H   -0.000001   0.000000   0.000181   0.001116  -0.000004   0.000000
    22  H    0.000000  -0.000000  -0.000000   0.000001  -0.000000   0.000000
    23  H   -0.000000   0.000000   0.000003  -0.000005   0.000000   0.000000
    24  C   -0.000191   0.000005   0.000181  -0.000086   0.000002   0.000000
    25  H    0.000018  -0.000001  -0.000003   0.000001  -0.000000  -0.000000
    26  C    0.001117   0.000015  -0.007298   0.000280  -0.000044  -0.000005
    27  H   -0.000037   0.000005   0.003434   0.000582  -0.000172   0.000001
    28  H    0.002034   0.000030   0.000150   0.000024   0.000004   0.000000
              13         14         15         16         17         18
     1  C   -0.000156  -0.000107  -0.000080  -0.000000  -0.000005   0.000020
     2  H    0.000009  -0.000001   0.000003   0.000001   0.000000  -0.000002
     3  H    0.000005  -0.000013  -0.000110  -0.000000   0.000002   0.000002
     4  C    0.000070   0.000044   0.000002   0.000000   0.000000  -0.000000
     5  C    0.000273   0.000330  -0.000000   0.000000  -0.000000   0.000000
     6  H   -0.000171   0.000289   0.000000  -0.000000   0.000000  -0.000000
     7  H   -0.000013   0.000015  -0.000000  -0.000000   0.000000   0.000000
     8  H    0.000150  -0.000075  -0.000000  -0.000000   0.000000  -0.000000
     9  C   -0.034404  -0.035762   0.000000  -0.000000   0.000000   0.000000
    10  H   -0.002486  -0.001043   0.000000  -0.000000  -0.000000   0.000000
    11  C    0.387123   0.384281   0.000000  -0.000000   0.000000  -0.000000
    12  H   -0.028787  -0.028455  -0.000000   0.000000   0.000000  -0.000000
    13  H    0.578192  -0.032072   0.000000   0.000000   0.000000  -0.000000
    14  H   -0.032072   0.580199  -0.000000  -0.000000  -0.000000   0.000000
    15  C    0.000000  -0.000000   4.998556   0.385551   0.384318   0.378924
    16  H    0.000000  -0.000000   0.385551   0.573762  -0.027676  -0.027281
    17  H    0.000000  -0.000000   0.384318  -0.027676   0.589812  -0.034175
    18  H   -0.000000   0.000000   0.378924  -0.027281  -0.034175   0.589448
    19  C    0.000000  -0.000000   0.371960  -0.033547  -0.039323  -0.034140
    20  C   -0.000000   0.000000  -0.076084   0.004862   0.000259  -0.003117
    21  H    0.000000  -0.000001   0.004522  -0.000169  -0.000027  -0.000003
    22  H   -0.000000   0.000000  -0.005096   0.000117  -0.000735   0.004300
    23  H    0.000000  -0.000000   0.000092  -0.000143   0.002198  -0.000350
    24  C    0.000000  -0.000000  -0.039715  -0.005218  -0.001226  -0.000470
    25  H   -0.000000   0.000000  -0.013092   0.005900   0.000164   0.000317
    26  C   -0.000007   0.000028   0.005604   0.000107  -0.000206  -0.000116
    27  H    0.000004  -0.000002   0.000085   0.000007   0.000016  -0.000010
    28  H    0.000000  -0.000002  -0.000168  -0.000012   0.000009  -0.000001
              19         20         21         22         23         24
     1  C   -0.004565  -0.000860   0.001087   0.000052  -0.000078  -0.051852
     2  H    0.000003   0.000059  -0.000031  -0.000001  -0.000000  -0.001086
     3  H    0.002780  -0.000254   0.001918  -0.000072   0.000033  -0.003002
     4  C    0.000185  -0.000097  -0.000211  -0.000002   0.000010   0.005962
     5  C   -0.000003  -0.000001   0.000004   0.000000   0.000000  -0.000065
     6  H    0.000000   0.000000  -0.000000  -0.000000   0.000000   0.000003
     7  H   -0.000002   0.000000  -0.000001   0.000000  -0.000000  -0.000191
     8  H    0.000000  -0.000000   0.000000  -0.000000   0.000000   0.000005
     9  C    0.000007  -0.000070   0.000181  -0.000000   0.000003   0.000181
    10  H   -0.000012  -0.000086   0.001116   0.000001  -0.000005  -0.000086
    11  C    0.000000   0.000001  -0.000004  -0.000000   0.000000   0.000002
    12  H    0.000000  -0.000000   0.000000   0.000000   0.000000   0.000000
    13  H    0.000000  -0.000000   0.000000  -0.000000   0.000000   0.000000
    14  H   -0.000000   0.000000  -0.000001   0.000000  -0.000000  -0.000000
    15  C    0.371960  -0.076084   0.004522  -0.005096   0.000092  -0.039715
    16  H   -0.033547   0.004862  -0.000169   0.000117  -0.000143  -0.005218
    17  H   -0.039323   0.000259  -0.000027  -0.000735   0.002198  -0.001226
    18  H   -0.034140  -0.003117  -0.000003   0.004300  -0.000350  -0.000470
    19  C    4.741930   0.372692  -0.026957  -0.035916  -0.033626   0.714360
    20  C    0.372692   5.010579   0.382648   0.387451   0.382149  -0.058174
    21  H   -0.026957   0.382648   0.576992  -0.030059  -0.026834  -0.010020
    22  H   -0.035916   0.387451  -0.030059   0.582318  -0.030520   0.003206
    23  H   -0.033626   0.382149  -0.026834  -0.030520   0.570116  -0.002285
    24  C    0.714360  -0.058174  -0.010020   0.003206  -0.002285   4.930683
    25  H   -0.032804   0.006050   0.000022  -0.000143  -0.000158   0.376607
    26  C   -0.044971  -0.009946   0.001691   0.000295   0.000070   0.350972
    27  H   -0.009850   0.002640  -0.000138  -0.000097   0.000778  -0.037107
    28  H    0.003554   0.000177   0.000001  -0.000009   0.000039  -0.029311
              25         26         27         28
     1  C    0.000958   0.345611  -0.040446  -0.040368
     2  H    0.001509  -0.040044   0.005614  -0.005629
     3  H   -0.000051  -0.039714  -0.004325   0.005511
     4  C   -0.000147  -0.048420  -0.001675  -0.001736
     5  C    0.000008  -0.002316   0.000058   0.001476
     6  H   -0.000000  -0.000075   0.000004  -0.000217
     7  H    0.000018   0.001117  -0.000037   0.002034
     8  H   -0.000001   0.000015   0.000005   0.000030
     9  C   -0.000003  -0.007298   0.003434   0.000150
    10  H    0.000001   0.000280   0.000582   0.000024
    11  C   -0.000000  -0.000044  -0.000172   0.000004
    12  H   -0.000000  -0.000005   0.000001   0.000000
    13  H   -0.000000  -0.000007   0.000004   0.000000
    14  H    0.000000   0.000028  -0.000002  -0.000002
    15  C   -0.013092   0.005604   0.000085  -0.000168
    16  H    0.005900   0.000107   0.000007  -0.000012
    17  H    0.000164  -0.000206   0.000016   0.000009
    18  H    0.000317  -0.000116  -0.000010  -0.000001
    19  C   -0.032804  -0.044971  -0.009850   0.003554
    20  C    0.006050  -0.009946   0.002640   0.000177
    21  H    0.000022   0.001691  -0.000138   0.000001
    22  H   -0.000143   0.000295  -0.000097  -0.000009
    23  H   -0.000158   0.000070   0.000778   0.000039
    24  C    0.376607   0.350972  -0.037107  -0.029311
    25  H    0.611896  -0.051068   0.004575  -0.006281
    26  C   -0.051068   5.005872   0.392146   0.384269
    27  H    0.004575   0.392146   0.599142  -0.034811
    28  H   -0.006281   0.384269  -0.034811   0.606473
 Mulliken charges:
               1
     1  C   -0.251691
     2  H    0.112417
     3  H    0.118411
     4  C    0.086610
     5  C   -0.404676
     6  H    0.128406
     7  H    0.121269
     8  H    0.140542
     9  C   -0.136601
    10  H    0.092194
    11  C   -0.393290
    12  H    0.120938
    13  H    0.132270
    14  H    0.132349
    15  C   -0.395275
    16  H    0.123740
    17  H    0.126594
    18  H    0.126654
    19  C    0.088244
    20  C   -0.400876
    21  H    0.124272
    22  H    0.124910
    23  H    0.138515
    24  C   -0.142174
    25  H    0.095723
    26  C   -0.243847
    27  H    0.119579
    28  H    0.114793
 Sum of Mulliken charges =  -0.00000
 Mulliken charges with hydrogens summed into heavy atoms:
               1
     1  C   -0.020863
     4  C    0.086610
     5  C   -0.014459
     9  C   -0.044407
    11  C   -0.007733
    15  C   -0.018286
    19  C    0.088244
    20  C   -0.013180
    24  C   -0.046451
    26  C   -0.009475
 Electronic spatial extent (au):  <R**2>=           2589.0764
 Charge=             -0.0000 electrons
 Dipole moment (field-independent basis, Debye):
    X=              0.0136    Y=              0.0907    Z=              0.0273  Tot=              0.0957
 Quadrupole moment (field-independent basis, Debye-Ang):
   XX=            -62.3121   YY=            -62.0903   ZZ=            -66.1952
   XY=             -1.1567   XZ=              0.7304   YZ=              0.0072
 Traceless Quadrupole moment (field-independent basis, Debye-Ang):
   XX=              1.2205   YY=              1.4422   ZZ=             -2.6627
   XY=             -1.1567   XZ=              0.7304   YZ=              0.0072
 Octapole moment (field-independent basis, Debye-Ang**2):
  XXX=              0.2669  YYY=             -1.5122  ZZZ=              0.2513  XYY=              0.0504
  XXY=              2.7634  XXZ=              0.0145  XZZ=              0.0933  YZZ=              1.5475
  YYZ=             -0.2730  XYZ=             -0.1472
 Hexadecapole moment (field-independent basis, Debye-Ang**3):
 XXXX=          -2826.3981 YYYY=           -558.5341 ZZZZ=           -160.5902 XXXY=            -10.7890
 XXXZ=              5.7810 YYYX=              9.6916 YYYZ=             -1.3214 ZZZX=              3.5940
 ZZZY=              2.5695 XXYY=           -557.6819 XXZZ=           -505.2223 YYZZ=           -115.8821
 XXYZ=              1.4661 YYXZ=             -2.1958 ZZXY=             -6.5443
 N-N= 5.129282787771D+02 E-N=-1.930976464525D+03  KE= 3.881070720773D+02
 No NMR shielding tensors so no spin-rotation constants.
 Leave Link  601 at Mon Jul 19 20:22:33 2021, MaxMem=   524288000 cpu:               1.7 elap:               0.6
 (Enter /opt/gaussian/g16_legacy/l701.exe)
 ... and contract with generalized density number  0.
 Compute integral first derivatives.
 Leave Link  701 at Mon Jul 19 20:22:34 2021, MaxMem=   524288000 cpu:               1.0 elap:               0.9
 (Enter /opt/gaussian/g16_legacy/l702.exe)
 L702 exits ... SP integral derivatives will be done elsewhere.
 Leave Link  702 at Mon Jul 19 20:22:34 2021, MaxMem=   524288000 cpu:               0.1 elap:               0.1
 (Enter /opt/gaussian/g16_legacy/l703.exe)
 Integral derivatives from FoFJK, PRISM(SPDF).
 Compute integral first derivatives, UseDBF=F ICtDFT=           0.
 Calling FoFJK, ICntrl=      2127 FMM=F ISym2X=0 I1Cent= 0 IOpClX= 0 NMat=1 NMatS=1 NMatT=0.
 FoFJK:  IHMeth= 1 ICntrl=    2127 DoSepK=F KAlg= 0 I1Cent=           0 FoldK=F
 IRaf=         0 NMat=       1 IRICut=       1 DoRegI=T DoRafI=F ISym2E= 0 IDoP0=0 IntGTp=1.
 FoFCou: FMM=F IPFlag=           0 FMFlag=      100000 FMFlg1=         800
         NFxFlg=           0 DoJE=F BraDBF=F KetDBF=F FulRan=T
         wScrn=  0.000000 ICntrl=      2127 IOpCl=  0 I1Cent=           0 NGrid=           0
         NMat0=    1 NMatS0=      1 NMatT0=    0 NMatD0=    1 NMtDS0=    0 NMtDT0=    0
 Symmetry not used in FoFCou.
 Leave Link  703 at Mon Jul 19 20:22:54 2021, MaxMem=   524288000 cpu:              74.6 elap:              18.9
 (Enter /opt/gaussian/g16_legacy/l716.exe)
 Dipole        = 5.35852016D-03 3.56659270D-02 1.07599345D-02
 ***** Axes restored to original set *****
 -------------------------------------------------------------------
 Center     Atomic                   Forces (Hartrees/Bohr)
 Number     Number              X              Y              Z
 -------------------------------------------------------------------
      1        6           0.008469096    0.003297152   -0.003567461
      2        1          -0.001475639   -0.000192146    0.002017719
      3        1          -0.001200706    0.001255283    0.002986625
      4        6           0.005539836    0.010486869   -0.006126019
      5        6           0.001408192    0.002190645    0.004841607
      6        1           0.001267556   -0.001094718   -0.002484317
      7        1          -0.000480948   -0.000364737   -0.001964556
      8        1           0.000353378   -0.002360835    0.001088419
      9        6          -0.008116449   -0.011413640    0.002460989
     10        1          -0.002519008   -0.001487922   -0.001307568
     11        6          -0.000271454   -0.001228940    0.001154240
     12        1          -0.001082325   -0.000186687    0.000343698
     13        1           0.001516178    0.001457171    0.001082528
     14        1           0.003147824    0.001238515   -0.000244707
     15        6          -0.000127889   -0.004108970    0.000963647
     16        1           0.001900766    0.001014499    0.000285446
     17        1          -0.001149061    0.001676845   -0.002006170
     18        1          -0.001781841    0.002533943   -0.000056274
     19        6           0.003856581   -0.016918725    0.001978754
     20        6           0.003989557   -0.001120074   -0.000614541
     21        1          -0.000054830   -0.000109380    0.002960516
     22        1          -0.001760745    0.000723036    0.001659258
     23        1           0.000204133    0.002605787   -0.000992946
     24        6          -0.005764888    0.010347492    0.000814273
     25        1          -0.002927120    0.001223385   -0.001910660
     26        6          -0.007313746    0.002065558    0.001346239
     27        1           0.002279804   -0.000989387   -0.003747104
     28        1           0.002093750   -0.000540020   -0.000961632
 -------------------------------------------------------------------
 Cartesian Forces:  Max     0.016918725 RMS     0.003782461
 Leave Link  716 at Mon Jul 19 20:22:54 2021, MaxMem=   524288000 cpu:               0.3 elap:               0.1
 (Enter /opt/gaussian/g16_legacy/l103.exe)

 GradGradGradGradGradGradGradGradGradGradGradGradGradGradGradGradGradGrad
 Berny optimization.
 FormGI is forming the generalized inverse of G from B-inverse, IUseBI=4.
 Internal  Forces:  Max     0.014933671 RMS     0.002530294
 Search for a local minimum.
 Step number   1 out of a maximum of  138
 All quantities printed in internal units (Hartrees-Bohrs-Radians)
 RMS Force = .25303D-02 SwitMx=.10000D-02 MixMth= 1
 Mixed Optimization -- RFO/linear search
 Second derivative matrix not updated -- first step.
 ITU=  0
     Eigenvalues ---    0.00340   0.00579   0.00696   0.00698   0.00709
     Eigenvalues ---    0.00709   0.00820   0.01232   0.01286   0.01571
     Eigenvalues ---    0.01644   0.02783   0.02790   0.04104   0.04104
     Eigenvalues ---    0.05354   0.05360   0.07053   0.07070   0.07078
     Eigenvalues ---    0.07117   0.07290   0.07291   0.07324   0.07511
     Eigenvalues ---    0.09268   0.09373   0.12767   0.12814   0.15995
     Eigenvalues ---    0.16000   0.16000   0.16000   0.16000   0.16000
     Eigenvalues ---    0.16000   0.16000   0.16000   0.16000   0.16000
     Eigenvalues ---    0.16000   0.16000   0.16000   0.21870   0.21875
     Eigenvalues ---    0.22000   0.22001   0.24997   0.24999   0.24999
     Eigenvalues ---    0.25000   0.29223   0.30939   0.31829   0.31848
     Eigenvalues ---    0.31930   0.31930   0.32808   0.33872   0.33975
     Eigenvalues ---    0.33977   0.33982   0.34216   0.34236   0.34245
     Eigenvalues ---    0.34246   0.34256   0.34275   0.34288   0.34335
     Eigenvalues ---    0.34370   0.34372   0.34392   0.34601   0.34752
     Eigenvalues ---    0.34891   0.55560   0.55668
 RFO step:  Lambda=-4.61932081D-03 EMin= 3.40283931D-03
 Linear search not attempted -- first point.
 Iteration  1 RMS(Cart)=  0.09436876 RMS(Int)=  0.00271780
 Iteration  2 RMS(Cart)=  0.00389961 RMS(Int)=  0.00016772
 Iteration  3 RMS(Cart)=  0.00000632 RMS(Int)=  0.00016766
 Iteration  4 RMS(Cart)=  0.00000000 RMS(Int)=  0.00016766
 ITry= 1 IFail=0 DXMaxC= 4.04D-01 DCOld= 1.00D+10 DXMaxT= 3.00D-01 DXLimC= 3.00D+00 Rises=F
 Variable       Old X    -DE/DX   Delta X   Delta X   Delta X     New X
                                 (Linear)    (Quad)   (Total)
    R1        2.07373  -0.00001   0.00000  -0.00001  -0.00001   2.07371
    R2        2.07547  -0.00155   0.00000  -0.00452  -0.00452   2.07095
    R3        2.86129   0.00040   0.00000   0.00126   0.00126   2.86255
    R4        2.89540   0.00317   0.00000   0.01069   0.01069   2.90608
    R5        2.84423   0.00286   0.00000   0.00885   0.00885   2.85308
    R6        2.54543  -0.01413   0.00000  -0.02517  -0.02517   2.52026
    R7        2.06673  -0.00095   0.00000  -0.00273  -0.00273   2.06400
    R8        2.06967  -0.00047   0.00000  -0.00135  -0.00135   2.06832
    R9        2.06768   0.00091   0.00000   0.00260   0.00260   2.07028
   R10        2.06080   0.00047   0.00000   0.00135   0.00135   2.06214
   R11        2.82690   0.00385   0.00000   0.01157   0.01157   2.83847
   R12        2.06328  -0.00018   0.00000  -0.00051  -0.00051   2.06277
   R13        2.06846   0.00018   0.00000   0.00051   0.00051   2.06897
   R14        2.06711   0.00114   0.00000   0.00328   0.00328   2.07039
   R15        2.06933  -0.00164   0.00000  -0.00473  -0.00473   2.06460
   R16        2.06901   0.00080   0.00000   0.00230   0.00230   2.07131
   R17        2.06917   0.00062   0.00000   0.00180   0.00180   2.07096
   R18        2.84272   0.00130   0.00000   0.00402   0.00402   2.84674
   R19        2.84272   0.00234   0.00000   0.00723   0.00723   2.84996
   R20        2.54638  -0.01493   0.00000  -0.02666  -0.02666   2.51972
   R21        2.06706  -0.00049   0.00000  -0.00140  -0.00140   2.06566
   R22        2.06919  -0.00044   0.00000  -0.00126  -0.00126   2.06793
   R23        2.06869   0.00089   0.00000   0.00257   0.00257   2.07127
   R24        2.05852   0.00027   0.00000   0.00077   0.00077   2.05928
   R25        2.84458   0.00243   0.00000   0.00753   0.00753   2.85210
   R26        2.07360  -0.00144   0.00000  -0.00418  -0.00418   2.06942
   R27        2.07368  -0.00031   0.00000  -0.00090  -0.00090   2.07279
    A1        1.84117   0.00191   0.00000   0.01544   0.01518   1.85635
    A2        1.91565  -0.00060   0.00000  -0.00437  -0.00432   1.91133
    A3        1.92777  -0.00333   0.00000  -0.03150  -0.03156   1.89621
    A4        1.91172   0.00035   0.00000   0.01706   0.01707   1.92880
    A5        1.91631  -0.00238   0.00000  -0.01218  -0.01243   1.90389
    A6        1.94819   0.00391   0.00000   0.01570   0.01569   1.96389
    A7        2.01776   0.00138   0.00000   0.00547   0.00533   2.02309
    A8        2.09948   0.00021   0.00000   0.00089   0.00075   2.10022
    A9        2.16592  -0.00158   0.00000  -0.00614  -0.00628   2.15964
   A10        1.95990   0.00085   0.00000   0.00791   0.00789   1.96779
   A11        1.93469  -0.00133   0.00000  -0.00701  -0.00701   1.92768
   A12        1.92044   0.00278   0.00000   0.01311   0.01311   1.93355
   A13        1.85783   0.00157   0.00000   0.01664   0.01662   1.87445
   A14        1.90221  -0.00231   0.00000  -0.01582  -0.01585   1.88636
   A15        1.88631  -0.00176   0.00000  -0.01606  -0.01603   1.87028
   A16        2.06579  -0.00236   0.00000  -0.01544  -0.01544   2.05035
   A17        2.22777  -0.00139   0.00000  -0.00620  -0.00620   2.22158
   A18        1.98960   0.00375   0.00000   0.02165   0.02165   2.01125
   A19        1.97969  -0.00252   0.00000  -0.01496  -0.01489   1.96480
   A20        1.91084   0.00239   0.00000   0.01437   0.01432   1.92516
   A21        1.91517   0.00399   0.00000   0.02405   0.02402   1.93919
   A22        1.87693   0.00006   0.00000   0.00076   0.00081   1.87773
   A23        1.89114  -0.00086   0.00000  -0.00493  -0.00485   1.88629
   A24        1.88763  -0.00327   0.00000  -0.02062  -0.02077   1.86686
   A25        1.87986   0.00071   0.00000   0.00667   0.00669   1.88655
   A26        1.87999   0.00080   0.00000   0.00936   0.00937   1.88936
   A27        1.95963  -0.00213   0.00000  -0.00932  -0.00931   1.95032
   A28        1.89499  -0.00320   0.00000  -0.02654  -0.02653   1.86846
   A29        1.92386   0.00158   0.00000   0.00729   0.00730   1.93116
   A30        1.92359   0.00211   0.00000   0.01159   0.01161   1.93519
   A31        2.00705   0.00191   0.00000   0.00759   0.00746   2.01451
   A32        2.11424   0.00249   0.00000   0.00991   0.00977   2.12401
   A33        2.16180  -0.00439   0.00000  -0.01713  -0.01726   2.14454
   A34        1.96318  -0.00077   0.00000  -0.00155  -0.00155   1.96162
   A35        1.93020  -0.00077   0.00000  -0.00358  -0.00358   1.92663
   A36        1.92405   0.00290   0.00000   0.01341   0.01343   1.93747
   A37        1.85800   0.00226   0.00000   0.02168   0.02167   1.87966
   A38        1.89497  -0.00152   0.00000  -0.01104  -0.01103   1.88394
   A39        1.89088  -0.00225   0.00000  -0.01979  -0.01977   1.87111
   A40        2.07880  -0.00221   0.00000  -0.01530  -0.01586   2.06294
   A41        2.19968  -0.00311   0.00000  -0.01345  -0.01402   2.18566
   A42        2.00426   0.00535   0.00000   0.03051   0.02992   2.03418
   A43        1.95278   0.00335   0.00000   0.01438   0.01449   1.96727
   A44        1.92964  -0.00397   0.00000  -0.03385  -0.03398   1.89566
   A45        1.92358  -0.00228   0.00000  -0.01733  -0.01754   1.90604
   A46        1.92326   0.00099   0.00000   0.01351   0.01361   1.93687
   A47        1.88959   0.00019   0.00000   0.01268   0.01272   1.90232
   A48        1.84135   0.00166   0.00000   0.01119   0.01062   1.85196
    D1       -0.60698   0.00041   0.00000  -0.06463  -0.06467  -0.67165
    D2        2.52691   0.00092   0.00000  -0.03446  -0.03439   2.49252
    D3       -2.62068  -0.00175   0.00000  -0.09039  -0.09037  -2.71105
    D4        0.51320  -0.00124   0.00000  -0.06021  -0.06008   0.45312
    D5        1.53639  -0.00158   0.00000  -0.09713  -0.09727   1.43912
    D6       -1.61291  -0.00107   0.00000  -0.06695  -0.06699  -1.67989
    D7       -1.08072   0.00055   0.00000   0.04186   0.04177  -1.03895
    D8        3.05168  -0.00023   0.00000   0.03875   0.03884   3.09052
    D9        1.02275   0.00146   0.00000   0.05562   0.05537   1.07812
   D10        0.94257  -0.00046   0.00000   0.03512   0.03522   0.97780
   D11       -1.20821  -0.00125   0.00000   0.03201   0.03228  -1.17592
   D12        3.04605   0.00045   0.00000   0.04888   0.04882   3.09486
   D13        3.06603   0.00096   0.00000   0.05882   0.05879   3.12482
   D14        0.91525   0.00017   0.00000   0.05571   0.05586   0.97110
   D15       -1.11368   0.00187   0.00000   0.07258   0.07239  -1.04130
   D16       -2.59499  -0.00086   0.00000  -0.03186  -0.03187  -2.62686
   D17       -0.51945   0.00078   0.00000  -0.01030  -0.01030  -0.52976
   D18        1.56608  -0.00046   0.00000  -0.02628  -0.02632   1.53976
   D19        0.55464  -0.00140   0.00000  -0.06336  -0.06335   0.49130
   D20        2.63018   0.00025   0.00000  -0.04181  -0.04177   2.58840
   D21       -1.56747  -0.00099   0.00000  -0.05779  -0.05779  -1.62527
   D22        0.01681  -0.00152   0.00000  -0.05428  -0.05424  -0.03743
   D23       -3.11800  -0.00160   0.00000  -0.05740  -0.05733   3.10786
   D24       -3.13317  -0.00096   0.00000  -0.02136  -0.02143   3.12858
   D25        0.01520  -0.00104   0.00000  -0.02448  -0.02452  -0.00932
   D26        0.07462  -0.00010   0.00000  -0.00791  -0.00791   0.06670
   D27        2.17098  -0.00000   0.00000  -0.00668  -0.00675   2.16423
   D28       -2.04304  -0.00017   0.00000  -0.00880  -0.00870  -2.05174
   D29       -3.06044  -0.00015   0.00000  -0.01080  -0.01082  -3.07127
   D30       -0.96408  -0.00006   0.00000  -0.00957  -0.00966  -0.97374
   D31        1.10508  -0.00023   0.00000  -0.01169  -0.01161   1.09347
   D32       -3.10452   0.00040   0.00000   0.01688   0.01704  -3.08748
   D33        0.05053  -0.00008   0.00000  -0.01263  -0.01279   0.03774
   D34       -1.00864   0.00098   0.00000   0.02416   0.02432  -0.98433
   D35        2.14641   0.00049   0.00000  -0.00535  -0.00551   2.14090
   D36        1.08281  -0.00065   0.00000   0.00323   0.00338   1.08619
   D37       -2.04533  -0.00114   0.00000  -0.02628  -0.02644  -2.07177
   D38       -2.69436  -0.00153   0.00000  -0.06842  -0.06832  -2.76269
   D39       -0.61950   0.00030   0.00000  -0.04443  -0.04431  -0.66381
   D40        1.47117  -0.00112   0.00000  -0.06273  -0.06263   1.40854
   D41        0.43336  -0.00098   0.00000  -0.03776  -0.03787   0.39549
   D42        2.50822   0.00086   0.00000  -0.01377  -0.01386   2.49436
   D43       -1.68429  -0.00056   0.00000  -0.03207  -0.03218  -1.71647
   D44        0.00904  -0.00057   0.00000   0.00118   0.00066   0.00970
   D45       -3.09843  -0.00200   0.00000  -0.06578  -0.06540   3.11935
   D46       -3.11786  -0.00115   0.00000  -0.03125  -0.03163   3.13369
   D47        0.05785  -0.00258   0.00000  -0.09822  -0.09769  -0.03984
   D48       -1.60124   0.00074   0.00000   0.00747   0.00780  -1.59344
   D49        0.55314  -0.00128   0.00000  -0.01620  -0.01594   0.53721
   D50        2.55879   0.00134   0.00000   0.01145   0.01177   2.57056
   D51        1.57320  -0.00051   0.00000  -0.05625  -0.05652   1.51668
   D52       -2.55560  -0.00253   0.00000  -0.07992  -0.08026  -2.63586
   D53       -0.54995   0.00009   0.00000  -0.05227  -0.05255  -0.60250
         Item               Value     Threshold  Converged?
 Maximum Force            0.014934     0.002500     NO 
 RMS     Force            0.002530     0.001667     NO 
 Maximum Displacement     0.403751     0.010000     NO 
 RMS     Displacement     0.093631     0.006667     NO 
 Predicted change in Energy=-2.606307D-03
 Lowest energy point so far.  Saving SCF results.
 GradGradGradGradGradGradGradGradGradGradGradGradGradGradGradGradGradGrad

 Leave Link  103 at Mon Jul 19 20:22:54 2021, MaxMem=   524288000 cpu:               0.3 elap:               0.1
 (Enter /opt/gaussian/g16_legacy/l202.exe)
                          Input orientation:                          
 ---------------------------------------------------------------------
 Center     Atomic      Atomic             Coordinates (Angstroms)
 Number     Number       Type             X           Y           Z
 ---------------------------------------------------------------------
      1          6           0        2.193427    1.254052   -8.995600
      2          1           0        1.879657    0.248089   -9.301850
      3          1           0        2.049448    1.901332   -9.868120
      4          6           0        3.652551    1.227231   -8.589595
      5          6           0        4.103769    0.002736   -7.830345
      6          1           0        4.926679    0.211380   -7.143148
      7          1           0        3.278694   -0.405761   -7.238459
      8          1           0        4.427821   -0.784640   -8.519731
      9          6           0        4.451550    2.254759   -8.880192
     10          1           0        4.021117    3.083131   -9.445285
     11          6           0        5.901500    2.410181   -8.520128
     12          1           0        6.305423    1.528995   -8.018250
     13          1           0        6.500286    2.581597   -9.420560
     14          1           0        6.054833    3.274763   -7.864896
     15          6           0       -2.246564    2.798665   -9.184868
     16          1           0       -2.696451    1.826906   -8.968235
     17          1           0       -2.821388    3.565913   -8.653527
     18          1           0       -2.358867    2.997621  -10.256697
     19          6           0       -0.796526    2.845248   -8.779218
[...]
                 (A) (A) (A) (A) (A) (A) (A) (A) (A) (A) (A) (A)
                 (A) (A) (A) (A) (A) (A) (A) (A) (A) (A) (A) (A)
                 (A) (A) (A) (A) (A) (A) (A) (A) (A) (A) (A) (A)
                 (A) (A) (A) (A) (A) (A) (A) (A) (A) (A) (A) (A)
                 (A) (A) (A) (A) (A) (A) (A) (A) (A) (A) (A) (A)
                 (A) (A) (A) (A) (A) (A) (A) (A) (A) (A) (A) (A)
                 (A) (A) (A) (A) (A) (A) (A) (A) (A) (A) (A) (A)
                 (A) (A) (A) (A) (A) (A) (A) (A) (A) (A) (A) (A)
                 (A) (A) (A) (A) (A) (A) (A) (A) (A) (A) (A) (A)
                 (A) (A) (A) (A) (A) (A) (A) (A) (A) (A) (A) (A)
                 (A) (A) (A) (A) (A) (A) (A) (A) (A) (A) (A) (A)
                 (A) (A) (A) (A) (A) (A) (A) (A) (A) (A) (A) (A)
                 (A) (A) (A) (A) (A) (A) (A) (A) (A)
 The electronic state is 1-A.
 Alpha  occ. eigenvalues --  -10.54451 -10.54104 -10.53765 -10.53662 -10.53449
 Alpha  occ. eigenvalues --  -10.53399 -10.53337 -10.53330 -10.53253 -10.52995
 Alpha  occ. eigenvalues --   -0.92098  -0.90090  -0.84783  -0.80847  -0.77794
 Alpha  occ. eigenvalues --   -0.76652  -0.72675  -0.67617  -0.58501  -0.58017
 Alpha  occ. eigenvalues --   -0.54225  -0.52865  -0.49982  -0.49473  -0.48995
 Alpha  occ. eigenvalues --   -0.47839  -0.46071  -0.45556  -0.44287  -0.43795
 Alpha  occ. eigenvalues --   -0.42917  -0.42393  -0.42142  -0.40607  -0.39360
 Alpha  occ. eigenvalues --   -0.38003  -0.36344  -0.28929  -0.27183
 Alpha virt. eigenvalues --    0.06864   0.08168   0.12796   0.14729   0.16128
 Alpha virt. eigenvalues --    0.16901   0.17725   0.18746   0.19610   0.20233
 Alpha virt. eigenvalues --    0.21187   0.21730   0.22512   0.23004   0.23281
 Alpha virt. eigenvalues --    0.24054   0.25432   0.25683   0.26882   0.27827
 Alpha virt. eigenvalues --    0.28466   0.29639   0.30206   0.31504   0.32319
 Alpha virt. eigenvalues --    0.38653   0.40154   0.46789   0.49295   0.53718
 Alpha virt. eigenvalues --    0.54502   0.56235   0.58230   0.59148   0.59403
 Alpha virt. eigenvalues --    0.60147   0.61573   0.62675   0.64011   0.66507
 Alpha virt. eigenvalues --    0.66630   0.68662   0.69445   0.71132   0.73016
 Alpha virt. eigenvalues --    0.74545   0.76440   0.77072   0.78953   0.80223
 Alpha virt. eigenvalues --    0.80542   0.82066   0.83400   0.84816   0.85929
 Alpha virt. eigenvalues --    0.87690   0.88910   0.90549   0.92321   0.92629
 Alpha virt. eigenvalues --    0.93220   0.93905   0.94927   0.95375   0.96381
 Alpha virt. eigenvalues --    0.96871   0.97300   0.97837   0.99480   1.01153
 Alpha virt. eigenvalues --    1.01415   1.03120   1.03609   1.06082   1.06289
 Alpha virt. eigenvalues --    1.07984   1.19819   1.21681   1.24587   1.25294
 Alpha virt. eigenvalues --    1.27714   1.31365   1.34815   1.35974   1.37936
 Alpha virt. eigenvalues --    1.40942   1.44539   1.44752   1.49014   1.50763
 Alpha virt. eigenvalues --    1.52149   1.57967   1.66714   1.69094   1.73464
 Alpha virt. eigenvalues --    1.77006   1.78056   1.78379   1.81928   1.83115
 Alpha virt. eigenvalues --    1.83579   1.84039   1.85235   1.87293   1.88572
 Alpha virt. eigenvalues --    1.90221   1.90830   1.94799   1.97906   2.01697
 Alpha virt. eigenvalues --    2.03328   2.03485   2.04689   2.09636   2.09989
 Alpha virt. eigenvalues --    2.10101   2.10471   2.11276   2.13227   2.14223
 Alpha virt. eigenvalues --    2.15895   2.16622   2.17311   2.17484   2.18732
 Alpha virt. eigenvalues --    2.20764   2.22282   2.22847   2.23740   2.27753
 Alpha virt. eigenvalues --    2.29107   2.31221   2.33537   2.34759   2.37117
 Alpha virt. eigenvalues --    2.37938   2.40361   2.41797   2.42405   2.45775
 Alpha virt. eigenvalues --    2.46591   2.48308   2.49789   2.53658   2.53705
 Alpha virt. eigenvalues --    2.55196   2.59416   2.60223   2.62173   2.65168
 Alpha virt. eigenvalues --    2.65409   2.69549   2.70466   2.71584   2.73289
 Alpha virt. eigenvalues --    2.74517   2.76040   2.79174   2.80541   2.81729
 Alpha virt. eigenvalues --    2.84522   2.86001   2.86864   2.87817   2.88734
 Alpha virt. eigenvalues --    2.90035   2.91727   2.93594   2.94618   3.03981
 Alpha virt. eigenvalues --    3.04847   3.08268   3.09891   3.17295   3.18182
 Alpha virt. eigenvalues --    3.22868   3.24988   3.27203   3.34339   3.39631
 Alpha virt. eigenvalues --    3.40732   3.41412   3.43022   3.44190   3.44794
 Alpha virt. eigenvalues --    3.45089   3.46999   3.48404   3.51153   3.52020
 Alpha virt. eigenvalues --    3.57427   4.18971   4.22071   4.34069   4.43674
 Alpha virt. eigenvalues --    4.49650   4.50972   4.52483   4.64098   4.69759
 Alpha virt. eigenvalues --    4.75713
          Condensed to atoms (all electrons):
               1          2          3          4          5          6
     1  C    5.019447   0.378496   0.387061   0.365656  -0.072413   0.004381
     2  H    0.378496   0.618052  -0.031375  -0.033868  -0.004693  -0.000057
     3  H    0.387061  -0.031375   0.605699  -0.039788   0.005365  -0.000146
     4  C    0.365656  -0.033868  -0.039788   4.741128   0.368354  -0.027644
     5  C   -0.072413  -0.004693   0.005365   0.368354   5.017650   0.384173
     6  H    0.004381  -0.000057  -0.000146  -0.027644   0.384173   0.571458
     7  H   -0.002942  -0.000249  -0.000107  -0.032523   0.383646  -0.027796
     8  H   -0.003174   0.005398   0.000062  -0.036188   0.382036  -0.026657
     9  C   -0.030981   0.000362  -0.007220   0.721122  -0.054989  -0.006924
    10  H   -0.015072   0.000368   0.007110  -0.034418   0.006528   0.000002
    11  C    0.005620  -0.000207   0.000197  -0.038692  -0.015214   0.000530
    12  H    0.000079   0.000003   0.000009  -0.006625   0.001537   0.003710
    13  H   -0.000160   0.000019  -0.000007  -0.000334   0.000383   0.000065
    14  H   -0.000114  -0.000004  -0.000010  -0.000443   0.000368  -0.000218
    15  C   -0.000065   0.000001  -0.000121   0.000003  -0.000000  -0.000000
    16  H   -0.000002   0.000001  -0.000001   0.000000  -0.000000  -0.000000
    17  H   -0.000006   0.000000   0.000003   0.000000  -0.000000   0.000000
    18  H    0.000021  -0.000003  -0.000004  -0.000000   0.000000  -0.000000
    19  C   -0.006007   0.000148   0.002803   0.000215  -0.000004   0.000000
    20  C   -0.000327  -0.000001   0.001104  -0.000101   0.000000   0.000000
    21  H   -0.000455   0.000017   0.000625   0.000100   0.000002   0.000000
    22  H    0.000148  -0.000003  -0.000103  -0.000010   0.000000  -0.000000
    23  H   -0.000019  -0.000001   0.000029   0.000003   0.000000   0.000000
    24  C   -0.049156  -0.001865  -0.002484   0.005372   0.000003   0.000000
    25  H    0.000462   0.001677  -0.000095  -0.000097  -0.000002  -0.000000
    26  C    0.347193  -0.047486  -0.040637  -0.053712  -0.000958   0.000153
    27  H   -0.044810   0.006253  -0.005197   0.002386  -0.000996  -0.000033
    28  H   -0.038589  -0.005224   0.005537  -0.006735   0.003793  -0.000019
               7          8          9         10         11         12
     1  C   -0.002942  -0.003174  -0.030981  -0.015072   0.005620   0.000079
     2  H   -0.000249   0.005398   0.000362   0.000368  -0.000207   0.000003
     3  H   -0.000107   0.000062  -0.007220   0.007110   0.000197   0.000009
     4  C   -0.032523  -0.036188   0.721122  -0.034418  -0.038692  -0.006625
     5  C    0.383646   0.382036  -0.054989   0.006528  -0.015214   0.001537
     6  H   -0.027796  -0.026657  -0.006924   0.000002   0.000530   0.003710
     7  H    0.577903  -0.034630  -0.001948  -0.000159   0.000595  -0.000198
     8  H   -0.034630   0.587077   0.002224  -0.000165   0.000313  -0.000104
     9  C   -0.001948   0.002224   4.893958   0.378133   0.357645  -0.035605
    10  H   -0.000159  -0.000165   0.378133   0.614967  -0.054573   0.004455
    11  C    0.000595   0.000313   0.357645  -0.054573   4.979161   0.389641
    12  H   -0.000198  -0.000104  -0.035605   0.004455   0.389641   0.578829
    13  H   -0.000038   0.000026  -0.033192  -0.001459   0.385060  -0.028054
    14  H    0.000098  -0.000020  -0.032936  -0.001501   0.385220  -0.028100
    15  C   -0.000000  -0.000000   0.000000  -0.000000   0.000000   0.000000
    16  H    0.000000  -0.000000  -0.000000  -0.000000   0.000000   0.000000
    17  H    0.000000   0.000000  -0.000000  -0.000000   0.000000   0.000000
    18  H   -0.000000  -0.000000   0.000000   0.000000  -0.000000  -0.000000
    19  C   -0.000005   0.000000  -0.000002  -0.000008   0.000000  -0.000000
    20  C    0.000001  -0.000000  -0.000024  -0.000012   0.000000  -0.000000
    21  H   -0.000003   0.000000   0.000111   0.000115  -0.000001   0.000000
    22  H    0.000000   0.000000  -0.000001   0.000005  -0.000000   0.000000
    23  H    0.000000   0.000000   0.000000  -0.000000   0.000000   0.000000
    24  C   -0.000024  -0.000043  -0.000024  -0.000023   0.000002   0.000000
    25  H    0.000009   0.000000  -0.000001   0.000000  -0.000000  -0.000000
    26  C    0.002577  -0.002099  -0.004504   0.000257  -0.000100  -0.000003
    27  H    0.000343   0.000192   0.002186   0.000100  -0.000079   0.000002
    28  H   -0.000069   0.000722   0.000054  -0.000008   0.000010  -0.000002
              13         14         15         16         17         18
     1  C   -0.000160  -0.000114  -0.000065  -0.000002  -0.000006   0.000021
     2  H    0.000019  -0.000004   0.000001   0.000001   0.000000  -0.000003
     3  H   -0.000007  -0.000010  -0.000121  -0.000001   0.000003  -0.000004
     4  C   -0.000334  -0.000443   0.000003   0.000000   0.000000  -0.000000
     5  C    0.000383   0.000368  -0.000000  -0.000000  -0.000000   0.000000
     6  H    0.000065  -0.000218  -0.000000  -0.000000   0.000000  -0.000000
     7  H   -0.000038   0.000098  -0.000000   0.000000   0.000000  -0.000000
     8  H    0.000026  -0.000020  -0.000000  -0.000000   0.000000  -0.000000
     9  C   -0.033192  -0.032936   0.000000  -0.000000  -0.000000   0.000000
    10  H   -0.001459  -0.001501  -0.000000  -0.000000  -0.000000   0.000000
    11  C    0.385060   0.385220   0.000000   0.000000   0.000000  -0.000000
    12  H   -0.028054  -0.028100   0.000000   0.000000   0.000000  -0.000000
    13  H    0.579288  -0.033960   0.000000  -0.000000   0.000000  -0.000000
    14  H   -0.033960   0.579013  -0.000000  -0.000000  -0.000000   0.000000
    15  C    0.000000  -0.000000   5.005623   0.385027   0.381405   0.381020
    16  H   -0.000000  -0.000000   0.385027   0.570334  -0.026323  -0.026464
    17  H    0.000000  -0.000000   0.381405  -0.026323   0.590808  -0.036825
    18  H   -0.000000   0.000000   0.381020  -0.026464  -0.036825   0.591303
    19  C    0.000000  -0.000000   0.369044  -0.033409  -0.035904  -0.035857
    20  C   -0.000000   0.000000  -0.078285   0.004736  -0.001088  -0.001679
    21  H    0.000000  -0.000001   0.004848  -0.000170  -0.000018  -0.000046
    22  H   -0.000000   0.000000  -0.002707  -0.000017  -0.000758   0.004055
    23  H    0.000000  -0.000000  -0.002689  -0.000035   0.004076  -0.000775
    24  C    0.000000  -0.000000  -0.038878  -0.004985  -0.001464  -0.000555
    25  H   -0.000000   0.000000  -0.014174   0.006463   0.000239   0.000247
    26  C   -0.000005   0.000020   0.005897   0.000105  -0.000208  -0.000109
    27  H    0.000001  -0.000006   0.000040   0.000010   0.000016  -0.000009
    28  H    0.000000  -0.000000  -0.000169  -0.000010   0.000008  -0.000001
              19         20         21         22         23         24
     1  C   -0.006007  -0.000327  -0.000455   0.000148  -0.000019  -0.049156
     2  H    0.000148  -0.000001   0.000017  -0.000003  -0.000001  -0.001865
     3  H    0.002803   0.001104   0.000625  -0.000103   0.000029  -0.002484
     4  C    0.000215  -0.000101   0.000100  -0.000010   0.000003   0.005372
     5  C   -0.000004   0.000000   0.000002   0.000000   0.000000   0.000003
     6  H    0.000000   0.000000   0.000000  -0.000000   0.000000   0.000000
     7  H   -0.000005   0.000001  -0.000003   0.000000   0.000000  -0.000024
     8  H    0.000000  -0.000000   0.000000   0.000000   0.000000  -0.000043
     9  C   -0.000002  -0.000024   0.000111  -0.000001   0.000000  -0.000024
    10  H   -0.000008  -0.000012   0.000115   0.000005  -0.000000  -0.000023
    11  C    0.000000   0.000000  -0.000001  -0.000000   0.000000   0.000002
    12  H   -0.000000  -0.000000   0.000000   0.000000   0.000000   0.000000
    13  H    0.000000  -0.000000   0.000000  -0.000000   0.000000   0.000000
    14  H   -0.000000   0.000000  -0.000001   0.000000  -0.000000  -0.000000
    15  C    0.369044  -0.078285   0.004848  -0.002707  -0.002689  -0.038878
    16  H   -0.033409   0.004736  -0.000170  -0.000017  -0.000035  -0.004985
    17  H   -0.035904  -0.001088  -0.000018  -0.000758   0.004076  -0.001464
    18  H   -0.035857  -0.001679  -0.000046   0.004055  -0.000775  -0.000555
    19  C    4.719091   0.378735  -0.026827  -0.035067  -0.035717   0.722196
    20  C    0.378735   5.006908   0.383674   0.383445   0.383299  -0.054808
    21  H   -0.026827   0.383674   0.573085  -0.027870  -0.026820  -0.009925
    22  H   -0.035067   0.383445  -0.027870   0.583835  -0.034539   0.000300
    23  H   -0.035717   0.383299  -0.026820  -0.034539   0.582963   0.000804
    24  C    0.722196  -0.054808  -0.009925   0.000300   0.000804   4.906597
    25  H   -0.034639   0.006460   0.000032  -0.000168  -0.000155   0.377146
    26  C   -0.042598  -0.013453   0.002338   0.000558   0.000025   0.358349
    27  H   -0.007283  -0.000032   0.002544  -0.000207   0.000214  -0.036571
    28  H    0.003260   0.000391  -0.000030  -0.000014   0.000012  -0.027147
              25         26         27         28
     1  C    0.000462   0.347193  -0.044810  -0.038589
     2  H    0.001677  -0.047486   0.006253  -0.005224
     3  H   -0.000095  -0.040637  -0.005197   0.005537
     4  C   -0.000097  -0.053712   0.002386  -0.006735
     5  C   -0.000002  -0.000958  -0.000996   0.003793
     6  H   -0.000000   0.000153  -0.000033  -0.000019
     7  H    0.000009   0.002577   0.000343  -0.000069
     8  H    0.000000  -0.002099   0.000192   0.000722
     9  C   -0.000001  -0.004504   0.002186   0.000054
    10  H    0.000000   0.000257   0.000100  -0.000008
    11  C   -0.000000  -0.000100  -0.000079   0.000010
    12  H   -0.000000  -0.000003   0.000002  -0.000002
    13  H   -0.000000  -0.000005   0.000001   0.000000
    14  H    0.000000   0.000020  -0.000006  -0.000000
    15  C   -0.014174   0.005897   0.000040  -0.000169
    16  H    0.006463   0.000105   0.000010  -0.000010
    17  H    0.000239  -0.000208   0.000016   0.000008
    18  H    0.000247  -0.000109  -0.000009  -0.000001
    19  C   -0.034639  -0.042598  -0.007283   0.003260
    20  C    0.006460  -0.013453  -0.000032   0.000391
    21  H    0.000032   0.002338   0.002544  -0.000030
    22  H   -0.000168   0.000558  -0.000207  -0.000014
    23  H   -0.000155   0.000025   0.000214   0.000012
    24  C    0.377146   0.358349  -0.036571  -0.027147
    25  H    0.612839  -0.049942   0.004369  -0.005783
    26  C   -0.049942   5.025173   0.388041   0.382512
    27  H    0.004369   0.388041   0.603043  -0.034538
    28  H   -0.005783   0.382512  -0.034538   0.607301
 Mulliken charges:
               1
     1  C   -0.244272
     2  H    0.114242
     3  H    0.111690
     4  C    0.106839
     5  C   -0.404567
     6  H    0.125021
     7  H    0.135522
     8  H    0.125027
     9  C   -0.147445
    10  H    0.095358
    11  C   -0.395128
    12  H    0.120426
    13  H    0.132367
    14  H    0.132594
    15  C   -0.395819
    16  H    0.124740
    17  H    0.126038
    18  H    0.125680
    19  C    0.097833
    20  C   -0.398942
    21  H    0.124676
    22  H    0.129119
    23  H    0.129325
    24  C   -0.142816
    25  H    0.095113
    26  C   -0.257385
    27  H    0.120023
    28  H    0.114738
 Sum of Mulliken charges =  -0.00000
 Mulliken charges with hydrogens summed into heavy atoms:
               1
     1  C   -0.018340
     4  C    0.106839
     5  C   -0.018997
     9  C   -0.052087
    11  C   -0.009740
    15  C   -0.019360
    19  C    0.097833
    20  C   -0.015823
    24  C   -0.047702
    26  C   -0.022624
 Electronic spatial extent (au):  <R**2>=           2616.6468
 Charge=             -0.0000 electrons
 Dipole moment (field-independent basis, Debye):
    X=             -0.0526    Y=              0.1210    Z=              0.1040  Tot=              0.1679
 Quadrupole moment (field-independent basis, Debye-Ang):
   XX=            -62.1793   YY=            -62.3179   ZZ=            -66.3098
   XY=             -0.9969   XZ=              1.2278   YZ=              0.1183
 Traceless Quadrupole moment (field-independent basis, Debye-Ang):
   XX=              1.4230   YY=              1.2844   ZZ=             -2.7075
   XY=             -0.9969   XZ=              1.2278   YZ=              0.1183
 Octapole moment (field-independent basis, Debye-Ang**2):
  XXX=              0.1524  YYY=             -0.9311  ZZZ=              1.3695  XYY=              0.4250
  XXY=              4.7992  XXZ=              1.0445  XZZ=             -0.8224  YZZ=              1.4003
  YYZ=             -1.9381  XYZ=             -2.4255
 Hexadecapole moment (field-independent basis, Debye-Ang**3):
 XXXX=          -2862.5771 YYYY=           -523.6128 ZZZZ=           -178.6867 XXXY=             -6.8768
 XXXZ=              4.6740 YYYX=              8.3636 YYYZ=              1.2428 ZZZX=              3.2112
 ZZZY=              0.2649 XXYY=           -560.8891 XXZZ=           -522.1676 YYZZ=           -113.4601
 XXYZ=              1.5052 YYXZ=              3.0170 ZZXY=             -4.0294
 N-N= 5.126388497368D+02 E-N=-1.930364689565D+03  KE= 3.881380126489D+02
 No NMR shielding tensors so no spin-rotation constants.
 Leave Link  601 at Mon Jul 19 21:09:35 2021, MaxMem=   524288000 cpu:               0.8 elap:               0.2
 (Enter /opt/gaussian/g16_legacy/l9999.exe)
 1\1\GINC-TRUENO90\FOpt\RM062X\6-31G(d,p)\C10H18\JRAMOS\19-Jul-2021\0\\
 #p opt=loose m062x/6-31g(d,p)\\Conformer number 002. Energy MM = 25.19
 2 kcal/mol\\0,1\C,2.234383144,1.3806519779,-9.0391719375\H,1.965391918
 9,0.4516401057,-9.5613813455\H,2.102687786,2.1961219195,-9.7589338121\
 C,3.6745436173,1.3153379706,-8.5901419696\C,4.0059101523,0.1746103155,
 -7.6619150236\H,5.078280406,0.0001535611,-7.5703676548\H,3.6110082799,
 0.3574133677,-6.6561148396\H,3.5431269152,-0.7517099403,-8.0201959109\
 C,4.5513422585,2.2391915728,-8.9968840728\H,4.1794868818,3.014164374,-
 9.6676867542\C,6.0044591549,2.3546727421,-8.6417842477\H,6.3422563981,
 1.5645405413,-7.9698728211\H,6.6284911467,2.3236409125,-9.541355508\H,
 6.2051331436,3.3137446894,-8.1521223979\C,-2.2298745697,2.7515564278,-
 9.2561711894\H,-2.6410170372,1.7402400636,-9.2249317392\H,-2.868940659
 9,3.4019286129,-8.6473794449\H,-2.2975804519,3.1197819725,-10.28653031
 74\C,-0.8071143404,2.7903434357,-8.7656846933\C,-0.1738602856,4.156387
 9807,-8.7827808248\H,0.8618322569,4.1513080977,-8.4396768931\H,-0.1901
 029037,4.5666868967,-9.7991807393\H,-0.7415301333,4.8528309589,-8.1547
 946914\C,-0.1796675991,1.6823965097,-8.358922516\H,-0.7276509682,0.741
 9540857,-8.4155113381\C,1.2434253424,1.589398554,-7.8766528607\H,1.535
 0340247,2.4907231363,-7.3266724225\H,1.3290461219,0.756089158,-7.17068
 20346\\Version=EM64L-G16RevA.03\State=1-A\HF=-391.6897264\RMSD=3.321e-
 09\RMSF=1.346e-05\Dipole=-0.0095746,0.0614237,0.0223935\Quadrupole=0.7
 299543,0.8720065,-1.6019609,-0.3615004,1.0835209,-1.0942341\PG=C01 [X(
 C10H18)]\\@


 THERE'S NOTHING SO GREAT AS THE GREAT OUTDOORS.

                                       -- ZIGGY
 Job cpu time:       0 days  3 hours  4 minutes 30.2 seconds.
 Elapsed time:       0 days  0 hours 48 minutes 40.5 seconds.
 File lengths (MBytes):  RWF=     33 Int=      0 D2E=      0 Chk=      6 Scr=      1
 Normal termination of Gaussian 16 at Mon Jul 19 21:09:35 2021.
